<event>
 6    0  0.1576925E-007  0.4632085E+03  0.7546771E-02  0.1023855E+00
         21   -1    0    0  502  501  0.00000000000E+00  0.00000000000E+00  0.25818003578E+03  0.25818003578E+03  0.00000000000E+00 0.  1.
         21   -1    0    0  501  502 -0.00000000000E+00 -0.00000000000E+00 -0.20776405234E+03  0.20776405234E+03  0.00000000000E+00 0.  1.
      99926    2    1    2    0    0  0.35527136788E-14  0.11546319456E-13  0.50415983443E+02  0.46594408812E+03  0.46320850798E+03 0.  0.
         25    1    3    3    0    0  0.24798323285E+02  0.65602020492E+01  0.26342569684E+02  0.13038187054E+03  0.12509000000E+03 0.  0.
         25    1    3    3    0    0  0.23344804484E+02 -0.10770912696E+03  0.15306673957E+02  0.16741576477E+03  0.12509000000E+03 0.  0.
         25    1    3    3    0    0 -0.48143127769E+02  0.10114892491E+03  0.87667398019E+01  0.16814645280E+03  0.12509000000E+03 0.  0.
<mgrwt>
<rscale>  2 0.46320851E+03</rscale>
<asrwt>0</asrwt>
<pdfrwt beam="1">  1       21 0.37967652E-01 0.46320851E+03</pdfrwt>
<pdfrwt beam="2">  1       21 0.30553537E-01 0.46320851E+03</pdfrwt>
<totfact> 0.63490231E+04</totfact>
</mgrwt>
</event>
<event>
 6    0  0.1576925E-007  0.4514078E+03  0.7546771E-02  0.1027303E+00
         21   -1    0    0  502  501  0.00000000000E+00  0.00000000000E+00  0.29387943048E+03  0.29387943048E+03  0.00000000000E+00 0. -1.
         21   -1    0    0  501  502 -0.00000000000E+00 -0.00000000000E+00 -0.17334406846E+03  0.17334406846E+03  0.00000000000E+00 0. -1.
      99926    2    1    2    0    0  0.00000000000E+00  0.35527136788E-14  0.12053536202E+03  0.46722349894E+03  0.45140782499E+03 0.  0.
         25    1    3    3    0    0 -0.66189082778E+02 -0.14743472822E+02 -0.34258900089E+01  0.14232922923E+03  0.12509000000E+03 0.  0.
         25    1    3    3    0    0  0.18987077533E+02 -0.51232800754E+02  0.93153187705E+01  0.13681956092E+03  0.12509000000E+03 0.  0.
         25    1    3    3    0    0  0.47202005244E+02  0.65976273576E+02  0.11464593326E+03  0.18807470879E+03  0.12509000000E+03 0.  0.
<mgrwt>
<rscale>  2 0.45140782E+03</rscale>
<asrwt>0</asrwt>
<pdfrwt beam="1">  1       21 0.43217563E-01 0.45140782E+03</pdfrwt>
<pdfrwt beam="2">  1       21 0.25491775E-01 0.45140782E+03</pdfrwt>
<totfact> 0.69605248E+04</totfact>
</mgrwt>
</event>
<event>
 6    0  0.1576925E-007  0.4546989E+03  0.7546771E-02  0.1026330E+00
         21   -1    0    0  502  501  0.00000000000E+00  0.00000000000E+00  0.89797711080E+02  0.89797711080E+02  0.00000000000E+00 0. -1.
         21   -1    0    0  501  502 -0.00000000000E+00 -0.00000000000E+00 -0.57560225122E+03  0.57560225122E+03  0.00000000000E+00 0. -1.
      99926    2    1    2    0    0  0.00000000000E+00  0.35527136788E-14 -0.48580454014E+03  0.66539996230E+03  0.45469886585E+03 0.  0.
         25    1    3    3    0    0 -0.79074434943E+02 -0.19274896087E+02 -0.27472534997E+03  0.31264326939E+03  0.12509000000E+03 0.  0.
         25    1    3    3    0    0 -0.12892431848E+02  0.20249635492E+02 -0.95530987342E+02  0.15921664542E+03  0.12509000000E+03 0.  0.
         25    1    3    3    0    0  0.91966866790E+02 -0.97473940517E+00 -0.11554820283E+03  0.19354004749E+03  0.12509000000E+03 0.  0.
<mgrwt>
<rscale>  2 0.45469887E+03</rscale>
<asrwt>0</asrwt>
<pdfrwt beam="1">  1       21 0.13205546E-01 0.45469887E+03</pdfrwt>
<pdfrwt beam="2">  1       21 0.84647391E-01 0.45469887E+03</pdfrwt>
<totfact> 0.54952259E+04</totfact>
</mgrwt>
</event>
<event>
 6    0  0.1576925E-007  0.4559672E+03  0.7546771E-02  0.1025957E+00
         21   -1    0    0  502  501  0.00000000000E+00  0.00000000000E+00  0.73436621187E+02  0.73436621187E+02  0.00000000000E+00 0.  1.
         21   -1    0    0  501  502 -0.00000000000E+00 -0.00000000000E+00 -0.70777387686E+03  0.70777387686E+03  0.00000000000E+00 0.  1.
      99926    2    1    2    0    0  0.00000000000E+00  0.00000000000E+00 -0.63433725567E+03  0.78121049804E+03  0.45596720093E+03 0.  0.
         25    1    3    3    0    0 -0.35027177557E+02  0.82308130869E+02 -0.22240102942E+03  0.27039093468E+03  0.12509000000E+03 0.  0.
         25    1    3    3    0    0 -0.16518759585E+02  0.80552780827E+01 -0.25571827190E+03  0.28526671661E+03  0.12509000000E+03 0.  0.
         25    1    3    3    0    0  0.51545937142E+02 -0.90363408952E+02 -0.15621795436E+03  0.22555284675E+03  0.12509000000E+03 0.  0.
<mgrwt>
<rscale>  2 0.45596720E+03</rscale>
<asrwt>0</asrwt>
<pdfrwt beam="1">  1       21 0.10799504E-01 0.45596720E+03</pdfrwt>
<pdfrwt beam="2">  1       21 0.10408439E+00 0.45596720E+03</pdfrwt>
<totfact> 0.48319237E+04</totfact>
</mgrwt>
</event>
<event>
 6    0  0.1576925E-007  0.4533835E+03  0.7546771E-02  0.1026718E+00
         21   -1    0    0  502  501  0.00000000000E+00  0.00000000000E+00  0.63168229946E+03  0.63168229946E+03  0.00000000000E+00 0. -1.
         21   -1    0    0  501  502 -0.00000000000E+00 -0.00000000000E+00 -0.81352824154E+02  0.81352824154E+02  0.00000000000E+00 0. -1.
      99926    2    1    2    0    0  0.00000000000E+00  0.00000000000E+00  0.55032947530E+03  0.71303512361E+03  0.45338345373E+03 0.  0.
         25    1    3    3    0    0 -0.10153749543E+03  0.38363132052E+01  0.12890655656E+03  0.20637099773E+03  0.12509000000E+03 0.  0.
         25    1    3    3    0    0  0.23851223672E+02 -0.27593769830E+00  0.25066065157E+03  0.28115338760E+03  0.12509000000E+03 0.  0.
         25    1    3    3    0    0  0.77686271760E+02 -0.35603755069E+01  0.17076226717E+03  0.22551073829E+03  0.12509000000E+03 0.  0.
<mgrwt>
<rscale>  2 0.45338345E+03</rscale>
<asrwt>0</asrwt>
<pdfrwt beam="1">  1       21 0.92894454E-01 0.45338345E+03</pdfrwt>
<pdfrwt beam="2">  1       21 0.11963651E-01 0.45338345E+03</pdfrwt>
<totfact> 0.52870132E+04</totfact>
</mgrwt>
</event>
<event>
 6    0  0.1576925E-007  0.4710452E+03  0.7546771E-02  0.1021626E+00
         21   -1    0    0  502  501  0.00000000000E+00  0.00000000000E+00  0.26130568939E+03  0.26130568939E+03  0.00000000000E+00 0. -1.
         21   -1    0    0  501  502 -0.00000000000E+00 -0.00000000000E+00 -0.21228349832E+03  0.21228349832E+03  0.00000000000E+00 0. -1.
      99926    2    1    2    0    0  0.91038288019E-14  0.00000000000E+00  0.49022191070E+02  0.47358918770E+03  0.47104516078E+03 0.  0.
         25    1    3    3    0    0 -0.10248043755E+03 -0.32576390906E+02  0.58275313517E+02  0.17494851126E+03  0.12509000000E+03 0.  0.
         25    1    3    3    0    0 -0.17009063871E+01  0.46918367934E+02  0.10531542394E+02  0.13402480299E+03  0.12509000000E+03 0.  0.
         25    1    3    3    0    0  0.10418134394E+03 -0.14341977027E+02 -0.19784664840E+02  0.16461587345E+03  0.12509000000E+03 0.  0.
<mgrwt>
<rscale>  2 0.47104516E+03</rscale>
<asrwt>0</asrwt>
<pdfrwt beam="1">  1       21 0.38427308E-01 0.47104516E+03</pdfrwt>
<pdfrwt beam="2">  1       21 0.31218161E-01 0.47104516E+03</pdfrwt>
<totfact> 0.59248858E+04</totfact>
</mgrwt>
</event>
<event>
 6    0  0.1576925E-007  0.4519918E+03  0.7546771E-02  0.1027130E+00
         21   -1    0    0  502  501  0.00000000000E+00  0.00000000000E+00  0.45863789255E+03  0.45863789255E+03  0.00000000000E+00 0. -1.
         21   -1    0    0  501  502 -0.00000000000E+00 -0.00000000000E+00 -0.11136048621E+03  0.11136048621E+03  0.00000000000E+00 0. -1.
      99926    2    1    2    0    0  0.00000000000E+00  0.00000000000E+00  0.34727740634E+03  0.56999837876E+03  0.45199176413E+03 0.  0.
         25    1    3    3    0    0 -0.17681436334E+02  0.35691760948E+02  0.71726136044E+02  0.14959505902E+03  0.12509000000E+03 0.  0.
         25    1    3    3    0    0 -0.64228609680E+02  0.41848527581E+02  0.15396249732E+03  0.21267010190E+03  0.12509000000E+03 0.  0.
         25    1    3    3    0    0  0.81910046014E+02 -0.77540288529E+02  0.12158877297E+03  0.20773321784E+03  0.12509000000E+03 0.  0.
<mgrwt>
<rscale>  2 0.45199176E+03</rscale>
<asrwt>0</asrwt>
<pdfrwt beam="1">  1       21 0.67446748E-01 0.45199176E+03</pdfrwt>
<pdfrwt beam="2">  1       21 0.16376542E-01 0.45199176E+03</pdfrwt>
<totfact> 0.62026419E+04</totfact>
</mgrwt>
</event>
<event>
 6    0  0.1576925E-007  0.4526049E+03  0.7546771E-02  0.1026948E+00
         21   -1    0    0  502  501  0.00000000000E+00  0.00000000000E+00  0.12614134737E+03  0.12614134737E+03  0.00000000000E+00 0. -1.
         21   -1    0    0  501  502 -0.00000000000E+00 -0.00000000000E+00 -0.40599530076E+03  0.40599530076E+03  0.00000000000E+00 0. -1.
      99926    2    1    2    0    0  0.00000000000E+00  0.00000000000E+00 -0.27985395339E+03  0.53213664813E+03  0.45260487962E+03 0.  0.
         25    1    3    3    0    0 -0.29104360172E+02  0.61552375556E+02 -0.77558279878E+02  0.16216828788E+03  0.12509000000E+03 0.  0.
         25    1    3    3    0    0  0.74335632093E+02  0.27851028155E+02 -0.80024478586E+02  0.16838316793E+03  0.12509000000E+03 0.  0.
         25    1    3    3    0    0 -0.45231271922E+02 -0.89403403711E+02 -0.12227119493E+03  0.20158519232E+03  0.12509000000E+03 0.  0.
<mgrwt>
<rscale>  2 0.45260488E+03</rscale>
<asrwt>0</asrwt>
<pdfrwt beam="1">  1       21 0.18550198E-01 0.45260488E+03</pdfrwt>
<pdfrwt beam="2">  1       21 0.59705191E-01 0.45260488E+03</pdfrwt>
<totfact> 0.64272464E+04</totfact>
</mgrwt>
</event>
<event>
 6    0  0.1576925E-007  0.4503964E+03  0.7546771E-02  0.1027604E+00
         21   -1    0    0  502  501  0.00000000000E+00  0.00000000000E+00  0.67746145545E+03  0.67746145545E+03  0.00000000000E+00 0.  1.
         21   -1    0    0  501  502 -0.00000000000E+00 -0.00000000000E+00 -0.74859197435E+02  0.74859197435E+02  0.00000000000E+00 0.  1.
      99926    2    1    2    0    0  0.00000000000E+00 -0.14210854715E-13  0.60260225802E+03  0.75232065289E+03  0.45039636254E+03 0.  0.
         25    1    3    3    0    0  0.30297017361E+02  0.89958550647E+02  0.24582843789E+03  0.29170118113E+03  0.12509000000E+03 0.  0.
         25    1    3    3    0    0  0.38819313461E+02 -0.25955781706E+02  0.18541904545E+03  0.22849151454E+03  0.12509000000E+03 0.  0.
         25    1    3    3    0    0 -0.69116330821E+02 -0.64002768941E+02  0.17135477468E+03  0.23212795722E+03  0.12509000000E+03 0.  0.
<mgrwt>
<rscale>  2 0.45039636E+03</rscale>
<asrwt>0</asrwt>
<pdfrwt beam="1">  1       21 0.99626681E-01 0.45039636E+03</pdfrwt>
<pdfrwt beam="2">  1       21 0.11008706E-01 0.45039636E+03</pdfrwt>
<totfact> 0.52008936E+04</totfact>
</mgrwt>
</event>
<event>
 6    0  0.6284114E-006  0.4488291E+03  0.7546771E-02  0.1028072E+00
         21   -1    0    0  502  501  0.00000000000E+00  0.00000000000E+00  0.38643286441E+03  0.38643286441E+03  0.00000000000E+00 0. -1.
         21   -1    0    0  501  502 -0.00000000000E+00 -0.00000000000E+00 -0.13032508231E+03  0.13032508231E+03  0.00000000000E+00 0.  1.
      99926    2    1    2    0    0  0.00000000000E+00  0.00000000000E+00  0.25610778211E+03  0.51675794672E+03  0.44882912053E+03 0.  0.
         25    1    3    3    0    0  0.86697307343E+01 -0.10191628302E+03  0.55744244593E+02  0.17092987416E+03  0.12509000000E+03 0.  0.
         25    1    3    3    0    0  0.13531956457E+01  0.31757294285E+02  0.13849086737E+03  0.18930817553E+03  0.12509000000E+03 0.  0.
         25    1    3    3    0    0 -0.10022926380E+02  0.70158988734E+02  0.61872670144E+02  0.15651989702E+03  0.12509000000E+03 0.  0.
<mgrwt>
<rscale>  2 0.44882912E+03</rscale>
<asrwt>0</asrwt>
<pdfrwt beam="1">  1       21 0.56828362E-01 0.44882912E+03</pdfrwt>
<pdfrwt beam="2">  1       21 0.19165453E-01 0.44882912E+03</pdfrwt>
<totfact> 0.67345868E+04</totfact>
</mgrwt>
</event>
<event>
 6    0  0.1576925E-007  0.4553518E+03  0.7546771E-02  0.1026138E+00
         21   -1    0    0  502  501  0.00000000000E+00  0.00000000000E+00  0.25385497912E+03  0.25385497912E+03  0.00000000000E+00 0.  1.
         21   -1    0    0  501  502 -0.00000000000E+00 -0.00000000000E+00 -0.20419654963E+03  0.20419654963E+03  0.00000000000E+00 0.  1.
      99926    2    1    2    0    0  0.00000000000E+00  0.00000000000E+00  0.49658429494E+02  0.45805152874E+03  0.45535177980E+03 0.  0.
         25    1    3    3    0    0 -0.79016937655E+02 -0.28404963098E+02  0.37457068052E+02  0.15524515584E+03  0.12509000000E+03 0.  0.
         25    1    3    3    0    0  0.25348577058E+02  0.35737760156E+01  0.77970861376E+02  0.14960710397E+03  0.12509000000E+03 0.  0.
         25    1    3    3    0    0  0.53668360596E+02  0.24831187083E+02 -0.65769499934E+02  0.15319926894E+03  0.12509000000E+03 0.  0.
<mgrwt>
<rscale>  2 0.45535178E+03</rscale>
<asrwt>0</asrwt>
<pdfrwt beam="1">  1       21 0.37331615E-01 0.45535178E+03</pdfrwt>
<pdfrwt beam="2">  1       21 0.30028904E-01 0.45535178E+03</pdfrwt>
<totfact> 0.68131344E+04</totfact>
</mgrwt>
</event>
<event>
 6    0  0.1576925E-007  0.4575584E+03  0.7546771E-02  0.1025492E+00
         21   -1    0    0  502  501  0.00000000000E+00  0.00000000000E+00  0.35605272438E+03  0.35605272438E+03  0.00000000000E+00 0. -1.
         21   -1    0    0  501  502 -0.00000000000E+00 -0.00000000000E+00 -0.14700051387E+03  0.14700051387E+03  0.00000000000E+00 0. -1.
      99926    2    1    2    0    0 -0.14210854715E-13  0.00000000000E+00  0.20905221051E+03  0.50305323824E+03  0.45755844849E+03 0.  0.
         25    1    3    3    0    0  0.69263756205E+01 -0.42377068511E+02  0.15970506004E+02  0.13321544872E+03  0.12509000000E+03 0.  0.
         25    1    3    3    0    0  0.87569399390E+02  0.73764402552E+00  0.82904865272E+02  0.17375174420E+03  0.12509000000E+03 0.  0.
         25    1    3    3    0    0 -0.94495775010E+02  0.41639424485E+02  0.11017683924E+03  0.19608604532E+03  0.12509000000E+03 0.  0.
<mgrwt>
<rscale>  2 0.45755845E+03</rscale>
<asrwt>0</asrwt>
<pdfrwt beam="1">  1       21 0.52360695E-01 0.45755845E+03</pdfrwt>
<pdfrwt beam="2">  1       21 0.21617723E-01 0.45755845E+03</pdfrwt>
<totfact> 0.63752108E+04</totfact>
</mgrwt>
</event>
<event>
 6    0  0.1585600E-007  0.4535417E+03  0.7546771E-02  0.1026671E+00
         21   -1    0    0  502  501  0.00000000000E+00  0.00000000000E+00  0.35115144317E+03  0.35115144317E+03  0.00000000000E+00 0. -1.
         21   -1    0    0  501  502 -0.00000000000E+00 -0.00000000000E+00 -0.14644685742E+03  0.14644685742E+03  0.00000000000E+00 0. -1.
      99926    2    1    2    0    0 -0.17763568394E-14  0.35527136788E-14  0.20470458575E+03  0.49759830059E+03  0.45354173052E+03 0.  0.
         25    1    3    3    0    0 -0.48293225954E+02  0.10318221937E+02 -0.25293136233E+02  0.13684280112E+03  0.12509000000E+03 0.  0.
         25    1    3    3    0    0  0.12342240756E+02 -0.24957325996E+02  0.17912887136E+03  0.22024953957E+03  0.12509000000E+03 0.  0.
         25    1    3    3    0    0  0.35950985197E+02  0.14639104059E+02  0.50868850623E+02  0.14050595990E+03  0.12509000000E+03 0.  0.
<mgrwt>
<rscale>  2 0.45354173E+03</rscale>
<asrwt>0</asrwt>
<pdfrwt beam="1">  1       21 0.51639918E-01 0.45354173E+03</pdfrwt>
<pdfrwt beam="2">  1       21 0.21536303E-01 0.45354173E+03</pdfrwt>
<totfact> 0.66202773E+04</totfact>
</mgrwt>
</event>
<event>
 6    0  0.1576925E-007  0.4528535E+03  0.7546771E-02  0.1026875E+00
         21   -1    0    0  502  501  0.00000000000E+00  0.00000000000E+00  0.75690542400E+02  0.75690542400E+02  0.00000000000E+00 0.  1.
         21   -1    0    0  501  502 -0.00000000000E+00 -0.00000000000E+00 -0.67735106472E+03  0.67735106472E+03  0.00000000000E+00 0.  1.
      99926    2    1    2    0    0  0.00000000000E+00 -0.71054273576E-14 -0.60166052232E+03  0.75304160712E+03  0.45285348396E+03 0.  0.
         25    1    3    3    0    0 -0.17870622033E+02  0.56946848008E+02 -0.17492566160E+03  0.22317884715E+03  0.12509000000E+03 0.  0.
         25    1    3    3    0    0 -0.11776473213E+02 -0.86298004643E+02 -0.33840487674E+03  0.37114875674E+03  0.12509000000E+03 0.  0.
         25    1    3    3    0    0  0.29647095246E+02  0.29351156635E+02 -0.88329983987E+02  0.15871400324E+03  0.12509000000E+03 0.  0.
<mgrwt>
<rscale>  2 0.45285348E+03</rscale>
<asrwt>0</asrwt>
<pdfrwt beam="1">  1       21 0.11130963E-01 0.45285348E+03</pdfrwt>
<pdfrwt beam="2">  1       21 0.99610446E-01 0.45285348E+03</pdfrwt>
<totfact> 0.50970371E+04</totfact>
</mgrwt>
</event>
<event>
 6    0  0.1576925E-007  0.4523980E+03  0.7546771E-02  0.1027009E+00
         21   -1    0    0  502  501  0.00000000000E+00  0.00000000000E+00  0.11644315261E+03  0.11644315261E+03  0.00000000000E+00 0.  1.
         21   -1    0    0  501  502 -0.00000000000E+00 -0.00000000000E+00 -0.43940748531E+03  0.43940748531E+03  0.00000000000E+00 0.  1.
      99926    2    1    2    0    0  0.00000000000E+00  0.00000000000E+00 -0.32296433270E+03  0.55585063792E+03  0.45239802329E+03 0.  0.
         25    1    3    3    0    0 -0.76858138484E+02  0.49771389168E+02 -0.96818648985E+02  0.18277232701E+03  0.12509000000E+03 0.  0.
         25    1    3    3    0    0  0.79954941464E+02 -0.43938032342E+02 -0.62431145007E+02  0.16693860943E+03  0.12509000000E+03 0.  0.
         25    1    3    3    0    0 -0.30968029793E+01 -0.58333568263E+01 -0.16371453871E+03  0.20613970148E+03  0.12509000000E+03 0.  0.
<mgrwt>
<rscale>  2 0.45239802E+03</rscale>
<asrwt>0</asrwt>
<pdfrwt beam="1">  1       21 0.17123993E-01 0.45239802E+03</pdfrwt>
<pdfrwt beam="2">  1       21 0.64618748E-01 0.45239802E+03</pdfrwt>
<totfact> 0.62763490E+04</totfact>
</mgrwt>
</event>
<event>
 6    0  0.1576925E-007  0.4690986E+03  0.7546771E-02  0.1022175E+00
         21   -1    0    0  502  501  0.00000000000E+00  0.00000000000E+00  0.10699006407E+04  0.10699006407E+04  0.00000000000E+00 0. -1.
         21   -1    0    0  501  502 -0.00000000000E+00 -0.00000000000E+00 -0.51419132528E+02  0.51419132528E+02  0.00000000000E+00 0. -1.
      99926    2    1    2    0    0  0.00000000000E+00  0.00000000000E+00  0.10184815081E+04  0.11213197732E+04  0.46909855184E+03 0.  0.
         25    1    3    3    0    0 -0.11389455521E+03  0.57056542643E+02  0.37099777213E+03  0.41172111166E+03  0.12509000000E+03 0.  0.
         25    1    3    3    0    0  0.85314318571E+02 -0.35487678987E+02  0.41498579163E+03  0.44316884330E+03  0.12509000000E+03 0.  0.
         25    1    3    3    0    0  0.28580236635E+02 -0.21568863657E+02  0.23249794439E+03  0.26642981825E+03  0.12509000000E+03 0.  0.
<mgrwt>
<rscale>  2 0.46909855E+03</rscale>
<asrwt>0</asrwt>
<pdfrwt beam="1">  1       21 0.15733832E+00 0.46909855E+03</pdfrwt>
<pdfrwt beam="2">  1       21 0.75616378E-02 0.46909855E+03</pdfrwt>
<totfact> 0.31183381E+04</totfact>
</mgrwt>
</event>
<event>
 6    0  0.1576925E-007  0.4585469E+03  0.7546771E-02  0.1025204E+00
         21   -1    0    0  502  501  0.00000000000E+00  0.00000000000E+00  0.39364627014E+02  0.39364627014E+02  0.00000000000E+00 0.  1.
         21   -1    0    0  501  502 -0.00000000000E+00 -0.00000000000E+00 -0.13353692559E+04  0.13353692559E+04  0.00000000000E+00 0.  1.
      99926    2    1    2    0    0  0.71054273576E-14  0.17763568394E-14 -0.12960046289E+04  0.13747338829E+04  0.45854689045E+03 0.  0.
         25    1    3    3    0    0  0.69121143045E+01  0.21452902173E+02 -0.14347257871E+03  0.19167653293E+03  0.12509000000E+03 0.  0.
         25    1    3    3    0    0  0.32667115150E+02  0.66464575576E+01 -0.47243749442E+03  0.48985304943E+03  0.12509000000E+03 0.  0.
         25    1    3    3    0    0 -0.39579229454E+02 -0.28099359730E+02 -0.68009455578E+03  0.69320430057E+03  0.12509000000E+03 0.  0.
<mgrwt>
<rscale>  2 0.45854689E+03</rscale>
<asrwt>0</asrwt>
<pdfrwt beam="1">  1       21 0.57889165E-02 0.45854689E+03</pdfrwt>
<pdfrwt beam="2">  1       21 0.19637781E+00 0.45854689E+03</pdfrwt>
<totfact> 0.26281168E+04</totfact>
</mgrwt>
</event>
<event>
 6    0  0.1576925E-007  0.4520664E+03  0.7546771E-02  0.1027108E+00
         21   -1    0    0  502  501  0.00000000000E+00  0.00000000000E+00  0.40341974002E+03  0.40341974002E+03  0.00000000000E+00 0. -1.
         21   -1    0    0  501  502 -0.00000000000E+00 -0.00000000000E+00 -0.12664477254E+03  0.12664477254E+03  0.00000000000E+00 0. -1.
      99926    2    1    2    0    0  0.00000000000E+00  0.00000000000E+00  0.27677496748E+03  0.53006451256E+03  0.45206637218E+03 0.  0.
         25    1    3    3    0    0 -0.14083770934E+02  0.22180748454E+01  0.17645203117E+03  0.21676277324E+03  0.12509000000E+03 0.  0.
         25    1    3    3    0    0  0.69640354972E+02  0.19205955191E+02  0.98340904279E+02  0.17474864609E+03  0.12509000000E+03 0.  0.
         25    1    3    3    0    0 -0.55556584038E+02 -0.21424030036E+02  0.19820320281E+01  0.13855309323E+03  0.12509000000E+03 0.  0.
<mgrwt>
<rscale>  2 0.45206637E+03</rscale>
<asrwt>0</asrwt>
<pdfrwt beam="1">  1       21 0.59326432E-01 0.45206637E+03</pdfrwt>
<pdfrwt beam="2">  1       21 0.18624231E-01 0.45206637E+03</pdfrwt>
<totfact> 0.64692668E+04</totfact>
</mgrwt>
</event>
<event>
 6    0  0.1576925E-007  0.4529248E+03  0.7546771E-02  0.1026853E+00
         21   -1    0    0  502  501  0.00000000000E+00  0.00000000000E+00  0.38534271084E+03  0.38534271084E+03  0.00000000000E+00 0. -1.
         21   -1    0    0  501  502 -0.00000000000E+00 -0.00000000000E+00 -0.13308989372E+03  0.13308989372E+03  0.00000000000E+00 0. -1.
      99926    2    1    2    0    0  0.71054273576E-14 -0.71054273576E-14  0.25225281712E+03  0.51843260456E+03  0.45292480803E+03 0.  0.
         25    1    3    3    0    0  0.34891324000E+02 -0.78216706998E+02  0.17807046867E+02  0.15264290603E+03  0.12509000000E+03 0.  0.
         25    1    3    3    0    0  0.17874765107E+02  0.60381430298E+02  0.14850609133E+03  0.20412494118E+03  0.12509000000E+03 0.  0.
         25    1    3    3    0    0 -0.52766089107E+02  0.17835276699E+02  0.85939678922E+02  0.16166475735E+03  0.12509000000E+03 0.  0.
<mgrwt>
<rscale>  2 0.45292481E+03</rscale>
<asrwt>0</asrwt>
<pdfrwt beam="1">  1       21 0.56668045E-01 0.45292481E+03</pdfrwt>
<pdfrwt beam="2">  1       21 0.19572043E-01 0.45292481E+03</pdfrwt>
<totfact> 0.65058749E+04</totfact>
</mgrwt>
</event>
<event>
 6    0  0.1576925E-007  0.4762414E+03  0.7546771E-02  0.1020173E+00
         21   -1    0    0  502  501  0.00000000000E+00  0.00000000000E+00  0.31365512116E+03  0.31365512116E+03  0.00000000000E+00 0.  1.
         21   -1    0    0  501  502 -0.00000000000E+00 -0.00000000000E+00 -0.18077646676E+03  0.18077646676E+03  0.00000000000E+00 0.  1.
      99926    2    1    2    0    0  0.00000000000E+00 -0.71054273576E-14  0.13287865440E+03  0.49443158793E+03  0.47624138664E+03 0.  0.
         25    1    3    3    0    0  0.44400502813E+02  0.42437386030E+02  0.44285831438E+02  0.14622270463E+03  0.12509000000E+03 0.  0.
         25    1    3    3    0    0 -0.18047856118E+02 -0.72521172692E+02  0.14473901824E+03  0.20538241673E+03  0.12509000000E+03 0.  0.
         25    1    3    3    0    0 -0.26352646695E+02  0.30083786662E+02 -0.56146195281E+02  0.14282646657E+03  0.12509000000E+03 0.  0.
<mgrwt>
<rscale>  2 0.47624139E+03</rscale>
<asrwt>0</asrwt>
<pdfrwt beam="1">  1       21 0.46125753E-01 0.47624139E+03</pdfrwt>
<pdfrwt beam="2">  1       21 0.26584774E-01 0.47624139E+03</pdfrwt>
<totfact> 0.55668732E+04</totfact>
</mgrwt>
</event>
<event>
 6    0  0.1576925E-007  0.4686218E+03  0.7546771E-02  0.1022310E+00
         21   -1    0    0  502  501  0.00000000000E+00  0.00000000000E+00  0.88232451273E+02  0.88232451273E+02  0.00000000000E+00 0. -1.
         21   -1    0    0  501  502 -0.00000000000E+00 -0.00000000000E+00 -0.62223827023E+03  0.62223827023E+03  0.00000000000E+00 0. -1.
      99926    2    1    2    0    0  0.00000000000E+00  0.00000000000E+00 -0.53400581896E+03  0.71047072150E+03  0.46862184268E+03 0.  0.
         25    1    3    3    0    0  0.88602022066E+02  0.30111347540E+02 -0.10368746990E+03  0.18749829620E+03  0.12509000000E+03 0.  0.
         25    1    3    3    0    0 -0.79323588732E+02  0.16764710653E+01 -0.32118098863E+03  0.35369446962E+03  0.12509000000E+03 0.  0.
         25    1    3    3    0    0 -0.92784333346E+01 -0.31787818606E+02 -0.10913736043E+03  0.16927795568E+03  0.12509000000E+03 0.  0.
<mgrwt>
<rscale>  2 0.46862184E+03</rscale>
<asrwt>0</asrwt>
<pdfrwt beam="1">  1       21 0.12975360E-01 0.46862184E+03</pdfrwt>
<pdfrwt beam="2">  1       21 0.91505630E-01 0.46862184E+03</pdfrwt>
<totfact> 0.47084884E+04</totfact>
</mgrwt>
</event>
<event>
 6    0  0.1576925E-007  0.4613300E+03  0.7546771E-02  0.1024396E+00
         21   -1    0    0  502  501  0.00000000000E+00  0.00000000000E+00  0.20198920245E+03  0.20198920245E+03  0.00000000000E+00 0. -1.
         21   -1    0    0  501  502 -0.00000000000E+00 -0.00000000000E+00 -0.26341185533E+03  0.26341185533E+03  0.00000000000E+00 0. -1.
      99926    2    1    2    0    0  0.00000000000E+00  0.00000000000E+00 -0.61422652881E+02  0.46540105778E+03  0.46133003620E+03 0.  0.
         25    1    3    3    0    0 -0.87023941060E+02  0.18641170364E+01 -0.99113999413E+02  0.18179035791E+03  0.12509000000E+03 0.  0.
         25    1    3    3    0    0  0.57029807981E+02  0.43789103614E+02  0.12649026758E+02  0.14483573651E+03  0.12509000000E+03 0.  0.
         25    1    3    3    0    0  0.29994133079E+02 -0.45653220650E+02  0.25042319774E+02  0.13877496336E+03  0.12509000000E+03 0.  0.
<mgrwt>
<rscale>  2 0.46133004E+03</rscale>
<asrwt>0</asrwt>
<pdfrwt beam="1">  1       21 0.29704295E-01 0.46133004E+03</pdfrwt>
<pdfrwt beam="2">  1       21 0.38737037E-01 0.46133004E+03</pdfrwt>
<totfact> 0.64472123E+04</totfact>
</mgrwt>
</event>
<event>
 6    0  0.1576925E-007  0.4513221E+03  0.7546771E-02  0.1027329E+00
         21   -1    0    0  502  501  0.00000000000E+00  0.00000000000E+00  0.87432702442E+03  0.87432702442E+03  0.00000000000E+00 0. -1.
         21   -1    0    0  501  502 -0.00000000000E+00 -0.00000000000E+00 -0.58242393689E+02  0.58242393689E+02  0.00000000000E+00 0. -1.
      99926    2    1    2    0    0 -0.35527136788E-14 -0.71054273576E-14  0.81608463073E+03  0.93256941811E+03  0.45132205251E+03 0.  0.
         25    1    3    3    0    0  0.54630937304E+02  0.89568806395E+02  0.36899822883E+03  0.40350255436E+03  0.12509000000E+03 0.  0.
         25    1    3    3    0    0 -0.24258800646E+02 -0.23550427909E+02  0.27678104391E+03  0.30561146319E+03  0.12509000000E+03 0.  0.
         25    1    3    3    0    0 -0.30372136658E+02 -0.66018378486E+02  0.17030535799E+03  0.22345540057E+03  0.12509000000E+03 0.  0.
<mgrwt>
<rscale>  2 0.45132205E+03</rscale>
<asrwt>0</asrwt>
<pdfrwt beam="1">  1       21 0.12857750E+00 0.45132205E+03</pdfrwt>
<pdfrwt beam="2">  1       21 0.85650585E-02 0.45132205E+03</pdfrwt>
<totfact> 0.43080793E+04</totfact>
</mgrwt>
</event>
<event>
 6    0  0.1576925E-007  0.4506593E+03  0.7546771E-02  0.1027526E+00
         21   -1    0    0  502  501  0.00000000000E+00  0.00000000000E+00  0.18552659216E+02  0.18552659216E+02  0.00000000000E+00 0.  1.
         21   -1    0    0  501  502 -0.00000000000E+00 -0.00000000000E+00 -0.27367209896E+04  0.27367209896E+04  0.00000000000E+00 0.  1.
      99926    2    1    2    0    0 -0.71054273576E-14  0.17763568394E-14 -0.27181683303E+04  0.27552736488E+04  0.45065930319E+03 0.  0.
         25    1    3    3    0    0  0.75754600051E+01 -0.20250923556E+02 -0.48234949993E+03  0.49877453392E+03  0.12509000000E+03 0.  0.
         25    1    3    3    0    0 -0.70273060643E+02  0.32181561848E+02 -0.76589728402E+03  0.77988467978E+03  0.12509000000E+03 0.  0.
         25    1    3    3    0    0  0.62697600638E+02 -0.11930638292E+02 -0.14699215464E+04  0.14766144351E+04  0.12509000000E+03 0.  0.
<mgrwt>
<rscale>  2 0.45065930E+03</rscale>
<asrwt>0</asrwt>
<pdfrwt beam="1">  1       21 0.27283315E-02 0.45065930E+03</pdfrwt>
<pdfrwt beam="2">  1       21 0.40245907E+00 0.45065930E+03</pdfrwt>
<totfact> 0.50242988E+03</totfact>
</mgrwt>
</event>
<event>
 6    0  0.1576925E-007  0.4508260E+03  0.7546771E-02  0.1027476E+00
         21   -1    0    0  502  501  0.00000000000E+00  0.00000000000E+00  0.10136922064E+03  0.10136922064E+03  0.00000000000E+00 0.  1.
         21   -1    0    0  501  502 -0.00000000000E+00 -0.00000000000E+00 -0.50124705820E+03  0.50124705820E+03  0.00000000000E+00 0.  1.
      99926    2    1    2    0    0  0.00000000000E+00  0.00000000000E+00 -0.39987783755E+03  0.60261627884E+03  0.45082601362E+03 0.  0.
         25    1    3    3    0    0 -0.51541267660E+02 -0.33183258203E+02 -0.12387427426E+03  0.18641345128E+03  0.12509000000E+03 0.  0.
         25    1    3    3    0    0  0.66591511334E+01 -0.11577981269E+02 -0.24381690877E+02  0.12814198724E+03  0.12509000000E+03 0.  0.
         25    1    3    3    0    0  0.44882116526E+02  0.44761239472E+02 -0.25162187242E+03  0.28806084032E+03  0.12509000000E+03 0.  0.
<mgrwt>
<rscale>  2 0.45082601E+03</rscale>
<asrwt>0</asrwt>
<pdfrwt beam="1">  1       21 0.14907238E-01 0.45082601E+03</pdfrwt>
<pdfrwt beam="2">  1       21 0.73712804E-01 0.45082601E+03</pdfrwt>
<totfact> 0.60487648E+04</totfact>
</mgrwt>
</event>
<event>
 6    0  0.1576925E-007  0.4491429E+03  0.7546771E-02  0.1027978E+00
         21   -1    0    0  502  501  0.00000000000E+00  0.00000000000E+00  0.19957162748E+03  0.19957162748E+03  0.00000000000E+00 0. -1.
         21   -1    0    0  501  502 -0.00000000000E+00 -0.00000000000E+00 -0.25270292473E+03  0.25270292473E+03  0.00000000000E+00 0. -1.
      99926    2    1    2    0    0  0.26090241079E-14  0.00000000000E+00 -0.53131297251E+02  0.45227455221E+03  0.44914289021E+03 0.  0.
         25    1    3    3    0    0  0.40956941497E+00 -0.71422833139E+02 -0.26781789761E+02  0.14651334821E+03  0.12509000000E+03 0.  0.
         25    1    3    3    0    0  0.60847537841E+02  0.69391590567E+02 -0.52404780293E+02  0.16404689817E+03  0.12509000000E+03 0.  0.
         25    1    3    3    0    0 -0.61257107256E+02  0.20312425721E+01  0.26055272803E+02  0.14171430583E+03  0.12509000000E+03 0.  0.
<mgrwt>
<rscale>  2 0.44914289E+03</rscale>
<asrwt>0</asrwt>
<pdfrwt beam="1">  1       21 0.29348769E-01 0.44914289E+03</pdfrwt>
<pdfrwt beam="2">  1       21 0.37162195E-01 0.44914289E+03</pdfrwt>
<totfact> 0.72054534E+04</totfact>
</mgrwt>
</event>
<event>
 6    0  0.1576925E-007  0.4552726E+03  0.7546771E-02  0.1026161E+00
         21   -1    0    0  502  501  0.00000000000E+00  0.00000000000E+00  0.14540763217E+03  0.14540763217E+03  0.00000000000E+00 0. -1.
         21   -1    0    0  501  502 -0.00000000000E+00 -0.00000000000E+00 -0.35636563313E+03  0.35636563313E+03  0.00000000000E+00 0. -1.
      99926    2    1    2    0    0  0.88817841970E-15 -0.35527136788E-14 -0.21095800096E+03  0.50177326531E+03  0.45527259044E+03 0.  0.
         25    1    3    3    0    0  0.20996727654E+02  0.54834471723E+02  0.71574613768E+01  0.13837058652E+03  0.12509000000E+03 0.  0.
         25    1    3    3    0    0 -0.28804365856E+02 -0.33756980428E+02 -0.19238974635E+03  0.23373178607E+03  0.12509000000E+03 0.  0.
         25    1    3    3    0    0  0.78076382017E+01 -0.21077491295E+02 -0.25725715988E+02  0.12967089271E+03  0.12509000000E+03 0.  0.
<mgrwt>
<rscale>  2 0.45527259E+03</rscale>
<asrwt>0</asrwt>
<pdfrwt beam="1">  1       21 0.21383475E-01 0.45527259E+03</pdfrwt>
<pdfrwt beam="2">  1       21 0.52406710E-01 0.45527259E+03</pdfrwt>
<totfact> 0.65005493E+04</totfact>
</mgrwt>
</event>
<event>
 6    0  0.1576925E-007  0.4553092E+03  0.7546771E-02  0.1026151E+00
         21   -1    0    0  502  501  0.00000000000E+00  0.00000000000E+00  0.61621495593E+02  0.61621495593E+02  0.00000000000E+00 0.  1.
         21   -1    0    0  501  502 -0.00000000000E+00 -0.00000000000E+00 -0.84104755202E+03  0.84104755202E+03  0.00000000000E+00 0.  1.
      99926    2    1    2    0    0 -0.44408920985E-14  0.00000000000E+00 -0.77942605642E+03  0.90266904761E+03  0.45530916099E+03 0.  0.
         25    1    3    3    0    0 -0.37326204460E+02  0.19087856367E+02 -0.32416519587E+03  0.34998310547E+03  0.12509000000E+03 0.  0.
         25    1    3    3    0    0  0.43889198085E+02 -0.96661525853E+02 -0.27056544188E+03  0.31642199470E+03  0.12509000000E+03 0.  0.
         25    1    3    3    0    0 -0.65629936247E+01  0.77573669485E+02 -0.18469541867E+03  0.23626394744E+03  0.12509000000E+03 0.  0.
<mgrwt>
<rscale>  2 0.45530916E+03</rscale>
<asrwt>0</asrwt>
<pdfrwt beam="1">  1       21 0.90619849E-02 0.45530916E+03</pdfrwt>
<pdfrwt beam="2">  1       21 0.12368346E+00 0.45530916E+03</pdfrwt>
<totfact> 0.43014287E+04</totfact>
</mgrwt>
</event>
<event>
 6    0  0.1576925E-007  0.4530069E+03  0.7546771E-02  0.1026829E+00
         21   -1    0    0  502  501  0.00000000000E+00  0.00000000000E+00  0.19846783013E+03  0.19846783013E+03  0.00000000000E+00 0. -1.
         21   -1    0    0  501  502 -0.00000000000E+00 -0.00000000000E+00 -0.25849944477E+03  0.25849944477E+03  0.00000000000E+00 0. -1.
      99926    2    1    2    0    0  0.71054273576E-14  0.71054273576E-14 -0.60031614646E+02  0.45696727490E+03  0.45300694870E+03 0.  0.
         25    1    3    3    0    0 -0.76823272685E+02 -0.12700664151E+02 -0.85932415776E+02  0.17057259533E+03  0.12509000000E+03 0.  0.
         25    1    3    3    0    0  0.44068914955E+02 -0.35897432767E+02  0.49916887030E+02  0.14618446790E+03  0.12509000000E+03 0.  0.
         25    1    3    3    0    0  0.32754357729E+02  0.48598096918E+02 -0.24016085900E+02  0.14021021167E+03  0.12509000000E+03 0.  0.
<mgrwt>
<rscale>  2 0.45300695E+03</rscale>
<asrwt>0</asrwt>
<pdfrwt beam="1">  1       21 0.29186446E-01 0.45300695E+03</pdfrwt>
<pdfrwt beam="2">  1       21 0.38014624E-01 0.45300695E+03</pdfrwt>
<totfact> 0.69500246E+04</totfact>
</mgrwt>
</event>
<event>
 6    0  0.1576925E-007  0.4899074E+03  0.7546771E-02  0.1016447E+00
         21   -1    0    0  502  501  0.00000000000E+00  0.00000000000E+00  0.43047897528E+03  0.43047897528E+03  0.00000000000E+00 0. -1.
         21   -1    0    0  501  502 -0.00000000000E+00 -0.00000000000E+00 -0.13938497982E+03  0.13938497982E+03  0.00000000000E+00 0. -1.
      99926    2    1    2    0    0  0.00000000000E+00 -0.71054273576E-14  0.29109399546E+03  0.56986395510E+03  0.48990735158E+03 0.  0.
         25    1    3    3    0    0 -0.15876016653E+02 -0.86870426793E+02  0.18888048625E+02  0.15428151359E+03  0.12509000000E+03 0.  0.
         25    1    3    3    0    0  0.91752054629E+02  0.50188526971E+02  0.14772976182E+03  0.22002026815E+03  0.12509000000E+03 0.  0.
         25    1    3    3    0    0 -0.75876037977E+02  0.36681899822E+02  0.12447618501E+03  0.19556217336E+03  0.12509000000E+03 0.  0.
<mgrwt>
<rscale>  2 0.48990735E+03</rscale>
<asrwt>0</asrwt>
<pdfrwt beam="1">  1       21 0.63305731E-01 0.48990735E+03</pdfrwt>
<pdfrwt beam="2">  1       21 0.20497791E-01 0.48990735E+03</pdfrwt>
<totfact> 0.46372422E+04</totfact>
</mgrwt>
</event>
<event>
 6    0  0.1576925E-007  0.4539415E+03  0.7546771E-02  0.1026553E+00
         21   -1    0    0  502  501  0.00000000000E+00  0.00000000000E+00  0.15102011352E+03  0.15102011352E+03  0.00000000000E+00 0.  1.
         21   -1    0    0  501  502 -0.00000000000E+00 -0.00000000000E+00 -0.34111827373E+03  0.34111827373E+03  0.00000000000E+00 0.  1.
      99926    2    1    2    0    0  0.26645352591E-14  0.00000000000E+00 -0.19009816021E+03  0.49213838726E+03  0.45394149590E+03 0.  0.
         25    1    3    3    0    0  0.56886496294E+01  0.46603056221E+02  0.73499727782E+01  0.13381231552E+03  0.12509000000E+03 0.  0.
         25    1    3    3    0    0  0.51512764401E+02  0.15397217894E+02 -0.14421788474E+03  0.19833543706E+03  0.12509000000E+03 0.  0.
         25    1    3    3    0    0 -0.57201414030E+02 -0.62000274115E+02 -0.53230248246E+02  0.15999063468E+03  0.12509000000E+03 0.  0.
<mgrwt>
<rscale>  2 0.45394150E+03</rscale>
<asrwt>0</asrwt>
<pdfrwt beam="1">  1       21 0.22208841E-01 0.45394150E+03</pdfrwt>
<pdfrwt beam="2">  1       21 0.50164451E-01 0.45394150E+03</pdfrwt>
<totfact> 0.66382632E+04</totfact>
</mgrwt>
</event>
<event>
 6    0  0.1576925E-007  0.4570887E+03  0.7546771E-02  0.1025629E+00
         21   -1    0    0  502  501  0.00000000000E+00  0.00000000000E+00  0.17469417304E+03  0.17469417304E+03  0.00000000000E+00 0.  1.
         21   -1    0    0  501  502 -0.00000000000E+00 -0.00000000000E+00 -0.29899403967E+03  0.29899403967E+03  0.00000000000E+00 0.  1.
      99926    2    1    2    0    0  0.00000000000E+00  0.00000000000E+00 -0.12429986663E+03  0.47368821271E+03  0.45708868506E+03 0.  0.
         25    1    3    3    0    0 -0.37389124137E+02 -0.41471952831E+02 -0.12350205287E+03  0.18444005703E+03  0.12509000000E+03 0.  0.
         25    1    3    3    0    0 -0.79011441772E+01  0.82362549149E+02  0.31865934664E+01  0.15001226636E+03  0.12509000000E+03 0.  0.
         25    1    3    3    0    0  0.45290268314E+02 -0.40890596318E+02 -0.39844072235E+01  0.13923588931E+03  0.12509000000E+03 0.  0.
<mgrwt>
<rscale>  2 0.45708869E+03</rscale>
<asrwt>0</asrwt>
<pdfrwt beam="1">  1       21 0.25690320E-01 0.45708869E+03</pdfrwt>
<pdfrwt beam="2">  1       21 0.43969711E-01 0.45708869E+03</pdfrwt>
<totfact> 0.66060918E+04</totfact>
</mgrwt>
</event>
<event>
 6    0  0.1576925E-007  0.4430742E+03  0.7546771E-02  0.1029808E+00
         21   -1    0    0  502  501  0.00000000000E+00  0.00000000000E+00  0.22855572832E+03  0.22855572832E+03  0.00000000000E+00 0.  1.
         21   -1    0    0  501  502 -0.00000000000E+00 -0.00000000000E+00 -0.21473400329E+03  0.21473400329E+03  0.00000000000E+00 0.  1.
      99926    2    1    2    0    0  0.00000000000E+00  0.00000000000E+00  0.13821725028E+02  0.44328973161E+03  0.44307419928E+03 0.  0.
         25    1    3    3    0    0  0.44276080350E+02 -0.50695737897E+02  0.20590363379E+02  0.14353362079E+03  0.12509000000E+03 0.  0.
         25    1    3    3    0    0  0.30083513865E+02  0.37674689115E+02 -0.56416923688E+02  0.14544681978E+03  0.12509000000E+03 0.  0.
         25    1    3    3    0    0 -0.74359594215E+02  0.13021048782E+02  0.49648285337E+02  0.15430929104E+03  0.12509000000E+03 0.  0.
<mgrwt>
<rscale>  2 0.44307420E+03</rscale>
<asrwt>0</asrwt>
<pdfrwt beam="1">  1       21 0.33611137E-01 0.44307420E+03</pdfrwt>
<pdfrwt beam="2">  1       21 0.31578530E-01 0.44307420E+03</pdfrwt>
<totfact> 0.76430240E+04</totfact>
</mgrwt>
</event>
<event>
 6    0  0.1576925E-007  0.4550715E+03  0.7546771E-02  0.1026220E+00
         21   -1    0    0  502  501  0.00000000000E+00  0.00000000000E+00  0.50769764864E+03  0.50769764864E+03  0.00000000000E+00 0.  1.
         21   -1    0    0  501  502 -0.00000000000E+00 -0.00000000000E+00 -0.10197512004E+03  0.10197512004E+03  0.00000000000E+00 0.  1.
      99926    2    1    2    0    0  0.71054273576E-14  0.00000000000E+00  0.40572252860E+03  0.60967276868E+03  0.45507154894E+03 0.  0.
         25    1    3    3    0    0  0.41591659076E+02  0.64536413302E+02  0.85545012633E+02  0.16988311285E+03  0.12509000000E+03 0.  0.
         25    1    3    3    0    0 -0.90603962394E+02 -0.48001995798E+02  0.21114769128E+03  0.26597767807E+03  0.12509000000E+03 0.  0.
         25    1    3    3    0    0  0.49012303318E+02 -0.16534417504E+02  0.10902982469E+03  0.17381197775E+03  0.12509000000E+03 0.  0.
<mgrwt>
<rscale>  2 0.45507155E+03</rscale>
<asrwt>0</asrwt>
<pdfrwt beam="1">  1       21 0.74661418E-01 0.45507155E+03</pdfrwt>
<pdfrwt beam="2">  1       21 0.14996341E-01 0.45507155E+03</pdfrwt>
<totfact> 0.58053984E+04</totfact>
</mgrwt>
</event>
<event>
 6    0  0.1576925E-007  0.4528618E+03  0.7546771E-02  0.1026872E+00
         21   -1    0    0  502  501  0.00000000000E+00  0.00000000000E+00  0.47318067737E+03  0.47318067737E+03  0.00000000000E+00 0.  1.
         21   -1    0    0  501  502 -0.00000000000E+00 -0.00000000000E+00 -0.10835386847E+03  0.10835386847E+03  0.00000000000E+00 0.  1.
      99926    2    1    2    0    0 -0.88817841970E-15  0.00000000000E+00  0.36482680891E+03  0.58153454584E+03  0.45286181944E+03 0.  0.
         25    1    3    3    0    0 -0.91442874772E+02 -0.25393565568E+02  0.65295037029E+02  0.17005170531E+03  0.12509000000E+03 0.  0.
         25    1    3    3    0    0  0.51730674979E+01  0.92227166392E+01  0.10205251217E+03  0.16178393761E+03  0.12509000000E+03 0.  0.
         25    1    3    3    0    0  0.86269807274E+02  0.16170848929E+02  0.19747925971E+03  0.24969890291E+03  0.12509000000E+03 0.  0.
<mgrwt>
<rscale>  2 0.45286182E+03</rscale>
<asrwt>0</asrwt>
<pdfrwt beam="1">  1       21 0.69585393E-01 0.45286182E+03</pdfrwt>
<pdfrwt beam="2">  1       21 0.15934393E-01 0.45286182E+03</pdfrwt>
<totfact> 0.60851576E+04</totfact>
</mgrwt>
</event>
<event>
 6    0  0.1576925E-007  0.4590608E+03  0.7546771E-02  0.1025054E+00
         21   -1    0    0  502  501  0.00000000000E+00  0.00000000000E+00  0.18875667261E+03  0.18875667261E+03  0.00000000000E+00 0.  1.
         21   -1    0    0  501  502 -0.00000000000E+00 -0.00000000000E+00 -0.27911179321E+03  0.27911179321E+03  0.00000000000E+00 0.  1.
      99926    2    1    2    0    0  0.88817841970E-15  0.00000000000E+00 -0.90355120602E+02  0.46786846582E+03  0.45906083855E+03 0.  0.
         25    1    3    3    0    0 -0.20823714164E+02 -0.64276686708E+02  0.73960500843E+02  0.16025848904E+03  0.12509000000E+03 0.  0.
         25    1    3    3    0    0  0.56325977121E+01  0.27211026815E+02 -0.91233952856E+02  0.15730005846E+03  0.12509000000E+03 0.  0.
         25    1    3    3    0    0  0.15191116452E+02  0.37065659893E+02 -0.73081668589E+02  0.15030991832E+03  0.12509000000E+03 0.  0.
<mgrwt>
<rscale>  2 0.45906084E+03</rscale>
<asrwt>0</asrwt>
<pdfrwt beam="1">  1       21 0.27758334E-01 0.45906084E+03</pdfrwt>
<pdfrwt beam="2">  1       21 0.41045852E-01 0.45906084E+03</pdfrwt>
<totfact> 0.65459109E+04</totfact>
</mgrwt>
</event>
<event>
 6    0  0.1576925E-007  0.4902364E+03  0.7546771E-02  0.1016359E+00
         21   -1    0    0  502  501  0.00000000000E+00  0.00000000000E+00  0.28319035660E+03  0.28319035660E+03  0.00000000000E+00 0. -1.
         21   -1    0    0  501  502 -0.00000000000E+00 -0.00000000000E+00 -0.21216445013E+03  0.21216445013E+03  0.00000000000E+00 0. -1.
      99926    2    1    2    0    0  0.00000000000E+00  0.00000000000E+00  0.71025906464E+02  0.49535480673E+03  0.49023637683E+03 0.  0.
         25    1    3    3    0    0 -0.10207066508E+03 -0.75610256298E+00  0.57001222238E+02  0.17121810593E+03  0.12509000000E+03 0.  0.
         25    1    3    3    0    0  0.71706353494E+02 -0.65924316417E+02 -0.49173250087E+02  0.16599196743E+03  0.12509000000E+03 0.  0.
         25    1    3    3    0    0  0.30364311587E+02  0.66680418980E+02  0.63197934313E+02  0.15814473338E+03  0.12509000000E+03 0.  0.
<mgrwt>
<rscale>  2 0.49023638E+03</rscale>
<asrwt>0</asrwt>
<pdfrwt beam="1">  1       21 0.41645641E-01 0.49023638E+03</pdfrwt>
<pdfrwt beam="2">  1       21 0.31200654E-01 0.49023638E+03</pdfrwt>
<totfact> 0.50054499E+04</totfact>
</mgrwt>
</event>
<event>
 6    0  0.1576925E-007  0.4566719E+03  0.7546771E-02  0.1025751E+00
         21   -1    0    0  502  501  0.00000000000E+00  0.00000000000E+00  0.34167297660E+02  0.34167297660E+02  0.00000000000E+00 0.  1.
         21   -1    0    0  501  502 -0.00000000000E+00 -0.00000000000E+00 -0.15259415769E+04  0.15259415769E+04  0.00000000000E+00 0.  1.
      99926    2    1    2    0    0  0.00000000000E+00  0.35527136788E-14 -0.14917742792E+04  0.15601088745E+04  0.45667187375E+03 0.  0.
         25    1    3    3    0    0  0.90080020452E+01  0.24544549821E+02 -0.24278600968E+03  0.27436496428E+03  0.12509000000E+03 0.  0.
         25    1    3    3    0    0 -0.11402271779E+02 -0.97637958635E+02 -0.59564470471E+03  0.61652518612E+03  0.12509000000E+03 0.  0.
         25    1    3    3    0    0  0.23942697337E+01  0.73093408814E+02 -0.65334356480E+03  0.66921872412E+03  0.12509000000E+03 0.  0.
<mgrwt>
<rscale>  2 0.45667187E+03</rscale>
<asrwt>0</asrwt>
<pdfrwt beam="1">  1       21 0.50246031E-02 0.45667187E+03</pdfrwt>
<pdfrwt beam="2">  1       21 0.22440315E+00 0.45667187E+03</pdfrwt>
<totfact> 0.22055916E+04</totfact>
</mgrwt>
</event>
<event>
 6    0  0.1576925E-007  0.4574412E+03  0.7546771E-02  0.1025526E+00
         21   -1    0    0  502  501  0.00000000000E+00  0.00000000000E+00  0.47360694923E+03  0.47360694923E+03  0.00000000000E+00 0. -1.
         21   -1    0    0  501  502 -0.00000000000E+00 -0.00000000000E+00 -0.11045680626E+03  0.11045680626E+03  0.00000000000E+00 0. -1.
      99926    2    1    2    0    0  0.00000000000E+00  0.71054273576E-14  0.36315014297E+03  0.58406375550E+03  0.45744119201E+03 0.  0.
         25    1    3    3    0    0 -0.55655587263E+02 -0.64175496997E+02  0.13727127797E+03  0.20422279663E+03  0.12509000000E+03 0.  0.
         25    1    3    3    0    0  0.82069096120E+01  0.10695665704E+03  0.11630964692E+03  0.20169908755E+03  0.12509000000E+03 0.  0.
         25    1    3    3    0    0  0.47448677651E+02 -0.42781160048E+02  0.10956921808E+03  0.17814187132E+03  0.12509000000E+03 0.  0.
<mgrwt>
<rscale>  2 0.45744119E+03</rscale>
<asrwt>0</asrwt>
<pdfrwt beam="1">  1       21 0.69648080E-01 0.45744119E+03</pdfrwt>
<pdfrwt beam="2">  1       21 0.16243648E-01 0.45744119E+03</pdfrwt>
<totfact> 0.58532340E+04</totfact>
</mgrwt>
</event>
<event>
 6    0  0.1576925E-007  0.4531159E+03  0.7546771E-02  0.1026797E+00
         21   -1    0    0  502  501  0.00000000000E+00  0.00000000000E+00  0.30387460196E+03  0.30387460196E+03  0.00000000000E+00 0. -1.
         21   -1    0    0  501  502 -0.00000000000E+00 -0.00000000000E+00 -0.16891346814E+03  0.16891346814E+03  0.00000000000E+00 0. -1.
      99926    2    1    2    0    0  0.00000000000E+00  0.14210854715E-13  0.13496113383E+03  0.47278807010E+03  0.45311593614E+03 0.  0.
         25    1    3    3    0    0  0.48102879696E+02 -0.89874911982E+02  0.10597174170E+02  0.16171331126E+03  0.12509000000E+03 0.  0.
         25    1    3    3    0    0 -0.15367399758E+02  0.20178623569E+02  0.16204866335E+02  0.12866017106E+03  0.12509000000E+03 0.  0.
         25    1    3    3    0    0 -0.32735479938E+02  0.69696288413E+02  0.10815909332E+03  0.18241458778E+03  0.12509000000E+03 0.  0.
<mgrwt>
<rscale>  2 0.45311594E+03</rscale>
<asrwt>0</asrwt>
<pdfrwt beam="1">  1       21 0.44687441E-01 0.45311594E+03</pdfrwt>
<pdfrwt beam="2">  1       21 0.24840216E-01 0.45311594E+03</pdfrwt>
<totfact> 0.68243560E+04</totfact>
</mgrwt>
</event>
<event>
 6    0  0.1576925E-007  0.4546837E+03  0.7546771E-02  0.1026334E+00
         21   -1    0    0  502  501  0.00000000000E+00  0.00000000000E+00  0.21816752359E+02  0.21816752359E+02  0.00000000000E+00 0.  1.
         21   -1    0    0  501  502 -0.00000000000E+00 -0.00000000000E+00 -0.23690198611E+04  0.23690198611E+04  0.00000000000E+00 0.  1.
      99926    2    1    2    0    0  0.00000000000E+00  0.00000000000E+00 -0.23472031087E+04  0.23908366134E+04  0.45468371267E+03 0.  0.
         25    1    3    3    0    0  0.40277913943E+02 -0.13876201306E+02 -0.38437138134E+03  0.40645261250E+03  0.12509000000E+03 0.  0.
         25    1    3    3    0    0 -0.86180362666E+02  0.37215132045E+02 -0.10523215543E+04  0.10638797783E+04  0.12509000000E+03 0.  0.
         25    1    3    3    0    0  0.45902448723E+02 -0.23338930739E+02 -0.91051017311E+03  0.92050422266E+03  0.12509000000E+03 0.  0.
<mgrwt>
<rscale>  2 0.45468371E+03</rscale>
<asrwt>0</asrwt>
<pdfrwt beam="1">  1       21 0.32083465E-02 0.45468371E+03</pdfrwt>
<pdfrwt beam="2">  1       21 0.34838521E+00 0.45468371E+03</pdfrwt>
<totfact> 0.83345645E+03</totfact>
</mgrwt>
</event>
<event>
 6    0  0.1576925E-007  0.4534049E+03  0.7546771E-02  0.1026712E+00
         21   -1    0    0  502  501  0.00000000000E+00  0.00000000000E+00  0.94753210702E+03  0.94753210702E+03  0.00000000000E+00 0. -1.
         21   -1    0    0  501  502 -0.00000000000E+00 -0.00000000000E+00 -0.54239852833E+02  0.54239852833E+02  0.00000000000E+00 0. -1.
      99926    2    1    2    0    0  0.00000000000E+00  0.00000000000E+00  0.89329225419E+03  0.10017719599E+04  0.45340490531E+03 0.  0.
         25    1    3    3    0    0  0.93563411713E+02 -0.12233817882E+02  0.42585870337E+03  0.45376967907E+03  0.12509000000E+03 0.  0.
         25    1    3    3    0    0 -0.50388348073E+02 -0.96099588689E+01  0.14227237586E+03  0.19626582475E+03  0.12509000000E+03 0.  0.
         25    1    3    3    0    0 -0.43175063640E+02  0.21843776751E+02  0.32516117496E+03  0.35173645604E+03  0.12509000000E+03 0.  0.
<mgrwt>
<rscale>  2 0.45340491E+03</rscale>
<asrwt>0</asrwt>
<pdfrwt beam="1">  1       21 0.13934295E+00 0.45340491E+03</pdfrwt>
<pdfrwt beam="2">  1       21 0.79764495E-02 0.45340491E+03</pdfrwt>
<totfact> 0.39588813E+04</totfact>
</mgrwt>
</event>
<event>
 6    0  0.1576925E-007  0.4483438E+03  0.7546771E-02  0.1028217E+00
         21   -1    0    0  502  501  0.00000000000E+00  0.00000000000E+00  0.31918147649E+03  0.31918147649E+03  0.00000000000E+00 0.  1.
         21   -1    0    0  501  502 -0.00000000000E+00 -0.00000000000E+00 -0.15744345168E+03  0.15744345168E+03  0.00000000000E+00 0.  1.
      99926    2    1    2    0    0  0.35527136788E-14  0.44408920985E-14  0.16173802480E+03  0.47662492817E+03  0.44834376709E+03 0.  0.
         25    1    3    3    0    0  0.45805116560E+02 -0.42260171866E+02  0.12622525610E+03  0.18831981894E+03  0.12509000000E+03 0.  0.
         25    1    3    3    0    0 -0.15229500443E+02  0.38072569030E+02 -0.41716044666E+02  0.13809125490E+03  0.12509000000E+03 0.  0.
         25    1    3    3    0    0 -0.30575616116E+02  0.41876028363E+01  0.77228813368E+02  0.15021385433E+03  0.12509000000E+03 0.  0.
<mgrwt>
<rscale>  2 0.44834377E+03</rscale>
<asrwt>0</asrwt>
<pdfrwt beam="1">  1       21 0.46938452E-01 0.44834377E+03</pdfrwt>
<pdfrwt beam="2">  1       21 0.23153449E-01 0.44834377E+03</pdfrwt>
<totfact> 0.70603801E+04</totfact>
</mgrwt>
</event>
<event>
 6    0  0.1576925E-007  0.4582979E+03  0.7546771E-02  0.1025276E+00
         21   -1    0    0  502  501  0.00000000000E+00  0.00000000000E+00  0.19152882376E+04  0.19152882376E+04  0.00000000000E+00 0. -1.
         21   -1    0    0  501  502 -0.00000000000E+00 -0.00000000000E+00 -0.27415845008E+02  0.27415845008E+02  0.00000000000E+00 0. -1.
      99926    2    1    2    0    0  0.00000000000E+00 -0.71054273576E-14  0.18878723926E+04  0.19427040826E+04  0.45829791825E+03 0.  0.
         25    1    3    3    0    0  0.65317094912E+00 -0.36808834227E+02  0.10044929586E+04  0.10129209884E+04  0.12509000000E+03 0.  0.
         25    1    3    3    0    0  0.35576560368E+02  0.75794020823E+02  0.39071945210E+03  0.41871186225E+03  0.12509000000E+03 0.  0.
         25    1    3    3    0    0 -0.36229731318E+02 -0.38985186595E+02  0.49265998193E+03  0.51107123192E+03  0.12509000000E+03 0.  0.
<mgrwt>
<rscale>  2 0.45829792E+03</rscale>
<asrwt>0</asrwt>
<pdfrwt beam="1">  1       21 0.28165994E+00 0.45829792E+03</pdfrwt>
<pdfrwt beam="2">  1       21 0.40317432E-02 0.45829792E+03</pdfrwt>
<totfact> 0.14298525E+04</totfact>
</mgrwt>
</event>
<event>
 6    0  0.1576925E-007  0.4546985E+03  0.7546771E-02  0.1026330E+00
         21   -1    0    0  502  501  0.00000000000E+00  0.00000000000E+00  0.81493751558E+02  0.81493751558E+02  0.00000000000E+00 0. -1.
         21   -1    0    0  501  502 -0.00000000000E+00 -0.00000000000E+00 -0.63425328451E+03  0.63425328451E+03  0.00000000000E+00 0. -1.
      99926    2    1    2    0    0  0.15543122345E-14 -0.35527136788E-14 -0.55275953295E+03  0.71574703607E+03  0.45469849172E+03 0.  0.
         25    1    3    3    0    0 -0.36255229115E+02  0.10056460660E+03 -0.22618743321E+03  0.27970689084E+03  0.12509000000E+03 0.  0.
         25    1    3    3    0    0 -0.16540562829E+01 -0.21858018177E+02 -0.20412600123E+03  0.24040682465E+03  0.12509000000E+03 0.  0.
         25    1    3    3    0    0  0.37909285398E+02 -0.78706588423E+02 -0.12244609851E+03  0.19563332058E+03  0.12509000000E+03 0.  0.
<mgrwt>
<rscale>  2 0.45469849E+03</rscale>
<asrwt>0</asrwt>
<pdfrwt beam="1">  1       21 0.11984375E-01 0.45469849E+03</pdfrwt>
<pdfrwt beam="2">  1       21 0.93272542E-01 0.45469849E+03</pdfrwt>
<totfact> 0.52180001E+04</totfact>
</mgrwt>
</event>
<event>
 6    0  0.1576925E-007  0.4612768E+03  0.7546771E-02  0.1024412E+00
         21   -1    0    0  502  501  0.00000000000E+00  0.00000000000E+00  0.34827298970E+03  0.34827298970E+03  0.00000000000E+00 0.  1.
         21   -1    0    0  501  502 -0.00000000000E+00 -0.00000000000E+00 -0.15273673828E+03  0.15273673828E+03  0.00000000000E+00 0.  1.
      99926    2    1    2    0    0  0.00000000000E+00  0.00000000000E+00  0.19553625143E+03  0.50100972798E+03  0.46127683869E+03 0.  0.
         25    1    3    3    0    0  0.51180407755E+02 -0.94358373141E+02  0.85401645372E+02  0.18564451474E+03  0.12509000000E+03 0.  0.
         25    1    3    3    0    0 -0.53672825643E+01  0.42890285938E+02  0.11071699112E+03  0.17255186053E+03  0.12509000000E+03 0.  0.
         25    1    3    3    0    0 -0.45813125191E+02  0.51468087203E+02 -0.58238506781E+00  0.14281335271E+03  0.12509000000E+03 0.  0.
<mgrwt>
<rscale>  2 0.46127684E+03</rscale>
<asrwt>0</asrwt>
<pdfrwt beam="1">  1       21 0.51216616E-01 0.46127684E+03</pdfrwt>
<pdfrwt beam="2">  1       21 0.22461285E-01 0.46127684E+03</pdfrwt>
<totfact> 0.62049873E+04</totfact>
</mgrwt>
</event>
<event>
 6    0  0.1576925E-007  0.4545838E+03  0.7546771E-02  0.1026364E+00
         21   -1    0    0  502  501  0.00000000000E+00  0.00000000000E+00  0.25363544203E+02  0.25363544203E+02  0.00000000000E+00 0.  1.
         21   -1    0    0  501  502 -0.00000000000E+00 -0.00000000000E+00 -0.20368449760E+04  0.20368449760E+04  0.00000000000E+00 0.  1.
      99926    2    1    2    0    0 -0.71054273576E-14  0.00000000000E+00 -0.20114814318E+04  0.20622085202E+04  0.45458379902E+03 0.  0.
         25    1    3    3    0    0  0.72896142979E+02  0.36872774785E+02 -0.56123613614E+03  0.58078133389E+03  0.12509000000E+03 0.  0.
         25    1    3    3    0    0 -0.20861634092E+02 -0.27553920533E+02 -0.10663943845E+04  0.10742620340E+04  0.12509000000E+03 0.  0.
         25    1    3    3    0    0 -0.52034508887E+02 -0.93188542514E+01 -0.38385091115E+03  0.40716515230E+03  0.12509000000E+03 0.  0.
<mgrwt>
<rscale>  2 0.45458380E+03</rscale>
<asrwt>0</asrwt>
<pdfrwt beam="1">  1       21 0.37299326E-02 0.45458380E+03</pdfrwt>
<pdfrwt beam="2">  1       21 0.29953606E+00 0.45458380E+03</pdfrwt>
<totfact> 0.12761800E+04</totfact>
</mgrwt>
</event>
<event>
 6    0  0.1576925E-007  0.4616532E+03  0.7546771E-02  0.1024303E+00
         21   -1    0    0  502  501  0.00000000000E+00  0.00000000000E+00  0.25504546865E+04  0.25504546865E+04  0.00000000000E+00 0. -1.
         21   -1    0    0  501  502 -0.00000000000E+00 -0.00000000000E+00 -0.20890751454E+02  0.20890751454E+02  0.00000000000E+00 0. -1.
      99926    2    1    2    0    0  0.35527136788E-14  0.55511151231E-14  0.25295639350E+04  0.25713454379E+04  0.46165318129E+03 0.  0.
         25    1    3    3    0    0 -0.41873606745E+02 -0.10081058006E+03  0.76931096085E+03  0.78702162269E+03  0.12509000000E+03 0.  0.
         25    1    3    3    0    0  0.25049531743E+02  0.10237250979E+03  0.88090217330E+03  0.89595968482E+03  0.12509000000E+03 0.  0.
         25    1    3    3    0    0  0.16824075002E+02 -0.15619297272E+01  0.87935080088E+03  0.88836413043E+03  0.12509000000E+03 0.  0.
<mgrwt>
<rscale>  2 0.46165318E+03</rscale>
<asrwt>0</asrwt>
<pdfrwt beam="1">  1       21 0.37506665E+00 0.46165318E+03</pdfrwt>
<pdfrwt beam="2">  1       21 0.30721711E-02 0.46165318E+03</pdfrwt>
<totfact> 0.61070529E+03</totfact>
</mgrwt>
</event>
<event>
 6    0  0.1576925E-007  0.4572148E+03  0.7546771E-02  0.1025592E+00
         21   -1    0    0  502  501  0.00000000000E+00  0.00000000000E+00  0.23076164077E+03  0.23076164077E+03  0.00000000000E+00 0. -1.
         21   -1    0    0  501  502 -0.00000000000E+00 -0.00000000000E+00 -0.22647326576E+03  0.22647326576E+03  0.00000000000E+00 0. -1.
      99926    2    1    2    0    0  0.35527136788E-14  0.00000000000E+00  0.42883750125E+01  0.45723490653E+03  0.45721479590E+03 0.  0.
         25    1    3    3    0    0 -0.61458625397E+02 -0.94250177233E+02  0.25742398732E+02  0.17020704373E+03  0.12509000000E+03 0.  0.
         25    1    3    3    0    0  0.44454954403E+02  0.73461426417E+01 -0.10918629065E+02  0.13340514736E+03  0.12509000000E+03 0.  0.
         25    1    3    3    0    0  0.17003670994E+02  0.86904034591E+02 -0.10535394654E+02  0.15362271543E+03  0.12509000000E+03 0.  0.
<mgrwt>
<rscale>  2 0.45721480E+03</rscale>
<asrwt>0</asrwt>
<pdfrwt beam="1">  1       21 0.33935536E-01 0.45721480E+03</pdfrwt>
<pdfrwt beam="2">  1       21 0.33304892E-01 0.45721480E+03</pdfrwt>
<totfact> 0.67187183E+04</totfact>
</mgrwt>
</event>
<event>
 6    0  0.1576925E-007  0.4500472E+03  0.7546771E-02  0.1027708E+00
         21   -1    0    0  502  501  0.00000000000E+00  0.00000000000E+00  0.12210778452E+03  0.12210778452E+03  0.00000000000E+00 0. -1.
         21   -1    0    0  501  502 -0.00000000000E+00 -0.00000000000E+00 -0.41467975447E+03  0.41467975447E+03  0.00000000000E+00 0. -1.
      99926    2    1    2    0    0 -0.88817841970E-15  0.00000000000E+00 -0.29257196995E+03  0.53678753900E+03  0.45004722466E+03 0.  0.
         25    1    3    3    0    0 -0.79940180674E+01 -0.87143011356E+01 -0.15809081099E+03  0.20194072395E+03  0.12509000000E+03 0.  0.
         25    1    3    3    0    0  0.99547533364E+01 -0.77718093701E+02 -0.10183214675E+03  0.17932231711E+03  0.12509000000E+03 0.  0.
         25    1    3    3    0    0 -0.19607352690E+01  0.86432394836E+02 -0.32649012206E+02  0.15552449794E+03  0.12509000000E+03 0.  0.
<mgrwt>
<rscale>  2 0.45004722E+03</rscale>
<asrwt>0</asrwt>
<pdfrwt beam="1">  1       21 0.17957027E-01 0.45004722E+03</pdfrwt>
<pdfrwt beam="2">  1       21 0.60982317E-01 0.45004722E+03</pdfrwt>
<totfact> 0.65269227E+04</totfact>
</mgrwt>
</event>
<event>
 6    0  0.1576925E-007  0.4532756E+03  0.7546771E-02  0.1026750E+00
         21   -1    0    0  502  501  0.00000000000E+00  0.00000000000E+00  0.36107552255E+02  0.36107552255E+02  0.00000000000E+00 0. -1.
         21   -1    0    0  501  502 -0.00000000000E+00 -0.00000000000E+00 -0.14225470347E+04  0.14225470347E+04  0.00000000000E+00 0. -1.
      99926    2    1    2    0    0  0.00000000000E+00  0.00000000000E+00 -0.13864394825E+04  0.14586545870E+04  0.45327559560E+03 0.  0.
         25    1    3    3    0    0  0.47023451834E+02  0.45625358423E+02 -0.61602521810E+03  0.63200273400E+03  0.12509000000E+03 0.  0.
         25    1    3    3    0    0 -0.28034283464E+02 -0.99391733477E+02 -0.41395048009E+03  0.44459773481E+03  0.12509000000E+03 0.  0.
         25    1    3    3    0    0 -0.18989168370E+02  0.53766375054E+02 -0.35646378426E+03  0.38205411815E+03  0.12509000000E+03 0.  0.
<mgrwt>
<rscale>  2 0.45327560E+03</rscale>
<asrwt>0</asrwt>
<pdfrwt beam="1">  1       21 0.53099358E-02 0.45327560E+03</pdfrwt>
<pdfrwt beam="2">  1       21 0.20919803E+00 0.45327560E+03</pdfrwt>
<totfact> 0.25145128E+04</totfact>
</mgrwt>
</event>
<event>
 6    0  0.1576925E-007  0.4538833E+03  0.7546771E-02  0.1026570E+00
         21   -1    0    0  502  501  0.00000000000E+00  0.00000000000E+00  0.21912737487E+03  0.21912737487E+03  0.00000000000E+00 0. -1.
         21   -1    0    0  501  502 -0.00000000000E+00 -0.00000000000E+00 -0.23503456256E+03  0.23503456256E+03  0.00000000000E+00 0. -1.
      99926    2    1    2    0    0  0.88817841970E-15 -0.11546319456E-13 -0.15907187690E+02  0.45416193743E+03  0.45388327441E+03 0.  0.
         25    1    3    3    0    0  0.79451104974E+01 -0.51225840655E+01  0.44275823566E+02  0.13303090731E+03  0.12509000000E+03 0.  0.
         25    1    3    3    0    0  0.35418570826E+02 -0.83434176385E+02 -0.13070799741E+02  0.15502932256E+03  0.12509000000E+03 0.  0.
         25    1    3    3    0    0 -0.43363681324E+02  0.88556760451E+02 -0.47112211515E+02  0.16610170756E+03  0.12509000000E+03 0.  0.
<mgrwt>
<rscale>  2 0.45388327E+03</rscale>
<asrwt>0</asrwt>
<pdfrwt beam="1">  1       21 0.32224614E-01 0.45388327E+03</pdfrwt>
<pdfrwt beam="2">  1       21 0.34563906E-01 0.45388327E+03</pdfrwt>
<totfact> 0.69221979E+04</totfact>
</mgrwt>
</event>
<event>
 6    0  0.1576925E-007  0.4678399E+03  0.7546771E-02  0.1022532E+00
         21   -1    0    0  502  501  0.00000000000E+00  0.00000000000E+00  0.36598163403E+03  0.36598163403E+03  0.00000000000E+00 0. -1.
         21   -1    0    0  501  502 -0.00000000000E+00 -0.00000000000E+00 -0.14951172145E+03  0.14951172145E+03  0.00000000000E+00 0. -1.
      99926    2    1    2    0    0  0.00000000000E+00  0.00000000000E+00  0.21646991258E+03  0.51549335549E+03  0.46783990477E+03 0.  0.
         25    1    3    3    0    0  0.77460120097E+01  0.46627295019E+02  0.16589060309E+03  0.21307582133E+03  0.12509000000E+03 0.  0.
         25    1    3    3    0    0 -0.38007973978E+02 -0.93019952294E+02  0.38998853631E+02  0.16512339718E+03  0.12509000000E+03 0.  0.
         25    1    3    3    0    0  0.30261961969E+02  0.46392657275E+02  0.11580455866E+02  0.13729413698E+03  0.12509000000E+03 0.  0.
<mgrwt>
<rscale>  2 0.46783990E+03</rscale>
<asrwt>0</asrwt>
<pdfrwt beam="1">  1       21 0.53820829E-01 0.46783990E+03</pdfrwt>
<pdfrwt beam="2">  1       21 0.21987018E-01 0.46783990E+03</pdfrwt>
<totfact> 0.58050288E+04</totfact>
</mgrwt>
</event>
<event>
 6    0  0.1576925E-007  0.4551080E+03  0.7546771E-02  0.1026210E+00
         21   -1    0    0  502  501  0.00000000000E+00  0.00000000000E+00  0.40645264890E+03  0.40645264890E+03  0.00000000000E+00 0.  1.
         21   -1    0    0  501  502 -0.00000000000E+00 -0.00000000000E+00 -0.12739692167E+03  0.12739692167E+03  0.00000000000E+00 0.  1.
      99926    2    1    2    0    0  0.00000000000E+00  0.71054273576E-14  0.27905572723E+03  0.53384957057E+03  0.45510797081E+03 0.  0.
         25    1    3    3    0    0 -0.23550185128E+02  0.10539729369E+03  0.77206260028E+02  0.18240481195E+03  0.12509000000E+03 0.  0.
         25    1    3    3    0    0  0.35264763839E+02 -0.30993935617E+02  0.13798948703E+03  0.19207507450E+03  0.12509000000E+03 0.  0.
         25    1    3    3    0    0 -0.11714578710E+02 -0.74403358071E+02  0.63859980175E+02  0.15936968411E+03  0.12509000000E+03 0.  0.
<mgrwt>
<rscale>  2 0.45510797E+03</rscale>
<asrwt>0</asrwt>
<pdfrwt beam="1">  1       21 0.59772448E-01 0.45510797E+03</pdfrwt>
<pdfrwt beam="2">  1       21 0.18734842E-01 0.45510797E+03</pdfrwt>
<totfact> 0.62892758E+04</totfact>
</mgrwt>
</event>
<event>
 6    0  0.1576925E-007  0.4514057E+03  0.7546771E-02  0.1027304E+00
         21   -1    0    0  502  501  0.00000000000E+00  0.00000000000E+00  0.11213972911E+03  0.11213972911E+03  0.00000000000E+00 0. -1.
         21   -1    0    0  501  502 -0.00000000000E+00 -0.00000000000E+00 -0.45427047140E+03  0.45427047140E+03  0.00000000000E+00 0. -1.
      99926    2    1    2    0    0  0.71054273576E-14  0.00000000000E+00 -0.34213074229E+03  0.56641020051E+03  0.45140566060E+03 0.  0.
         25    1    3    3    0    0  0.84862661495E+02  0.43274464855E+02 -0.11958332440E+03  0.19753994583E+03  0.12509000000E+03 0.  0.
         25    1    3    3    0    0 -0.73759850127E+02  0.87407336416E+01 -0.61016593828E+02  0.15775756317E+03  0.12509000000E+03 0.  0.
         25    1    3    3    0    0 -0.11102811369E+02 -0.52015198497E+02 -0.16153082405E+03  0.21111269151E+03  0.12509000000E+03 0.  0.
<mgrwt>
<rscale>  2 0.45140566E+03</rscale>
<asrwt>0</asrwt>
<pdfrwt beam="1">  1       21 0.16491137E-01 0.45140566E+03</pdfrwt>
<pdfrwt beam="2">  1       21 0.66804481E-01 0.45140566E+03</pdfrwt>
<totfact> 0.62554245E+04</totfact>
</mgrwt>
</event>
<event>
 6    0  0.1576925E-007  0.4638913E+03  0.7546771E-02  0.1023659E+00
         21   -1    0    0  502  501  0.00000000000E+00  0.00000000000E+00  0.12643679556E+04  0.12643679556E+04  0.00000000000E+00 0. -1.
         21   -1    0    0  501  502 -0.00000000000E+00 -0.00000000000E+00 -0.42549948573E+02  0.42549948573E+02  0.00000000000E+00 0. -1.
      99926    2    1    2    0    0 -0.14210854715E-13 -0.22204460493E-15  0.12218180071E+04  0.13069179042E+04  0.46389132990E+03 0.  0.
         25    1    3    3    0    0 -0.66079464618E+02  0.11123157726E+01  0.60624773352E+03  0.62253638881E+03  0.12509000000E+03 0.  0.
         25    1    3    3    0    0  0.10295967320E+03 -0.31798024790E+02  0.34183600343E+03  0.37961977033E+03  0.12509000000E+03 0.  0.
         25    1    3    3    0    0 -0.36880208584E+02  0.30685709017E+02  0.27373427011E+03  0.30476174507E+03  0.12509000000E+03 0.  0.
<mgrwt>
<rscale>  2 0.46389133E+03</rscale>
<asrwt>0</asrwt>
<pdfrwt beam="1">  1       21 0.18593644E+00 0.46389133E+03</pdfrwt>
<pdfrwt beam="2">  1       21 0.62573462E-02 0.46389133E+03</pdfrwt>
<totfact> 0.26998269E+04</totfact>
</mgrwt>
</event>
<event>
 6    0  0.1576925E-007  0.4562820E+03  0.7546771E-02  0.1025865E+00
         21   -1    0    0  502  501  0.00000000000E+00  0.00000000000E+00  0.13321978120E+03  0.13321978120E+03  0.00000000000E+00 0. -1.
         21   -1    0    0  501  502 -0.00000000000E+00 -0.00000000000E+00 -0.39069505481E+03  0.39069505481E+03  0.00000000000E+00 0. -1.
      99926    2    1    2    0    0  0.35527136788E-14  0.00000000000E+00 -0.25747527361E+03  0.52391483600E+03  0.45628197298E+03 0.  0.
         25    1    3    3    0    0 -0.79542089973E+02 -0.33764103802E+02 -0.35685090326E+02  0.15616623372E+03  0.12509000000E+03 0.  0.
         25    1    3    3    0    0  0.62270900845E+02 -0.38619033231E+02 -0.85254289686E+02  0.16818114291E+03  0.12509000000E+03 0.  0.
         25    1    3    3    0    0  0.17271189127E+02  0.72383137033E+02 -0.13653589360E+03  0.19956745938E+03  0.12509000000E+03 0.  0.
<mgrwt>
<rscale>  2 0.45628197E+03</rscale>
<asrwt>0</asrwt>
<pdfrwt beam="1">  1       21 0.19591144E-01 0.45628197E+03</pdfrwt>
<pdfrwt beam="2">  1       21 0.57455155E-01 0.45628197E+03</pdfrwt>
<totfact> 0.62977806E+04</totfact>
</mgrwt>
</event>
<event>
 6    0  0.1576925E-007  0.4483725E+03  0.7546771E-02  0.1028209E+00
         21   -1    0    0  502  501  0.00000000000E+00  0.00000000000E+00  0.22762963813E+03  0.22762963813E+03  0.00000000000E+00 0. -1.
         21   -1    0    0  501  502 -0.00000000000E+00 -0.00000000000E+00 -0.22079491812E+03  0.22079491812E+03  0.00000000000E+00 0. -1.
      99926    2    1    2    0    0  0.00000000000E+00  0.71054273576E-14  0.68347200034E+01  0.44842455625E+03  0.44837246710E+03 0.  0.
         25    1    3    3    0    0 -0.87369130993E+02 -0.25869757951E+02  0.36610606359E+02  0.15902972686E+03  0.12509000000E+03 0.  0.
         25    1    3    3    0    0  0.10874064753E+01 -0.68614449592E+01 -0.45196845372E+02  0.13318605337E+03  0.12509000000E+03 0.  0.
         25    1    3    3    0    0  0.86281724517E+02  0.32731202910E+02  0.15420959017E+02  0.15620877602E+03  0.12509000000E+03 0.  0.
<mgrwt>
<rscale>  2 0.44837247E+03</rscale>
<asrwt>0</asrwt>
<pdfrwt beam="1">  1       21 0.33474947E-01 0.44837247E+03</pdfrwt>
<pdfrwt beam="2">  1       21 0.32469841E-01 0.44837247E+03</pdfrwt>
<totfact> 0.72804682E+04</totfact>
</mgrwt>
</event>
<event>
 6    0  0.1576925E-007  0.4553477E+03  0.7546771E-02  0.1026139E+00
         21   -1    0    0  502  501  0.00000000000E+00  0.00000000000E+00  0.15181586514E+03  0.15181586514E+03  0.00000000000E+00 0.  1.
         21   -1    0    0  501  502 -0.00000000000E+00 -0.00000000000E+00 -0.34143580748E+03  0.34143580748E+03  0.00000000000E+00 0.  1.
      99926    2    1    2    0    0  0.71054273576E-14  0.00000000000E+00 -0.18961994234E+03  0.49325167263E+03  0.45534765841E+03 0.  0.
         25    1    3    3    0    0 -0.16441659287E+01 -0.33135034112E+02 -0.69602923606E+02  0.14694457745E+03  0.12509000000E+03 0.  0.
         25    1    3    3    0    0  0.34296656451E+02  0.11327204424E+03 -0.53782027184E+02  0.18040740339E+03  0.12509000000E+03 0.  0.
         25    1    3    3    0    0 -0.32652490522E+02 -0.80137010128E+02 -0.66234991552E+02  0.16589969179E+03  0.12509000000E+03 0.  0.
<mgrwt>
<rscale>  2 0.45534766E+03</rscale>
<asrwt>0</asrwt>
<pdfrwt beam="1">  1       21 0.22325862E-01 0.45534766E+03</pdfrwt>
<pdfrwt beam="2">  1       21 0.50211148E-01 0.45534766E+03</pdfrwt>
<totfact> 0.65566249E+04</totfact>
</mgrwt>
</event>
<event>
 6    0  0.1576925E-007  0.4523301E+03  0.7546771E-02  0.1027029E+00
         21   -1    0    0  502  501  0.00000000000E+00  0.00000000000E+00  0.56158353043E+02  0.56158353043E+02  0.00000000000E+00 0. -1.
         21   -1    0    0  501  502 -0.00000000000E+00 -0.00000000000E+00 -0.91082868641E+03  0.91082868641E+03  0.00000000000E+00 0. -1.
      99926    2    1    2    0    0  0.00000000000E+00  0.35527136788E-14 -0.85467033337E+03  0.96698703945E+03  0.45233014020E+03 0.  0.
         25    1    3    3    0    0 -0.43400774947E+02 -0.23084860934E+02 -0.51409298878E+03  0.53137147768E+03  0.12509000000E+03 0.  0.
         25    1    3    3    0    0  0.24411162159E+02  0.51061683707E+02 -0.13460795167E+03  0.19227586727E+03  0.12509000000E+03 0.  0.
         25    1    3    3    0    0  0.18989612788E+02 -0.27976822773E+02 -0.20596939292E+03  0.24333969451E+03  0.12509000000E+03 0.  0.
<mgrwt>
<rscale>  2 0.45233014E+03</rscale>
<asrwt>0</asrwt>
<pdfrwt beam="1">  1       21 0.82585819E-02 0.45233014E+03</pdfrwt>
<pdfrwt beam="2">  1       21 0.13394539E+00 0.45233014E+03</pdfrwt>
<totfact> 0.41316224E+04</totfact>
</mgrwt>
</event>
<event>
 6    0  0.1576925E-007  0.4559061E+03  0.7546771E-02  0.1025975E+00
         21   -1    0    0  502  501  0.00000000000E+00  0.00000000000E+00  0.10962725414E+03  0.10962725414E+03  0.00000000000E+00 0.  1.
         21   -1    0    0  501  502 -0.00000000000E+00 -0.00000000000E+00 -0.47399347116E+03  0.47399347116E+03  0.00000000000E+00 0.  1.
      99926    2    1    2    0    0  0.71054273576E-14  0.00000000000E+00 -0.36436621702E+03  0.58362072529E+03  0.45590614263E+03 0.  0.
         25    1    3    3    0    0 -0.44908417324E+02 -0.92473929390E+01 -0.21063200837E+03  0.24923007698E+03  0.12509000000E+03 0.  0.
         25    1    3    3    0    0 -0.34910366005E+02 -0.45101964849E+02 -0.55107821181E+02  0.14811246046E+03  0.12509000000E+03 0.  0.
         25    1    3    3    0    0  0.79818783329E+02  0.54349357788E+02 -0.98626387467E+02  0.18627818785E+03  0.12509000000E+03 0.  0.
<mgrwt>
<rscale>  2 0.45590614E+03</rscale>
<asrwt>0</asrwt>
<pdfrwt beam="1">  1       21 0.16121655E-01 0.45590614E+03</pdfrwt>
<pdfrwt beam="2">  1       21 0.69704923E-01 0.45590614E+03</pdfrwt>
<totfact> 0.59272241E+04</totfact>
</mgrwt>
</event>
<event>
 6    0  0.1576925E-007  0.4556670E+03  0.7546771E-02  0.1026045E+00
         21   -1    0    0  502  501  0.00000000000E+00  0.00000000000E+00  0.10424304023E+04  0.10424304023E+04  0.00000000000E+00 0.  1.
         21   -1    0    0  501  502 -0.00000000000E+00 -0.00000000000E+00 -0.49795271408E+02  0.49795271408E+02  0.00000000000E+00 0.  1.
      99926    2    1    2    0    0  0.00000000000E+00  0.00000000000E+00  0.99263513091E+03  0.10922256737E+04  0.45566700476E+03 0.  0.
         25    1    3    3    0    0  0.10823870113E+03 -0.33326787562E+02  0.38832162025E+03  0.42339990558E+03  0.12509000000E+03 0.  0.
         25    1    3    3    0    0 -0.31397832582E+02 -0.11635948500E+02  0.22478053994E+03  0.25941283396E+03  0.12509000000E+03 0.  0.
         25    1    3    3    0    0 -0.76840868551E+02  0.44962736062E+02  0.37953297072E+03  0.40941293418E+03  0.12509000000E+03 0.  0.
<mgrwt>
<rscale>  2 0.45566700E+03</rscale>
<asrwt>0</asrwt>
<pdfrwt beam="1">  1       21 0.15329857E+00 0.45566700E+03</pdfrwt>
<pdfrwt beam="2">  1       21 0.73228347E-02 0.45566700E+03</pdfrwt>
<totfact> 0.35579503E+04</totfact>
</mgrwt>
</event>
<event>
 6    0  0.1576925E-007  0.4623454E+03  0.7546771E-02  0.1024103E+00
         21   -1    0    0  502  501  0.00000000000E+00  0.00000000000E+00  0.88515358911E+03  0.88515358911E+03  0.00000000000E+00 0.  1.
         21   -1    0    0  501  502 -0.00000000000E+00 -0.00000000000E+00 -0.60374622344E+02  0.60374622344E+02  0.00000000000E+00 0.  1.
      99926    2    1    2    0    0  0.00000000000E+00  0.00000000000E+00  0.82477896676E+03  0.94552821145E+03  0.46234538457E+03 0.  0.
         25    1    3    3    0    0  0.29108355505E+02 -0.14557806522E+02  0.49712828416E+03  0.51365675806E+03  0.12509000000E+03 0.  0.
         25    1    3    3    0    0 -0.50435306713E+02  0.22937722988E+02  0.24374051261E+03  0.27951172585E+03  0.12509000000E+03 0.  0.
         25    1    3    3    0    0  0.21326951208E+02 -0.83799164663E+01  0.83910169992E+02  0.15235972754E+03  0.12509000000E+03 0.  0.
<mgrwt>
<rscale>  2 0.46234538E+03</rscale>
<asrwt>0</asrwt>
<pdfrwt beam="1">  1       21 0.13016964E+00 0.46234538E+03</pdfrwt>
<pdfrwt beam="2">  1       21 0.88786215E-02 0.46234538E+03</pdfrwt>
<totfact> 0.39031604E+04</totfact>
</mgrwt>
</event>
<event>
 6    0  0.1576925E-007  0.4547988E+03  0.7546771E-02  0.1026301E+00
         21   -1    0    0  502  501  0.00000000000E+00  0.00000000000E+00  0.17027062140E+03  0.17027062140E+03  0.00000000000E+00 0.  1.
         21   -1    0    0  501  502 -0.00000000000E+00 -0.00000000000E+00 -0.30369582366E+03  0.30369582366E+03  0.00000000000E+00 0.  1.
      99926    2    1    2    0    0 -0.88817841970E-15  0.00000000000E+00 -0.13342520226E+03  0.47396644506E+03  0.45479875379E+03 0.  0.
         25    1    3    3    0    0  0.70031521942E+01  0.50111844664E+02 -0.15250657743E+02  0.13579518319E+03  0.12509000000E+03 0.  0.
         25    1    3    3    0    0  0.88368032841E+02 -0.27515272169E+02 -0.38009299708E+02  0.16018181668E+03  0.12509000000E+03 0.  0.
         25    1    3    3    0    0 -0.95371185035E+02 -0.22596572495E+02 -0.80165244808E+02  0.17798944519E+03  0.12509000000E+03 0.  0.
<mgrwt>
<rscale>  2 0.45479875E+03</rscale>
<asrwt>0</asrwt>
<pdfrwt beam="1">  1       21 0.25039798E-01 0.45479875E+03</pdfrwt>
<pdfrwt beam="2">  1       21 0.44661150E-01 0.45479875E+03</pdfrwt>
<totfact> 0.67249339E+04</totfact>
</mgrwt>
</event>
<event>
 6    0  0.1576925E-007  0.4619879E+03  0.7546771E-02  0.1024206E+00
         21   -1    0    0  502  501  0.00000000000E+00  0.00000000000E+00  0.57622453258E+03  0.57622453258E+03  0.00000000000E+00 0. -1.
         21   -1    0    0  501  502 -0.00000000000E+00 -0.00000000000E+00 -0.92599681211E+02  0.92599681211E+02  0.00000000000E+00 0. -1.
      99926    2    1    2    0    0  0.00000000000E+00  0.00000000000E+00  0.48362485137E+03  0.66882421380E+03  0.46198791336E+03 0.  0.
         25    1    3    3    0    0  0.13547831450E+02 -0.30877465229E+01  0.21430033678E+02  0.12767079681E+03  0.12509000000E+03 0.  0.
         25    1    3    3    0    0 -0.49794769397E+02 -0.22600209130E+02  0.15527041995E+03  0.20675275070E+03  0.12509000000E+03 0.  0.
         25    1    3    3    0    0  0.36246937946E+02  0.25687955653E+02  0.30692439774E+03  0.33440066628E+03  0.12509000000E+03 0.  0.
<mgrwt>
<rscale>  2 0.46198791E+03</rscale>
<asrwt>0</asrwt>
<pdfrwt beam="1">  1       21 0.84738901E-01 0.46198791E+03</pdfrwt>
<pdfrwt beam="2">  1       21 0.13617600E-01 0.46198791E+03</pdfrwt>
<totfact> 0.51719761E+04</totfact>
</mgrwt>
</event>
<event>
 6    0  0.1576925E-007  0.4472835E+03  0.7546771E-02  0.1028535E+00
         21   -1    0    0  502  501  0.00000000000E+00  0.00000000000E+00  0.47187453619E+03  0.47187453619E+03  0.00000000000E+00 0.  1.
         21   -1    0    0  501  502 -0.00000000000E+00 -0.00000000000E+00 -0.10599348010E+03  0.10599348010E+03  0.00000000000E+00 0.  1.
      99926    2    1    2    0    0  0.00000000000E+00  0.00000000000E+00  0.36588105610E+03  0.57786801629E+03  0.44728346386E+03 0.  0.
         25    1    3    3    0    0  0.39829198549E+02  0.77134771708E+02  0.66820723431E+02  0.16627884785E+03  0.12509000000E+03 0.  0.
         25    1    3    3    0    0 -0.61468583913E+02 -0.26327213181E+02  0.11682462826E+03  0.18375802249E+03  0.12509000000E+03 0.  0.
         25    1    3    3    0    0  0.21639385364E+02 -0.50807558527E+02  0.18223570440E+03  0.22783114594E+03  0.12509000000E+03 0.  0.
<mgrwt>
<rscale>  2 0.44728346E+03</rscale>
<asrwt>0</asrwt>
<pdfrwt beam="1">  1       21 0.69393314E-01 0.44728346E+03</pdfrwt>
<pdfrwt beam="2">  1       21 0.15587277E-01 0.44728346E+03</pdfrwt>
<totfact> 0.63869875E+04</totfact>
</mgrwt>
</event>
<event>
 6    0  0.1576925E-007  0.4590353E+03  0.7546771E-02  0.1025061E+00
         21   -1    0    0  502  501  0.00000000000E+00  0.00000000000E+00  0.21775793123E+03  0.21775793123E+03  0.00000000000E+00 0. -1.
         21   -1    0    0  501  502 -0.00000000000E+00 -0.00000000000E+00 -0.24191239938E+03  0.24191239938E+03  0.00000000000E+00 0. -1.
      99926    2    1    2    0    0  0.00000000000E+00  0.62172489379E-14 -0.24154468150E+02  0.45967033061E+03  0.45903526500E+03 0.  0.
         25    1    3    3    0    0  0.41461357871E+02 -0.76748132051E+01 -0.33101747362E+02  0.13609254474E+03  0.12509000000E+03 0.  0.
         25    1    3    3    0    0 -0.25367695277E+01  0.65221438387E+02  0.81714876770E+02  0.16304938028E+03  0.12509000000E+03 0.  0.
         25    1    3    3    0    0 -0.38924588343E+02 -0.57546625182E+02 -0.72767597559E+02  0.16052840559E+03  0.12509000000E+03 0.  0.
<mgrwt>
<rscale>  2 0.45903526E+03</rscale>
<asrwt>0</asrwt>
<pdfrwt beam="1">  1       21 0.32023225E-01 0.45903526E+03</pdfrwt>
<pdfrwt beam="2">  1       21 0.35575353E-01 0.45903526E+03</pdfrwt>
<totfact> 0.66052587E+04</totfact>
</mgrwt>
</event>
<event>
 6    0  0.1576925E-007  0.4631710E+03  0.7546771E-02  0.1023866E+00
         21   -1    0    0  502  501  0.00000000000E+00  0.00000000000E+00  0.13906399384E+03  0.13906399384E+03  0.00000000000E+00 0. -1.
         21   -1    0    0  501  502 -0.00000000000E+00 -0.00000000000E+00 -0.38566301290E+03  0.38566301290E+03  0.00000000000E+00 0. -1.
      99926    2    1    2    0    0  0.00000000000E+00  0.00000000000E+00 -0.24659901906E+03  0.52472700674E+03  0.46317097858E+03 0.  0.
         25    1    3    3    0    0 -0.63477063388E+02 -0.37238963073E+02 -0.35385598079E+02  0.14938449250E+03  0.12509000000E+03 0.  0.
         25    1    3    3    0    0  0.93796998294E+02  0.72657652977E+02 -0.87521475786E+02  0.19335079066E+03  0.12509000000E+03 0.  0.
         25    1    3    3    0    0 -0.30319934906E+02 -0.35418689904E+02 -0.12369194519E+03  0.18199172358E+03  0.12509000000E+03 0.  0.
<mgrwt>
<rscale>  2 0.46317098E+03</rscale>
<asrwt>0</asrwt>
<pdfrwt beam="1">  1       21 0.20450588E-01 0.46317098E+03</pdfrwt>
<pdfrwt beam="2">  1       21 0.56715148E-01 0.46317098E+03</pdfrwt>
<totfact> 0.59607394E+04</totfact>
</mgrwt>
</event>
<event>
 6    0  0.1576925E-007  0.4584224E+03  0.7546771E-02  0.1025240E+00
         21   -1    0    0  502  501  0.00000000000E+00  0.00000000000E+00  0.94199040707E+03  0.94199040707E+03  0.00000000000E+00 0.  1.
         21   -1    0    0  501  502 -0.00000000000E+00 -0.00000000000E+00 -0.55773155776E+02  0.55773155776E+02  0.00000000000E+00 0.  1.
      99926    2    1    2    0    0  0.00000000000E+00  0.17763568394E-14  0.88621725130E+03  0.99776356285E+03  0.45842241530E+03 0.  0.
         25    1    3    3    0    0 -0.51387760384E+01  0.49171637610E+02  0.23548960640E+03  0.27119572229E+03  0.12509000000E+03 0.  0.
         25    1    3    3    0    0  0.56289271544E+02 -0.82523264870E+01  0.50616350955E+03  0.52448602411E+03  0.12509000000E+03 0.  0.
         25    1    3    3    0    0 -0.51150495506E+02 -0.40919311123E+02  0.14456413535E+03  0.20208181646E+03  0.12509000000E+03 0.  0.
<mgrwt>
<rscale>  2 0.45842242E+03</rscale>
<asrwt>0</asrwt>
<pdfrwt beam="1">  1       21 0.13852799E+00 0.45842242E+03</pdfrwt>
<pdfrwt beam="2">  1       21 0.82019352E-02 0.45842242E+03</pdfrwt>
<totfact> 0.38221984E+04</totfact>
</mgrwt>
</event>
<event>
 6    0  0.1576925E-007  0.4562735E+03  0.7546771E-02  0.1025868E+00
         21   -1    0    0  502  501  0.00000000000E+00  0.00000000000E+00  0.22805001738E+03  0.22805001738E+03  0.00000000000E+00 0.  1.
         21   -1    0    0  501  502 -0.00000000000E+00 -0.00000000000E+00 -0.22822353480E+03  0.22822353480E+03  0.00000000000E+00 0.  1.
      99926    2    1    2    0    0  0.71054273576E-14 -0.35527136788E-14 -0.17351742189E+00  0.45627355218E+03  0.45627351919E+03 0.  0.
         25    1    3    3    0    0  0.31172916249E+02 -0.44994885711E+01  0.64925808922E+02  0.14441213546E+03  0.12509000000E+03 0.  0.
         25    1    3    3    0    0  0.59954781390E+02  0.21042620484E+02 -0.68602507551E+02  0.15617675829E+03  0.12509000000E+03 0.  0.
         25    1    3    3    0    0 -0.91127697639E+02 -0.16543131913E+02  0.35031812074E+01  0.15568465843E+03  0.12509000000E+03 0.  0.
<mgrwt>
<rscale>  2 0.45627352E+03</rscale>
<asrwt>0</asrwt>
<pdfrwt beam="1">  1       21 0.33536767E-01 0.45627352E+03</pdfrwt>
<pdfrwt beam="2">  1       21 0.33562284E-01 0.45627352E+03</pdfrwt>
<totfact> 0.67761420E+04</totfact>
</mgrwt>
</event>
<event>
 6    0  0.1576925E-007  0.4585889E+03  0.7546771E-02  0.1025191E+00
         21   -1    0    0  502  501  0.00000000000E+00  0.00000000000E+00  0.10544310848E+03  0.10544310848E+03  0.00000000000E+00 0.  1.
         21   -1    0    0  501  502 -0.00000000000E+00 -0.00000000000E+00 -0.49861904148E+03  0.49861904148E+03  0.00000000000E+00 0.  1.
      99926    2    1    2    0    0  0.00000000000E+00  0.26645352591E-14 -0.39317593301E+03  0.60406214996E+03  0.45858888639E+03 0.  0.
         25    1    3    3    0    0 -0.77888397997E+02  0.20873867913E+02 -0.71611016203E+02  0.16516042700E+03  0.12509000000E+03 0.  0.
         25    1    3    3    0    0  0.10175733356E+03  0.50423550864E+01 -0.12888528331E+03  0.20649189967E+03  0.12509000000E+03 0.  0.
         25    1    3    3    0    0 -0.23868935560E+02 -0.25916223000E+02 -0.19267963349E+03  0.23240982329E+03  0.12509000000E+03 0.  0.
<mgrwt>
<rscale>  2 0.45858889E+03</rscale>
<asrwt>0</asrwt>
<pdfrwt beam="1">  1       21 0.15506339E-01 0.45858889E+03</pdfrwt>
<pdfrwt beam="2">  1       21 0.73326330E-01 0.45858889E+03</pdfrwt>
<totfact> 0.56801179E+04</totfact>
</mgrwt>
</event>
<event>
 6    0  0.1576925E-007  0.4571012E+03  0.7546771E-02  0.1025625E+00
         21   -1    0    0  502  501  0.00000000000E+00  0.00000000000E+00  0.10468927225E+03  0.10468927225E+03  0.00000000000E+00 0.  1.
         21   -1    0    0  501  502 -0.00000000000E+00 -0.00000000000E+00 -0.49895639477E+03  0.49895639477E+03  0.00000000000E+00 0.  1.
      99926    2    1    2    0    0  0.00000000000E+00  0.35527136788E-14 -0.39426712251E+03  0.60364566702E+03  0.45710122228E+03 0.  0.
         25    1    3    3    0    0  0.13254397843E+02  0.74982329390E+02 -0.38751074044E+02  0.15148327506E+03  0.12509000000E+03 0.  0.
         25    1    3    3    0    0 -0.54542783346E+02 -0.47501956123E+02 -0.19507631329E+03  0.24276249125E+03  0.12509000000E+03 0.  0.
         25    1    3    3    0    0  0.41288385503E+02 -0.27480373267E+02 -0.16043973518E+03  0.20939990071E+03  0.12509000000E+03 0.  0.
<mgrwt>
<rscale>  2 0.45710122E+03</rscale>
<asrwt>0</asrwt>
<pdfrwt beam="1">  1       21 0.15395481E-01 0.45710122E+03</pdfrwt>
<pdfrwt beam="2">  1       21 0.73375942E-01 0.45710122E+03</pdfrwt>
<totfact> 0.57494024E+04</totfact>
</mgrwt>
</event>
<event>
 6    0  0.1576925E-007  0.4512769E+03  0.7546771E-02  0.1027342E+00
         21   -1    0    0  502  501  0.00000000000E+00  0.00000000000E+00  0.99148589855E+02  0.99148589855E+02  0.00000000000E+00 0. -1.
         21   -1    0    0  501  502 -0.00000000000E+00 -0.00000000000E+00 -0.51349899882E+03  0.51349899882E+03  0.00000000000E+00 0. -1.
      99926    2    1    2    0    0  0.00000000000E+00  0.00000000000E+00 -0.41435040897E+03  0.61264758868E+03  0.45127686236E+03 0.  0.
         25    1    3    3    0    0  0.29824283545E+02  0.42637807355E+02 -0.52189503726E+02  0.14518513321E+03  0.12509000000E+03 0.  0.
         25    1    3    3    0    0  0.77733268593E+01 -0.81437875219E+02 -0.12914454620E+03  0.19753069139E+03  0.12509000000E+03 0.  0.
         25    1    3    3    0    0 -0.37597610404E+02  0.38800067864E+02 -0.23301635905E+03  0.26993176408E+03  0.12509000000E+03 0.  0.
<mgrwt>
<rscale>  2 0.45127686E+03</rscale>
<asrwt>0</asrwt>
<pdfrwt beam="1">  1       21 0.14580675E-01 0.45127686E+03</pdfrwt>
<pdfrwt beam="2">  1       21 0.75514558E-01 0.45127686E+03</pdfrwt>
<totfact> 0.59640993E+04</totfact>
</mgrwt>
</event>
<event>
 6    0  0.1576925E-007  0.4566569E+03  0.7546771E-02  0.1025755E+00
         21   -1    0    0  502  501  0.00000000000E+00  0.00000000000E+00  0.16857785284E+04  0.16857785284E+04  0.00000000000E+00 0.  1.
         21   -1    0    0  501  502 -0.00000000000E+00 -0.00000000000E+00 -0.30925700175E+02  0.30925700175E+02  0.00000000000E+00 0.  1.
      99926    2    1    2    0    0 -0.14210854715E-13  0.00000000000E+00  0.16548528283E+04  0.17167042286E+04  0.45665690111E+03 0.  0.
         25    1    3    3    0    0  0.50661240034E+02 -0.59250056576E+02  0.62592350998E+03  0.64304345024E+03  0.12509000000E+03 0.  0.
         25    1    3    3    0    0 -0.95325333583E+02  0.67644400122E+02  0.51157195012E+03  0.53945903676E+03  0.12509000000E+03 0.  0.
         25    1    3    3    0    0  0.44664093549E+02 -0.83943435465E+01  0.51735736816E+03  0.53420174162E+03  0.12509000000E+03 0.  0.
<mgrwt>
<rscale>  2 0.45665690E+03</rscale>
<asrwt>0</asrwt>
<pdfrwt beam="1">  1       21 0.24790855E+00 0.45665690E+03</pdfrwt>
<pdfrwt beam="2">  1       21 0.45478982E-02 0.45665690E+03</pdfrwt>
<totfact> 0.18674853E+04</totfact>
</mgrwt>
</event>
<event>
 6    0  0.1576925E-007  0.4727961E+03  0.7546771E-02  0.1021134E+00
         21   -1    0    0  502  501  0.00000000000E+00  0.00000000000E+00  0.60420129891E+03  0.60420129891E+03  0.00000000000E+00 0. -1.
         21   -1    0    0  501  502 -0.00000000000E+00 -0.00000000000E+00 -0.92492427449E+02  0.92492427449E+02  0.00000000000E+00 0. -1.
      99926    2    1    2    0    0  0.00000000000E+00  0.68278716014E-14  0.51170887146E+03  0.69669372636E+03  0.47279612860E+03 0.  0.
         25    1    3    3    0    0 -0.42763715383E+02 -0.45686840761E+00  0.51046867374E+02  0.14171180209E+03  0.12509000000E+03 0.  0.
         25    1    3    3    0    0  0.23760337381E+02  0.65240831096E+02  0.33872903659E+03  0.36770339678E+03  0.12509000000E+03 0.  0.
         25    1    3    3    0    0  0.19003378002E+02 -0.64783962688E+02  0.12193296750E+03  0.18727852749E+03  0.12509000000E+03 0.  0.
<mgrwt>
<rscale>  2 0.47279613E+03</rscale>
<asrwt>0</asrwt>
<pdfrwt beam="1">  1       21 0.88853130E-01 0.47279613E+03</pdfrwt>
<pdfrwt beam="2">  1       21 0.13601828E-01 0.47279613E+03</pdfrwt>
<totfact> 0.46251934E+04</totfact>
</mgrwt>
</event>
<event>
 6    0  0.1576925E-007  0.4578098E+03  0.7546771E-02  0.1025418E+00
         21   -1    0    0  502  501  0.00000000000E+00  0.00000000000E+00  0.95712782594E+02  0.95712782594E+02  0.00000000000E+00 0. -1.
         21   -1    0    0  501  502 -0.00000000000E+00 -0.00000000000E+00 -0.54744458479E+03  0.54744458479E+03  0.00000000000E+00 0. -1.
      99926    2    1    2    0    0  0.35527136788E-14  0.71054273576E-14 -0.45173180220E+03  0.64315736739E+03  0.45780976192E+03 0.  0.
         25    1    3    3    0    0  0.29342030478E+02 -0.42476174524E+02 -0.98692338872E+02  0.16748989822E+03  0.12509000000E+03 0.  0.
         25    1    3    3    0    0  0.67782131653E+02  0.67342033970E+02 -0.15547092565E+03  0.22124213824E+03  0.12509000000E+03 0.  0.
         25    1    3    3    0    0 -0.97124162132E+02 -0.24865859447E+02 -0.19756853767E+03  0.25442533092E+03  0.12509000000E+03 0.  0.
<mgrwt>
<rscale>  2 0.45780976E+03</rscale>
<asrwt>0</asrwt>
<pdfrwt beam="1">  1       21 0.14075409E-01 0.45780976E+03</pdfrwt>
<pdfrwt beam="2">  1       21 0.80506556E-01 0.45780976E+03</pdfrwt>
<totfact> 0.54870695E+04</totfact>
</mgrwt>
</event>
<event>
 6    0  0.1576925E-007  0.4510106E+03  0.7546771E-02  0.1027421E+00
         21   -1    0    0  502  501  0.00000000000E+00  0.00000000000E+00  0.10871437614E+04  0.10871437614E+04  0.00000000000E+00 0. -1.
         21   -1    0    0  501  502 -0.00000000000E+00 -0.00000000000E+00 -0.46776371543E+02  0.46776371543E+02  0.00000000000E+00 0. -1.
      99926    2    1    2    0    0 -0.71054273576E-14 -0.35527136788E-14  0.10403673899E+04  0.11339201329E+04  0.45101060078E+03 0.  0.
         25    1    3    3    0    0 -0.63277443221E+02 -0.20833289469E+02  0.55805444915E+03  0.57576934365E+03  0.12509000000E+03 0.  0.
         25    1    3    3    0    0  0.68143958484E+01 -0.11998213351E+01  0.32453735366E+03  0.34787911346E+03  0.12509000000E+03 0.  0.
         25    1    3    3    0    0  0.56463047373E+02  0.22033110804E+02  0.15777558706E+03  0.21027167584E+03  0.12509000000E+03 0.  0.
<mgrwt>
<rscale>  2 0.45101060E+03</rscale>
<asrwt>0</asrwt>
<pdfrwt beam="1">  1       21 0.15987407E+00 0.45101060E+03</pdfrwt>
<pdfrwt beam="2">  1       21 0.68788789E-02 0.45101060E+03</pdfrwt>
<totfact> 0.35412277E+04</totfact>
</mgrwt>
</event>
<event>
 6    0  0.1576925E-007  0.4549125E+03  0.7546771E-02  0.1026267E+00
         21   -1    0    0  502  501  0.00000000000E+00  0.00000000000E+00  0.27968464720E+03  0.27968464720E+03  0.00000000000E+00 0.  1.
         21   -1    0    0  501  502 -0.00000000000E+00 -0.00000000000E+00 -0.18498101734E+03  0.18498101734E+03  0.00000000000E+00 0.  1.
      99926    2    1    2    0    0 -0.34416913763E-14  0.00000000000E+00  0.94703629863E+02  0.46466566454E+03  0.45491252159E+03 0.  0.
         25    1    3    3    0    0 -0.99710711002E+00  0.69125682232E+02  0.81871461442E+02  0.16471125786E+03  0.12509000000E+03 0.  0.
         25    1    3    3    0    0 -0.62857875297E+02 -0.75068303774E+02  0.13003102542E+02  0.15938303390E+03  0.12509000000E+03 0.  0.
         25    1    3    3    0    0  0.63854982407E+02  0.59426215423E+01 -0.17093412185E+00  0.14057137279E+03  0.12509000000E+03 0.  0.
<mgrwt>
<rscale>  2 0.45491252E+03</rscale>
<asrwt>0</asrwt>
<pdfrwt beam="1">  1       21 0.41130095E-01 0.45491252E+03</pdfrwt>
<pdfrwt beam="2">  1       21 0.27203091E-01 0.45491252E+03</pdfrwt>
<totfact> 0.67882311E+04</totfact>
</mgrwt>
</event>
<event>
 6    0  0.1576925E-007  0.4588184E+03  0.7546771E-02  0.1025124E+00
         21   -1    0    0  502  501  0.00000000000E+00  0.00000000000E+00  0.43650053283E+02  0.43650053283E+02  0.00000000000E+00 0. -1.
         21   -1    0    0  501  502 -0.00000000000E+00 -0.00000000000E+00 -0.12056934250E+04  0.12056934250E+04  0.00000000000E+00 0. -1.
      99926    2    1    2    0    0  0.00000000000E+00  0.00000000000E+00 -0.11620433717E+04  0.12493434783E+04  0.45881840523E+03 0.  0.
         25    1    3    3    0    0 -0.12600058863E+02  0.57024892917E+02 -0.27277054310E+03  0.30571535319E+03  0.12509000000E+03 0.  0.
         25    1    3    3    0    0  0.17247233904E+02 -0.84477138294E+02 -0.25740438095E+03  0.29889526160E+03  0.12509000000E+03 0.  0.
         25    1    3    3    0    0 -0.46471750406E+01  0.27452245377E+02 -0.63186844765E+03  0.64473286348E+03  0.12509000000E+03 0.  0.
<mgrwt>
<rscale>  2 0.45881841E+03</rscale>
<asrwt>0</asrwt>
<pdfrwt beam="1">  1       21 0.64191250E-02 0.45881841E+03</pdfrwt>
<pdfrwt beam="2">  1       21 0.17730787E+00 0.45881841E+03</pdfrwt>
<totfact> 0.29728533E+04</totfact>
</mgrwt>
</event>
<event>
 6    0  0.1576925E-007  0.4526145E+03  0.7546771E-02  0.1026945E+00
         21   -1    0    0  502  501  0.00000000000E+00  0.00000000000E+00  0.32462058081E+03  0.32462058081E+03  0.00000000000E+00 0.  1.
         21   -1    0    0  501  502 -0.00000000000E+00 -0.00000000000E+00 -0.15776873689E+03  0.15776873689E+03  0.00000000000E+00 0.  1.
      99926    2    1    2    0    0  0.26645352591E-14  0.35527136788E-14  0.16685184393E+03  0.48238931770E+03  0.45261453359E+03 0.  0.
         25    1    3    3    0    0 -0.61683982295E+01  0.27284855967E+02  0.86068893340E+02  0.15439519100E+03  0.12509000000E+03 0.  0.
         25    1    3    3    0    0  0.79241971116E+02  0.42691237212E+02  0.17452004204E+02  0.15509323735E+03  0.12509000000E+03 0.  0.
         25    1    3    3    0    0 -0.73073572887E+02 -0.69976093179E+02  0.63330946382E+02  0.17290088936E+03  0.12509000000E+03 0.  0.
<mgrwt>
<rscale>  2 0.45261453E+03</rscale>
<asrwt>0</asrwt>
<pdfrwt beam="1">  1       21 0.47738321E-01 0.45261453E+03</pdfrwt>
<pdfrwt beam="2">  1       21 0.23201285E-01 0.45261453E+03</pdfrwt>
<totfact> 0.67801425E+04</totfact>
</mgrwt>
</event>
<event>
 6    0  0.1576925E-007  0.4480262E+03  0.7546771E-02  0.1028312E+00
         21   -1    0    0  502  501  0.00000000000E+00  0.00000000000E+00  0.24814309816E+03  0.24814309816E+03  0.00000000000E+00 0.  1.
         21   -1    0    0  501  502 -0.00000000000E+00 -0.00000000000E+00 -0.20222953557E+03  0.20222953557E+03  0.00000000000E+00 0.  1.
      99926    2    1    2    0    0  0.35527136788E-14 -0.71054273576E-14  0.45913562597E+02  0.45037263373E+03  0.44802617556E+03 0.  0.
         25    1    3    3    0    0  0.74239520729E+02 -0.12818889885E+02 -0.12577643660E+02  0.14656580637E+03  0.12509000000E+03 0.  0.
         25    1    3    3    0    0 -0.93235650821E+02 -0.21686647068E+02 -0.60715190122E+01  0.15763111586E+03  0.12509000000E+03 0.  0.
         25    1    3    3    0    0  0.18996130092E+02  0.34505536954E+02  0.64562725269E+02  0.14617571150E+03  0.12509000000E+03 0.  0.
<mgrwt>
<rscale>  2 0.44802618E+03</rscale>
<asrwt>0</asrwt>
<pdfrwt beam="1">  1       21 0.36491632E-01 0.44802618E+03</pdfrwt>
<pdfrwt beam="2">  1       21 0.29739638E-01 0.44802618E+03</pdfrwt>
<totfact> 0.72856288E+04</totfact>
</mgrwt>
</event>
<event>
 6    0  0.1576925E-007  0.4674907E+03  0.7546771E-02  0.1022631E+00
         21   -1    0    0  502  501  0.00000000000E+00  0.00000000000E+00  0.98759559905E+02  0.98759559905E+02  0.00000000000E+00 0. -1.
         21   -1    0    0  501  502 -0.00000000000E+00 -0.00000000000E+00 -0.55323130364E+03  0.55323130364E+03  0.00000000000E+00 0. -1.
      99926    2    1    2    0    0 -0.71054273576E-14 -0.35527136788E-14 -0.45447174374E+03  0.65199086355E+03  0.46749066332E+03 0.  0.
         25    1    3    3    0    0  0.40684127062E+02 -0.27874404750E+02 -0.22541526017E+03  0.26247233807E+03  0.12509000000E+03 0.  0.
         25    1    3    3    0    0 -0.24235512453E+01 -0.77415409918E+02 -0.10600344241E+03  0.18133741257E+03  0.12509000000E+03 0.  0.
         25    1    3    3    0    0 -0.38260575817E+02  0.10528981467E+03 -0.12305304116E+03  0.20818111291E+03  0.12509000000E+03 0.  0.
<mgrwt>
<rscale>  2 0.46749066E+03</rscale>
<asrwt>0</asrwt>
<pdfrwt beam="1">  1       21 0.14523465E-01 0.46749066E+03</pdfrwt>
<pdfrwt beam="2">  1       21 0.81357545E-01 0.46749066E+03</pdfrwt>
<totfact> 0.50430597E+04</totfact>
</mgrwt>
</event>
<event>
 6    0  0.1576925E-007  0.4673760E+03  0.7546771E-02  0.1022663E+00
         21   -1    0    0  502  501  0.00000000000E+00  0.00000000000E+00  0.18730207644E+03  0.18730207644E+03  0.00000000000E+00 0.  1.
         21   -1    0    0  501  502 -0.00000000000E+00 -0.00000000000E+00 -0.29156157768E+03  0.29156157768E+03  0.00000000000E+00 0.  1.
      99926    2    1    2    0    0 -0.35527136788E-14  0.71054273576E-14 -0.10425950124E+03  0.47886365412E+03  0.46737603237E+03 0.  0.
         25    1    3    3    0    0 -0.98076713152E+01  0.58841816212E+02 -0.10627008446E+02  0.13899277377E+03  0.12509000000E+03 0.  0.
         25    1    3    3    0    0  0.85120886616E+02 -0.14508589197E+02  0.14735912498E+02  0.15271122983E+03  0.12509000000E+03 0.  0.
         25    1    3    3    0    0 -0.75313215301E+02 -0.44333227015E+02 -0.10836840529E+03  0.18715965052E+03  0.12509000000E+03 0.  0.
<mgrwt>
<rscale>  2 0.46737603E+03</rscale>
<asrwt>0</asrwt>
<pdfrwt beam="1">  1       21 0.27544423E-01 0.46737603E+03</pdfrwt>
<pdfrwt beam="2">  1       21 0.42876703E-01 0.46737603E+03</pdfrwt>
<totfact> 0.60608036E+04</totfact>
</mgrwt>
</event>
<event>
 6    0  0.1576925E-007  0.4540139E+03  0.7546771E-02  0.1026532E+00
         21   -1    0    0  502  501  0.00000000000E+00  0.00000000000E+00  0.63871737005E+03  0.63871737005E+03  0.00000000000E+00 0. -1.
         21   -1    0    0  501  502 -0.00000000000E+00 -0.00000000000E+00 -0.80680698130E+02  0.80680698130E+02  0.00000000000E+00 0. -1.
      99926    2    1    2    0    0  0.71054273576E-14  0.00000000000E+00  0.55803667192E+03  0.71939806818E+03  0.45401393513E+03 0.  0.
         25    1    3    3    0    0 -0.37621045579E+02  0.89344400957E+01  0.23242330591E+03  0.26676444389E+03  0.12509000000E+03 0.  0.
         25    1    3    3    0    0 -0.41301357756E+02  0.77517243477E+01  0.25665372506E+03  0.28859059941E+03  0.12509000000E+03 0.  0.
         25    1    3    3    0    0  0.78922403335E+02 -0.16686164443E+02  0.68959640948E+02  0.16404302488E+03  0.12509000000E+03 0.  0.
<mgrwt>
<rscale>  2 0.45401394E+03</rscale>
<asrwt>0</asrwt>
<pdfrwt beam="1">  1       21 0.93929022E-01 0.45401394E+03</pdfrwt>
<pdfrwt beam="2">  1       21 0.11864809E-01 0.45401394E+03</pdfrwt>
<totfact> 0.52266636E+04</totfact>
</mgrwt>
</event>
<event>
 6    0  0.1576925E-007  0.4546276E+03  0.7546771E-02  0.1026351E+00
         21   -1    0    0  502  501  0.00000000000E+00  0.00000000000E+00  0.36956573440E+03  0.36956573440E+03  0.00000000000E+00 0. -1.
         21   -1    0    0  501  502 -0.00000000000E+00 -0.00000000000E+00 -0.13981699564E+03  0.13981699564E+03  0.00000000000E+00 0. -1.
      99926    2    1    2    0    0  0.35527136788E-14 -0.35527136788E-14  0.22974873876E+03  0.50938273005E+03  0.45462763082E+03 0.  0.
         25    1    3    3    0    0 -0.55544792556E+02 -0.27945543380E+02 -0.11969636134E+02  0.14020327266E+03  0.12509000000E+03 0.  0.
         25    1    3    3    0    0  0.25679318953E+02  0.27857965085E+02  0.18988802622E+03  0.23052215564E+03  0.12509000000E+03 0.  0.
         25    1    3    3    0    0  0.29865473604E+02  0.87578295265E-01  0.51830348672E+02  0.13865730174E+03  0.12509000000E+03 0.  0.
<mgrwt>
<rscale>  2 0.45462763E+03</rscale>
<asrwt>0</asrwt>
<pdfrwt beam="1">  1       21 0.54347902E-01 0.45462763E+03</pdfrwt>
<pdfrwt beam="2">  1       21 0.20561323E-01 0.45462763E+03</pdfrwt>
<totfact> 0.64807707E+04</totfact>
</mgrwt>
</event>
<event>
 6    0  0.1576925E-007  0.4539854E+03  0.7546771E-02  0.1026540E+00
         21   -1    0    0  502  501  0.00000000000E+00  0.00000000000E+00  0.28772308043E+03  0.28772308043E+03  0.00000000000E+00 0.  1.
         21   -1    0    0  501  502 -0.00000000000E+00 -0.00000000000E+00 -0.17908081831E+03  0.17908081831E+03  0.00000000000E+00 0.  1.
      99926    2    1    2    0    0  0.00000000000E+00  0.00000000000E+00  0.10864226212E+03  0.46680389874E+03  0.45398539488E+03 0.  0.
         25    1    3    3    0    0 -0.40214169970E+02 -0.48179204629E+02 -0.38895167067E+02  0.14525411301E+03  0.12509000000E+03 0.  0.
         25    1    3    3    0    0  0.29584855032E+02 -0.32492291140E+02  0.95940540531E+02  0.16365545530E+03  0.12509000000E+03 0.  0.
         25    1    3    3    0    0  0.10629314938E+02  0.80671495769E+02  0.51596888653E+02  0.15789433044E+03  0.12509000000E+03 0.  0.
<mgrwt>
<rscale>  2 0.45398539E+03</rscale>
<asrwt>0</asrwt>
<pdfrwt beam="1">  1       21 0.42312218E-01 0.45398539E+03</pdfrwt>
<pdfrwt beam="2">  1       21 0.26335414E-01 0.45398539E+03</pdfrwt>
<totfact> 0.68221731E+04</totfact>
</mgrwt>
</event>
<event>
 6    0  0.1576925E-007  0.4411864E+03  0.7546771E-02  0.1030383E+00
         21   -1    0    0  502  501  0.00000000000E+00  0.00000000000E+00  0.27400479950E+03  0.27400479950E+03  0.00000000000E+00 0.  1.
         21   -1    0    0  501  502 -0.00000000000E+00 -0.00000000000E+00 -0.17759306604E+03  0.17759306604E+03  0.00000000000E+00 0.  1.
      99926    2    1    2    0    0  0.35527136788E-14  0.00000000000E+00  0.96411733457E+02  0.45159786554E+03  0.44118636630E+03 0.  0.
         25    1    3    3    0    0 -0.17867499278E+02  0.31020691954E+01  0.10760859150E+03  0.16599996213E+03  0.12509000000E+03 0.  0.
         25    1    3    3    0    0 -0.37930307897E+02  0.43796341844E+02  0.14289328355E+02  0.13859480806E+03  0.12509000000E+03 0.  0.
         25    1    3    3    0    0  0.55797807174E+02 -0.46898411040E+02 -0.25486186401E+02  0.14700309534E+03  0.12509000000E+03 0.  0.
<mgrwt>
<rscale>  2 0.44118637E+03</rscale>
<asrwt>0</asrwt>
<pdfrwt beam="1">  1       21 0.40294824E-01 0.44118637E+03</pdfrwt>
<pdfrwt beam="2">  1       21 0.26116627E-01 0.44118637E+03</pdfrwt>
<totfact> 0.76917831E+04</totfact>
</mgrwt>
</event>
<event>
 6    0  0.1576925E-007  0.4831653E+03  0.7546771E-02  0.1018269E+00
         21   -1    0    0  502  501  0.00000000000E+00  0.00000000000E+00  0.30871005916E+02  0.30871005916E+02  0.00000000000E+00 0. -1.
         21   -1    0    0  501  502 -0.00000000000E+00 -0.00000000000E+00 -0.18905174285E+04  0.18905174285E+04  0.00000000000E+00 0. -1.
      99926    2    1    2    0    0  0.00000000000E+00  0.71054273576E-14 -0.18596464225E+04  0.19213884344E+04  0.48316529146E+03 0.  0.
         25    1    3    3    0    0 -0.42917300222E+02 -0.56121537973E+02 -0.51459132964E+03  0.53426890825E+03  0.12509000000E+03 0.  0.
         25    1    3    3    0    0  0.32744485503E+02  0.43353900316E+02 -0.11268515306E+04  0.11350742892E+04  0.12509000000E+03 0.  0.
         25    1    3    3    0    0  0.10172814718E+02  0.12767637657E+02 -0.21820356234E+03  0.25204523691E+03  0.12509000000E+03 0.  0.
<mgrwt>
<rscale>  2 0.48316529E+03</rscale>
<asrwt>0</asrwt>
<pdfrwt beam="1">  1       21 0.45398548E-02 0.48316529E+03</pdfrwt>
<pdfrwt beam="2">  1       21 0.27801721E+00 0.48316529E+03</pdfrwt>
<totfact> 0.12153610E+04</totfact>
</mgrwt>
</event>
<event>
 6    0  0.1576925E-007  0.4589454E+03  0.7546771E-02  0.1025088E+00
         21   -1    0    0  502  501  0.00000000000E+00  0.00000000000E+00  0.32189854561E+03  0.32189854561E+03  0.00000000000E+00 0. -1.
         21   -1    0    0  501  502 -0.00000000000E+00 -0.00000000000E+00 -0.16358481468E+03  0.16358481468E+03  0.00000000000E+00 0. -1.
      99926    2    1    2    0    0  0.00000000000E+00  0.00000000000E+00  0.15831373092E+03  0.48548336029E+03  0.45894537335E+03 0.  0.
         25    1    3    3    0    0 -0.70114803583E+02 -0.19016624261E+01 -0.38725204915E+02  0.14854915549E+03  0.12509000000E+03 0.  0.
         25    1    3    3    0    0  0.71923873561E+02 -0.12023165724E+02  0.81949667805E+02  0.16637564802E+03  0.12509000000E+03 0.  0.
         25    1    3    3    0    0 -0.18090699779E+01  0.13924828150E+02  0.11508926803E+03  0.17055855678E+03  0.12509000000E+03 0.  0.
<mgrwt>
<rscale>  2 0.45894537E+03</rscale>
<asrwt>0</asrwt>
<pdfrwt beam="1">  1       21 0.47338022E-01 0.45894537E+03</pdfrwt>
<pdfrwt beam="2">  1       21 0.24056590E-01 0.45894537E+03</pdfrwt>
<totfact> 0.64266613E+04</totfact>
</mgrwt>
</event>
<event>
 6    0  0.1576925E-007  0.4445913E+03  0.7546771E-02  0.1029347E+00
         21   -1    0    0  502  501  0.00000000000E+00  0.00000000000E+00  0.72548343484E+02  0.72548343484E+02  0.00000000000E+00 0.  1.
         21   -1    0    0  501  502 -0.00000000000E+00 -0.00000000000E+00 -0.68113698466E+03  0.68113698466E+03  0.00000000000E+00 0.  1.
      99926    2    1    2    0    0  0.00000000000E+00  0.35527136788E-14 -0.60858864118E+03  0.75368532815E+03  0.44459131761E+03 0.  0.
         25    1    3    3    0    0 -0.19810855602E+02 -0.14033173671E+02 -0.10519689184E+03  0.16523708456E+03  0.12509000000E+03 0.  0.
         25    1    3    3    0    0 -0.29900316139E+02 -0.81311961057E+01 -0.39101445949E+03  0.41170372950E+03  0.12509000000E+03 0.  0.
         25    1    3    3    0    0  0.49711171741E+02  0.22164369777E+02 -0.11237728985E+03  0.17674451408E+03  0.12509000000E+03 0.  0.
<mgrwt>
<rscale>  2 0.44459132E+03</rscale>
<asrwt>0</asrwt>
<pdfrwt beam="1">  1       21 0.10668874E-01 0.44459132E+03</pdfrwt>
<pdfrwt beam="2">  1       21 0.10016720E+00 0.44459132E+03</pdfrwt>
<totfact> 0.54397198E+04</totfact>
</mgrwt>
</event>
<event>
 6    0  0.1576925E-007  0.4725607E+03  0.7546771E-02  0.1021200E+00
         21   -1    0    0  502  501  0.00000000000E+00  0.00000000000E+00  0.61927937768E+03  0.61927937768E+03  0.00000000000E+00 0. -1.
         21   -1    0    0  501  502 -0.00000000000E+00 -0.00000000000E+00 -0.90150606752E+02  0.90150606752E+02  0.00000000000E+00 0. -1.
      99926    2    1    2    0    0  0.00000000000E+00  0.00000000000E+00  0.52912877093E+03  0.70942998444E+03  0.47256073323E+03 0.  0.
         25    1    3    3    0    0 -0.11906909774E+02  0.69650977591E+02  0.13350817626E+03  0.19612489492E+03  0.12509000000E+03 0.  0.
         25    1    3    3    0    0  0.41118377798E+02  0.87484141894E+00  0.55382343975E+02  0.14285026589E+03  0.12509000000E+03 0.  0.
         25    1    3    3    0    0 -0.29211468024E+02 -0.70525819010E+02  0.34023825069E+03  0.37045482362E+03  0.12509000000E+03 0.  0.
<mgrwt>
<rscale>  2 0.47256073E+03</rscale>
<asrwt>0</asrwt>
<pdfrwt beam="1">  1       21 0.91070495E-01 0.47256073E+03</pdfrwt>
<pdfrwt beam="2">  1       21 0.13257442E-01 0.47256073E+03</pdfrwt>
<totfact> 0.45737242E+04</totfact>
</mgrwt>
</event>
<event>
 6    0  0.1576925E-007  0.4550717E+03  0.7546771E-02  0.1026220E+00
         21   -1    0    0  502  501  0.00000000000E+00  0.00000000000E+00  0.20964308703E+03  0.20964308703E+03  0.00000000000E+00 0. -1.
         21   -1    0    0  501  502 -0.00000000000E+00 -0.00000000000E+00 -0.24695574372E+03  0.24695574372E+03  0.00000000000E+00 0. -1.
      99926    2    1    2    0    0  0.35527136788E-14 -0.35527136788E-14 -0.37312656694E+02  0.45659883074E+03  0.45507170631E+03 0.  0.
         25    1    3    3    0    0 -0.70665302037E+02 -0.32292175324E+02 -0.97551396169E+02  0.17663564899E+03  0.12509000000E+03 0.  0.
         25    1    3    3    0    0  0.57784564090E+02  0.36003350848E+01  0.55297835335E+00  0.13783987864E+03  0.12509000000E+03 0.  0.
         25    1    3    3    0    0  0.12880737947E+02  0.28691840239E+02  0.59685761122E+02  0.14212330311E+03  0.12509000000E+03 0.  0.
<mgrwt>
<rscale>  2 0.45507171E+03</rscale>
<asrwt>0</asrwt>
<pdfrwt beam="1">  1       21 0.30829866E-01 0.45507171E+03</pdfrwt>
<pdfrwt beam="2">  1       21 0.36317021E-01 0.45507171E+03</pdfrwt>
<totfact> 0.68389717E+04</totfact>
</mgrwt>
</event>
<event>
 6    0  0.1576925E-007  0.4563998E+03  0.7546771E-02  0.1025831E+00
         21   -1    0    0  502  501  0.00000000000E+00  0.00000000000E+00  0.49312234295E+03  0.49312234295E+03  0.00000000000E+00 0.  1.
         21   -1    0    0  501  502 -0.00000000000E+00 -0.00000000000E+00 -0.10560298470E+03  0.10560298470E+03  0.00000000000E+00 0.  1.
      99926    2    1    2    0    0 -0.17763568394E-14 -0.44408920985E-15  0.38751935825E+03  0.59872532765E+03  0.45639978632E+03 0.  0.
         25    1    3    3    0    0 -0.28376923029E+02  0.19574537921E+02  0.45633145122E+02  0.13754382694E+03  0.12509000000E+03 0.  0.
         25    1    3    3    0    0  0.34085188765E+02 -0.15630707855E+02  0.30309592245E+03  0.33003146127E+03  0.12509000000E+03 0.  0.
         25    1    3    3    0    0 -0.57082657356E+01 -0.39438300664E+01  0.38790290672E+02  0.13115003943E+03  0.12509000000E+03 0.  0.
<mgrwt>
<rscale>  2 0.45639979E+03</rscale>
<asrwt>0</asrwt>
<pdfrwt beam="1">  1       21 0.72517990E-01 0.45639979E+03</pdfrwt>
<pdfrwt beam="2">  1       21 0.15529851E-01 0.45639979E+03</pdfrwt>
<totfact> 0.58111379E+04</totfact>
</mgrwt>
</event>
<event>
 6    0  0.1576925E-007  0.4307711E+03  0.7546771E-02  0.1033617E+00
         21   -1    0    0  502  501  0.00000000000E+00  0.00000000000E+00  0.14944861107E+03  0.14944861107E+03  0.00000000000E+00 0. -1.
         21   -1    0    0  501  502 -0.00000000000E+00 -0.00000000000E+00 -0.31041394600E+03  0.31041394600E+03  0.00000000000E+00 0. -1.
      99926    2    1    2    0    0  0.00000000000E+00  0.00000000000E+00 -0.16096533493E+03  0.45986255707E+03  0.43077109043E+03 0.  0.
         25    1    3    3    0    0  0.13341192967E+01 -0.90698235448E+01  0.29308542560E+02  0.12880427144E+03  0.12509000000E+03 0.  0.
         25    1    3    3    0    0  0.26034245075E+02 -0.21587557333E+02 -0.13825236900E+03  0.18948622689E+03  0.12509000000E+03 0.  0.
         25    1    3    3    0    0 -0.27368364372E+02  0.30657380878E+02 -0.52021508490E+02  0.14157205874E+03  0.12509000000E+03 0.  0.
<mgrwt>
<rscale>  2 0.43077109E+03</rscale>
<asrwt>0</asrwt>
<pdfrwt beam="1">  1       21 0.21977737E-01 0.43077109E+03</pdfrwt>
<pdfrwt beam="2">  1       21 0.45649110E-01 0.43077109E+03</pdfrwt>
<totfact> 0.83053244E+04</totfact>
</mgrwt>
</event>
<event>
 6    0  0.1576925E-007  0.4528028E+03  0.7546771E-02  0.1026890E+00
         21   -1    0    0  502  501  0.00000000000E+00  0.00000000000E+00  0.15672128164E+03  0.15672128164E+03  0.00000000000E+00 0.  1.
         21   -1    0    0  501  502 -0.00000000000E+00 -0.00000000000E+00 -0.32706209989E+03  0.32706209989E+03  0.00000000000E+00 0.  1.
      99926    2    1    2    0    0  0.35527136788E-14  0.00000000000E+00 -0.17034081825E+03  0.48378338152E+03  0.45280278917E+03 0.  0.
         25    1    3    3    0    0 -0.64617434963E+01  0.65203453608E+01 -0.11505559017E+03  0.17020448279E+03  0.12509000000E+03 0.  0.
         25    1    3    3    0    0 -0.12149067019E+02 -0.48452215725E+02 -0.10560288012E+03  0.17115692632E+03  0.12509000000E+03 0.  0.
         25    1    3    3    0    0  0.18610810515E+02  0.41931870364E+02  0.50317652040E+02  0.14242197242E+03  0.12509000000E+03 0.  0.
<mgrwt>
<rscale>  2 0.45280279E+03</rscale>
<asrwt>0</asrwt>
<pdfrwt beam="1">  1       21 0.23047247E-01 0.45280279E+03</pdfrwt>
<pdfrwt beam="2">  1       21 0.48097367E-01 0.45280279E+03</pdfrwt>
<totfact> 0.67597090E+04</totfact>
</mgrwt>
</event>
<event>
 6    0  0.1576925E-007  0.4538126E+03  0.7546771E-02  0.1026591E+00
         21   -1    0    0  502  501  0.00000000000E+00  0.00000000000E+00  0.94247681661E+02  0.94247681661E+02  0.00000000000E+00 0.  1.
         21   -1    0    0  501  502 -0.00000000000E+00 -0.00000000000E+00 -0.54628904019E+03  0.54628904019E+03  0.00000000000E+00 0.  1.
      99926    2    1    2    0    0  0.00000000000E+00  0.14210854715E-13 -0.45204135852E+03  0.64053672185E+03  0.45381262897E+03 0.  0.
         25    1    3    3    0    0  0.22607001006E+02 -0.32749862020E+02 -0.58254217459E+02  0.14361299352E+03  0.12509000000E+03 0.  0.
         25    1    3    3    0    0  0.40362598113E+02 -0.31396021059E+02 -0.11090065018E+03  0.17481793894E+03  0.12509000000E+03 0.  0.
         25    1    3    3    0    0 -0.62969599119E+02  0.64145883079E+02 -0.28288649089E+03  0.32210578938E+03  0.12509000000E+03 0.  0.
<mgrwt>
<rscale>  2 0.45381263E+03</rscale>
<asrwt>0</asrwt>
<pdfrwt beam="1">  1       21 0.13859953E-01 0.45381263E+03</pdfrwt>
<pdfrwt beam="2">  1       21 0.80336625E-01 0.45381263E+03</pdfrwt>
<totfact> 0.56780144E+04</totfact>
</mgrwt>
</event>
<event>
 6    0  0.1576925E-007  0.4612209E+03  0.7546771E-02  0.1024428E+00
         21   -1    0    0  502  501  0.00000000000E+00  0.00000000000E+00  0.15945244258E+03  0.15945244258E+03  0.00000000000E+00 0.  1.
         21   -1    0    0  501  502 -0.00000000000E+00 -0.00000000000E+00 -0.33352375770E+03  0.33352375770E+03  0.00000000000E+00 0.  1.
      99926    2    1    2    0    0  0.00000000000E+00 -0.71054273576E-14 -0.17407131512E+03  0.49297620028E+03  0.46122089208E+03 0.  0.
         25    1    3    3    0    0  0.89683415978E+02  0.41228469691E+02 -0.92907593423E+02  0.18445116110E+03  0.12509000000E+03 0.  0.
         25    1    3    3    0    0 -0.81473798716E+02  0.29373460654E+02 -0.25544429122E+02  0.15427509853E+03  0.12509000000E+03 0.  0.
         25    1    3    3    0    0 -0.82096172626E+01 -0.70601930345E+02 -0.55619292577E+02  0.15424994065E+03  0.12509000000E+03 0.  0.
<mgrwt>
<rscale>  2 0.46122089E+03</rscale>
<asrwt>0</asrwt>
<pdfrwt beam="1">  1       21 0.23448889E-01 0.46122089E+03</pdfrwt>
<pdfrwt beam="2">  1       21 0.49047610E-01 0.46122089E+03</pdfrwt>
<totfact> 0.62617003E+04</totfact>
</mgrwt>
</event>
<event>
 6    0  0.1576925E-007  0.4681740E+03  0.7546771E-02  0.1022437E+00
         21   -1    0    0  502  501  0.00000000000E+00  0.00000000000E+00  0.64576620671E+03  0.64576620671E+03  0.00000000000E+00 0. -1.
         21   -1    0    0  501  502 -0.00000000000E+00 -0.00000000000E+00 -0.84855364938E+02  0.84855364938E+02  0.00000000000E+00 0. -1.
      99926    2    1    2    0    0  0.35527136788E-14  0.00000000000E+00  0.56091084177E+03  0.73062157165E+03  0.46817401524E+03 0.  0.
         25    1    3    3    0    0 -0.47471916818E+02  0.26236374014E+02  0.87839877281E+02  0.16218903276E+03  0.12509000000E+03 0.  0.
         25    1    3    3    0    0  0.77273865139E+02 -0.20377833967E+02  0.38456038785E+03  0.41221439368E+03  0.12509000000E+03 0.  0.
         25    1    3    3    0    0 -0.29801948322E+02 -0.58585400466E+01  0.88510576640E+02  0.15621814521E+03  0.12509000000E+03 0.  0.
<mgrwt>
<rscale>  2 0.46817402E+03</rscale>
<asrwt>0</asrwt>
<pdfrwt beam="1">  1       21 0.94965616E-01 0.46817402E+03</pdfrwt>
<pdfrwt beam="2">  1       21 0.12478730E-01 0.46817402E+03</pdfrwt>
<totfact> 0.46286978E+04</totfact>
</mgrwt>
</event>
<event>
 6    0  0.1576925E-007  0.4891000E+03  0.7546771E-02  0.1016664E+00
         21   -1    0    0  502  501  0.00000000000E+00  0.00000000000E+00  0.59741778513E+03  0.59741778513E+03  0.00000000000E+00 0.  1.
         21   -1    0    0  501  502 -0.00000000000E+00 -0.00000000000E+00 -0.10010534699E+03  0.10010534699E+03  0.00000000000E+00 0.  1.
      99926    2    1    2    0    0 -0.71054273576E-14  0.35527136788E-14  0.49731243813E+03  0.69752313212E+03  0.48910004981E+03 0.  0.
         25    1    3    3    0    0 -0.78106640507E+02  0.24905068162E+02  0.56593340925E+02  0.15991004987E+03  0.12509000000E+03 0.  0.
         25    1    3    3    0    0 -0.34837139165E+02  0.13196638161E+02  0.14480103261E+03  0.19494261892E+03  0.12509000000E+03 0.  0.
         25    1    3    3    0    0  0.11294377967E+03 -0.38101706323E+02  0.29591806459E+03  0.34267046334E+03  0.12509000000E+03 0.  0.
<mgrwt>
<rscale>  2 0.48910005E+03</rscale>
<asrwt>0</asrwt>
<pdfrwt beam="1">  1       21 0.87855555E-01 0.48910005E+03</pdfrwt>
<pdfrwt beam="2">  1       21 0.14721375E-01 0.48910005E+03</pdfrwt>
<totfact> 0.40894777E+04</totfact>
</mgrwt>
</event>
<event>
 6    0  0.1576925E-007  0.4514851E+03  0.7546771E-02  0.1027280E+00
         21   -1    0    0  502  501  0.00000000000E+00  0.00000000000E+00  0.27523955322E+03  0.27523955322E+03  0.00000000000E+00 0.  1.
         21   -1    0    0  501  502 -0.00000000000E+00 -0.00000000000E+00 -0.18514671992E+03  0.18514671992E+03  0.00000000000E+00 0.  1.
      99926    2    1    2    0    0 -0.88817841970E-15  0.00000000000E+00  0.90092833303E+02  0.46038627313E+03  0.45148510704E+03 0.  0.
         25    1    3    3    0    0  0.75556926664E+01  0.24619476129E+02 -0.67130291905E+02  0.14428163878E+03  0.12509000000E+03 0.  0.
         25    1    3    3    0    0  0.24029861622E+02 -0.59146072490E+02  0.74025755372E+02  0.15875456749E+03  0.12509000000E+03 0.  0.
         25    1    3    3    0    0 -0.31585554288E+02  0.34526596361E+02  0.83197369836E+02  0.15735006687E+03  0.12509000000E+03 0.  0.
<mgrwt>
<rscale>  2 0.45148511E+03</rscale>
<asrwt>0</asrwt>
<pdfrwt beam="1">  1       21 0.40476405E-01 0.45148511E+03</pdfrwt>
<pdfrwt beam="2">  1       21 0.27227459E-01 0.45148511E+03</pdfrwt>
<totfact> 0.70092142E+04</totfact>
</mgrwt>
</event>
<event>
 6    0  0.1576925E-007  0.4569068E+03  0.7546771E-02  0.1025682E+00
         21   -1    0    0  502  501  0.00000000000E+00  0.00000000000E+00  0.35485248203E+03  0.35485248203E+03  0.00000000000E+00 0. -1.
         21   -1    0    0  501  502 -0.00000000000E+00 -0.00000000000E+00 -0.14707787262E+03  0.14707787262E+03  0.00000000000E+00 0. -1.
      99926    2    1    2    0    0 -0.17763568394E-14  0.00000000000E+00  0.20777460941E+03  0.50193035465E+03  0.45690676577E+03 0.  0.
         25    1    3    3    0    0  0.55987844585E+01  0.41111262261E+02  0.16328577954E+03  0.20983621273E+03  0.12509000000E+03 0.  0.
         25    1    3    3    0    0 -0.12226711198E+02 -0.89036301990E+02  0.32670313837E+02  0.15745416173E+03  0.12509000000E+03 0.  0.
         25    1    3    3    0    0  0.66279267397E+01  0.47925039729E+02  0.11818516036E+02  0.13463998020E+03  0.12509000000E+03 0.  0.
<mgrwt>
<rscale>  2 0.45690677E+03</rscale>
<asrwt>0</asrwt>
<pdfrwt beam="1">  1       21 0.52184188E-01 0.45690677E+03</pdfrwt>
<pdfrwt beam="2">  1       21 0.21629099E-01 0.45690677E+03</pdfrwt>
<totfact> 0.64158656E+04</totfact>
</mgrwt>
</event>
<event>
 6    0  0.1576925E-007  0.4591961E+03  0.7546771E-02  0.1025015E+00
         21   -1    0    0  502  501  0.00000000000E+00  0.00000000000E+00  0.11461701096E+03  0.11461701096E+03  0.00000000000E+00 0.  1.
         21   -1    0    0  501  502 -0.00000000000E+00 -0.00000000000E+00 -0.45992528430E+03  0.45992528430E+03  0.00000000000E+00 0.  1.
      99926    2    1    2    0    0  0.00000000000E+00  0.35527136788E-14 -0.34530827334E+03  0.57454229526E+03  0.45919608601E+03 0.  0.
         25    1    3    3    0    0 -0.88277311096E+02  0.27665408150E+02 -0.12015136802E+03  0.19657598480E+03  0.12509000000E+03 0.  0.
         25    1    3    3    0    0 -0.15154285542E+02 -0.33763414457E+02 -0.15060624200E+03  0.19924700439E+03  0.12509000000E+03 0.  0.
         25    1    3    3    0    0  0.10343159664E+03  0.60980063067E+01 -0.74550663313E+02  0.17871930608E+03  0.12509000000E+03 0.  0.
<mgrwt>
<rscale>  2 0.45919609E+03</rscale>
<asrwt>0</asrwt>
<pdfrwt beam="1">  1       21 0.16855443E-01 0.45919609E+03</pdfrwt>
<pdfrwt beam="2">  1       21 0.67636070E-01 0.45919609E+03</pdfrwt>
<totfact> 0.58314285E+04</totfact>
</mgrwt>
</event>
<event>
 6    0  0.1576925E-007  0.4578974E+03  0.7546771E-02  0.1025393E+00
         21   -1    0    0  502  501  0.00000000000E+00  0.00000000000E+00  0.14862129394E+04  0.14862129394E+04  0.00000000000E+00 0.  1.
         21   -1    0    0  501  502 -0.00000000000E+00 -0.00000000000E+00 -0.35269178687E+02  0.35269178687E+02  0.00000000000E+00 0.  1.
      99926    2    1    2    0    0  0.00000000000E+00  0.00000000000E+00  0.14509437608E+04  0.15214821181E+04  0.45789741091E+03 0.  0.
         25    1    3    3    0    0 -0.39835526629E+02  0.10084128055E+03  0.49383151649E+03  0.52083865814E+03  0.12509000000E+03 0.  0.
         25    1    3    3    0    0 -0.32076836041E+01  0.69610212874E+00  0.40275597050E+03  0.42174714423E+03  0.12509000000E+03 0.  0.
         25    1    3    3    0    0  0.43043210233E+02 -0.10153738267E+03  0.55435627377E+03  0.57889631575E+03  0.12509000000E+03 0.  0.
<mgrwt>
<rscale>  2 0.45789741E+03</rscale>
<asrwt>0</asrwt>
<pdfrwt beam="1">  1       21 0.21856068E+00 0.45789741E+03</pdfrwt>
<pdfrwt beam="2">  1       21 0.51866449E-02 0.45789741E+03</pdfrwt>
<totfact> 0.22741423E+04</totfact>
</mgrwt>
</event>
<event>
 6    0  0.1576925E-007  0.4544264E+03  0.7546771E-02  0.1026410E+00
         21   -1    0    0  502  501  0.00000000000E+00  0.00000000000E+00  0.71836279881E+03  0.71836279881E+03  0.00000000000E+00 0. -1.
         21   -1    0    0  501  502 -0.00000000000E+00 -0.00000000000E+00 -0.71865957452E+02  0.71865957452E+02  0.00000000000E+00 0. -1.
      99926    2    1    2    0    0 -0.71054273576E-14  0.00000000000E+00  0.64649684135E+03  0.79022875626E+03  0.45442636514E+03 0.  0.
         25    1    3    3    0    0 -0.53607060224E+02 -0.79251293263E+02  0.20637716597E+03  0.25960263312E+03  0.12509000000E+03 0.  0.
         25    1    3    3    0    0  0.75974881476E+02  0.19684120005E+02  0.28802296133E+03  0.32367326357E+03  0.12509000000E+03 0.  0.
         25    1    3    3    0    0 -0.22367821251E+02  0.59567173258E+02  0.15209671406E+03  0.20695285957E+03  0.12509000000E+03 0.  0.
<mgrwt>
<rscale>  2 0.45442637E+03</rscale>
<asrwt>0</asrwt>
<pdfrwt beam="1">  1       21 0.10564158E+00 0.45442637E+03</pdfrwt>
<pdfrwt beam="2">  1       21 0.10568524E-01 0.45442637E+03</pdfrwt>
<totfact> 0.48458885E+04</totfact>
</mgrwt>
</event>
<event>
 6    0  0.1576925E-007  0.4546660E+03  0.7546771E-02  0.1026340E+00
         21   -1    0    0  502  501  0.00000000000E+00  0.00000000000E+00  0.22185716837E+03  0.22185716837E+03  0.00000000000E+00 0. -1.
         21   -1    0    0  501  502 -0.00000000000E+00 -0.00000000000E+00 -0.23294402326E+03  0.23294402326E+03  0.00000000000E+00 0. -1.
      99926    2    1    2    0    0  0.00000000000E+00  0.00000000000E+00 -0.11086854889E+02  0.45480119163E+03  0.45466603739E+03 0.  0.
         25    1    3    3    0    0  0.12052233354E+02  0.32222318944E+02  0.73752264999E+02  0.14923283439E+03  0.12509000000E+03 0.  0.
         25    1    3    3    0    0 -0.62680612625E+02 -0.45693878110E+02 -0.30968002565E+01  0.14722054193E+03  0.12509000000E+03 0.  0.
         25    1    3    3    0    0  0.50628379271E+02  0.13471559166E+02 -0.81742319632E+02  0.15834781531E+03  0.12509000000E+03 0.  0.
<mgrwt>
<rscale>  2 0.45466604E+03</rscale>
<asrwt>0</asrwt>
<pdfrwt beam="1">  1       21 0.32626054E-01 0.45466604E+03</pdfrwt>
<pdfrwt beam="2">  1       21 0.34256474E-01 0.45466604E+03</pdfrwt>
<totfact> 0.68743361E+04</totfact>
</mgrwt>
</event>
<event>
 6    0  0.1576925E-007  0.4565017E+03  0.7546771E-02  0.1025801E+00
         21   -1    0    0  502  501  0.00000000000E+00  0.00000000000E+00  0.26382686423E+03  0.26382686423E+03  0.00000000000E+00 0. -1.
         21   -1    0    0  501  502 -0.00000000000E+00 -0.00000000000E+00 -0.19747212240E+03  0.19747212240E+03  0.00000000000E+00 0. -1.
      99926    2    1    2    0    0 -0.71054273576E-14 -0.14210854715E-13  0.66354741828E+02  0.46129898663E+03  0.45650170132E+03 0.  0.
         25    1    3    3    0    0  0.40954794022E+02  0.10273567716E+03  0.47378786440E+02  0.17356316435E+03  0.12509000000E+03 0.  0.
         25    1    3    3    0    0 -0.64049135357E+02 -0.61297638496E+02  0.11025981404E+02  0.15371653324E+03  0.12509000000E+03 0.  0.
         25    1    3    3    0    0  0.23094341335E+02 -0.41438038659E+02  0.79499739837E+01  0.13401928904E+03  0.12509000000E+03 0.  0.
<mgrwt>
<rscale>  2 0.45650170E+03</rscale>
<asrwt>0</asrwt>
<pdfrwt beam="1">  1       21 0.38798068E-01 0.45650170E+03</pdfrwt>
<pdfrwt beam="2">  1       21 0.29040018E-01 0.45650170E+03</pdfrwt>
<totfact> 0.67276714E+04</totfact>
</mgrwt>
</event>
<event>
 6    0  0.1576925E-007  0.4569770E+03  0.7546771E-02  0.1025662E+00
         21   -1    0    0  502  501  0.00000000000E+00  0.00000000000E+00  0.21113904211E+02  0.21113904211E+02  0.00000000000E+00 0. -1.
         21   -1    0    0  501  502 -0.00000000000E+00 -0.00000000000E+00 -0.24726360215E+04  0.24726360215E+04  0.00000000000E+00 0. -1.
      99926    2    1    2    0    0  0.35527136788E-14 -0.22204460493E-15 -0.24515221173E+04  0.24937499257E+04  0.45697702396E+03 0.  0.
         25    1    3    3    0    0 -0.22532243455E+02  0.12025346353E+01 -0.51683295753E+03  0.53223393557E+03  0.12509000000E+03 0.  0.
         25    1    3    3    0    0  0.11178341171E+03  0.66873884806E-01 -0.11144757127E+04  0.11270311255E+04  0.12509000000E+03 0.  0.
         25    1    3    3    0    0 -0.89251168254E+02 -0.12694085201E+01 -0.82021344705E+03  0.83448486461E+03  0.12509000000E+03 0.  0.
<mgrwt>
<rscale>  2 0.45697702E+03</rscale>
<asrwt>0</asrwt>
<pdfrwt beam="1">  1       21 0.31049866E-02 0.45697702E+03</pdfrwt>
<pdfrwt beam="2">  1       21 0.36362286E+00 0.45697702E+03</pdfrwt>
<totfact> 0.70864037E+03</totfact>
</mgrwt>
</event>
<event>
 6    0  0.1576925E-007  0.4532715E+03  0.7546771E-02  0.1026751E+00
         21   -1    0    0  502  501  0.00000000000E+00  0.00000000000E+00  0.18618277806E+03  0.18618277806E+03  0.00000000000E+00 0.  1.
         21   -1    0    0  501  502 -0.00000000000E+00 -0.00000000000E+00 -0.27587822306E+03  0.27587822306E+03  0.00000000000E+00 0.  1.
      99926    2    1    2    0    0  0.00000000000E+00  0.00000000000E+00 -0.89695445001E+02  0.46206100113E+03  0.45327154765E+03 0.  0.
         25    1    3    3    0    0 -0.33189206937E+01 -0.13132478256E+02 -0.65982777551E+02  0.14207291175E+03  0.12509000000E+03 0.  0.
         25    1    3    3    0    0 -0.35553400018E+02 -0.63831730015E+02 -0.70376415620E+02  0.16105552454E+03  0.12509000000E+03 0.  0.
         25    1    3    3    0    0  0.38872320712E+02  0.76964208270E+02  0.46663748170E+02  0.15893256484E+03  0.12509000000E+03 0.  0.
<mgrwt>
<rscale>  2 0.45327155E+03</rscale>
<asrwt>0</asrwt>
<pdfrwt beam="1">  1       21 0.27379820E-01 0.45327155E+03</pdfrwt>
<pdfrwt beam="2">  1       21 0.40570327E-01 0.45327155E+03</pdfrwt>
<totfact> 0.68971748E+04</totfact>
</mgrwt>
</event>
<event>
 6    0  0.1576925E-007  0.4668608E+03  0.7546771E-02  0.1022810E+00
         21   -1    0    0  502  501  0.00000000000E+00  0.00000000000E+00  0.12207320185E+04  0.12207320185E+04  0.00000000000E+00 0. -1.
         21   -1    0    0  501  502 -0.00000000000E+00 -0.00000000000E+00 -0.44636946772E+02  0.44636946772E+02  0.00000000000E+00 0. -1.
      99926    2    1    2    0    0 -0.36637359813E-14  0.14210854715E-13  0.11760950717E+04  0.12653689653E+04  0.46686079352E+03 0.  0.
         25    1    3    3    0    0 -0.94455390165E+00  0.11588013317E+03  0.47859368561E+03  0.50806350140E+03  0.12509000000E+03 0.  0.
         25    1    3    3    0    0 -0.42342214154E+02 -0.33453356511E+02  0.37757531551E+03  0.40140081857E+03  0.12509000000E+03 0.  0.
         25    1    3    3    0    0  0.43286768055E+02 -0.82426776656E+02  0.31992607058E+03  0.35590464529E+03  0.12509000000E+03 0.  0.
<mgrwt>
<rscale>  2 0.46686079E+03</rscale>
<asrwt>0</asrwt>
<pdfrwt beam="1">  1       21 0.17951939E+00 0.46686079E+03</pdfrwt>
<pdfrwt beam="2">  1       21 0.65642577E-02 0.46686079E+03</pdfrwt>
<totfact> 0.27508654E+04</totfact>
</mgrwt>
</event>
<event>
 6    0  0.1576925E-007  0.4642635E+03  0.7546771E-02  0.1023552E+00
         21   -1    0    0  502  501  0.00000000000E+00  0.00000000000E+00  0.83304517374E+03  0.83304517374E+03  0.00000000000E+00 0. -1.
         21   -1    0    0  501  502 -0.00000000000E+00 -0.00000000000E+00 -0.64684540128E+02  0.64684540128E+02  0.00000000000E+00 0. -1.
      99926    2    1    2    0    0  0.00000000000E+00 -0.17763568394E-14  0.76836063362E+03  0.89772971387E+03  0.46426347679E+03 0.  0.
         25    1    3    3    0    0 -0.35020431561E+02 -0.12086495825E+02  0.36753930870E+03  0.39000662244E+03  0.12509000000E+03 0.  0.
         25    1    3    3    0    0 -0.38345141280E+02 -0.64741462851E+02  0.16347905641E+03  0.21916823870E+03  0.12509000000E+03 0.  0.
         25    1    3    3    0    0  0.73365572841E+02  0.76827958676E+02  0.23734226851E+03  0.28855485273E+03  0.12509000000E+03 0.  0.
<mgrwt>
<rscale>  2 0.46426348E+03</rscale>
<asrwt>0</asrwt>
<pdfrwt beam="1">  1       21 0.12250664E+00 0.46426348E+03</pdfrwt>
<pdfrwt beam="2">  1       21 0.95124328E-02 0.46426348E+03</pdfrwt>
<totfact> 0.40326509E+04</totfact>
</mgrwt>
</event>
<event>
 6    0  0.1576925E-007  0.4581590E+03  0.7546771E-02  0.1025317E+00
         21   -1    0    0  502  501  0.00000000000E+00  0.00000000000E+00  0.84555861760E+03  0.84555861760E+03  0.00000000000E+00 0. -1.
         21   -1    0    0  501  502 -0.00000000000E+00 -0.00000000000E+00 -0.62062428309E+02  0.62062428309E+02  0.00000000000E+00 0. -1.
      99926    2    1    2    0    0  0.42188474936E-14 -0.17763568394E-14  0.78349618929E+03  0.90762104591E+03  0.45815901644E+03 0.  0.
         25    1    3    3    0    0 -0.47697186768E+02 -0.57652720181E+02  0.39327238217E+03  0.41941570362E+03  0.12509000000E+03 0.  0.
         25    1    3    3    0    0  0.47353721204E+02  0.70188917634E+02  0.13034213814E+03  0.19951300746E+03  0.12509000000E+03 0.  0.
         25    1    3    3    0    0  0.34346556336E+00 -0.12536197454E+02  0.25988166898E+03  0.28869233483E+03  0.12509000000E+03 0.  0.
<mgrwt>
<rscale>  2 0.45815902E+03</rscale>
<asrwt>0</asrwt>
<pdfrwt beam="1">  1       21 0.12434685E+00 0.45815902E+03</pdfrwt>
<pdfrwt beam="2">  1       21 0.91268282E-02 0.45815902E+03</pdfrwt>
<totfact> 0.41860954E+04</totfact>
</mgrwt>
</event>
<event>
 6    0  0.1576925E-007  0.4460668E+03  0.7546771E-02  0.1028901E+00
         21   -1    0    0  502  501  0.00000000000E+00  0.00000000000E+00  0.91418802894E+02  0.91418802894E+02  0.00000000000E+00 0.  1.
         21   -1    0    0  501  502 -0.00000000000E+00 -0.00000000000E+00 -0.54413202341E+03  0.54413202341E+03  0.00000000000E+00 0.  1.
      99926    2    1    2    0    0  0.71054273576E-14  0.00000000000E+00 -0.45271322051E+03  0.63555082630E+03  0.44606680305E+03 0.  0.
         25    1    3    3    0    0 -0.68345564221E+02  0.47234738600E+02 -0.82846491384E+02  0.17150302013E+03  0.12509000000E+03 0.  0.
         25    1    3    3    0    0  0.32534521807E+02  0.23079429918E+02 -0.15395658408E+03  0.20233954897E+03  0.12509000000E+03 0.  0.
         25    1    3    3    0    0  0.35811042415E+02 -0.70314168518E+02 -0.21591014505E+03  0.26170825720E+03  0.12509000000E+03 0.  0.
<mgrwt>
<rscale>  2 0.44606680E+03</rscale>
<asrwt>0</asrwt>
<pdfrwt beam="1">  1       21 0.13443941E-01 0.44606680E+03</pdfrwt>
<pdfrwt beam="2">  1       21 0.80019418E-01 0.44606680E+03</pdfrwt>
<totfact> 0.60709962E+04</totfact>
</mgrwt>
</event>
<event>
 6    0  0.1576925E-007  0.4697110E+03  0.7546771E-02  0.1022002E+00
         21   -1    0    0  502  501  0.00000000000E+00  0.00000000000E+00  0.43400481781E+03  0.43400481781E+03  0.00000000000E+00 0. -1.
         21   -1    0    0  501  502 -0.00000000000E+00 -0.00000000000E+00 -0.12708871485E+03  0.12708871485E+03  0.00000000000E+00 0. -1.
      99926    2    1    2    0    0  0.00000000000E+00  0.00000000000E+00  0.30691610296E+03  0.56109353266E+03  0.46971103685E+03 0.  0.
         25    1    3    3    0    0  0.10256714534E+02  0.48162880049E+02  0.44348473246E+02  0.14155973434E+03  0.12509000000E+03 0.  0.
         25    1    3    3    0    0  0.66647722266E+02  0.40599218410E+02  0.75324099750E+02  0.16556401639E+03  0.12509000000E+03 0.  0.
         25    1    3    3    0    0 -0.76904436801E+02 -0.88762098459E+02  0.18724352996E+03  0.25396978193E+03  0.12509000000E+03 0.  0.
<mgrwt>
<rscale>  2 0.46971104E+03</rscale>
<asrwt>0</asrwt>
<pdfrwt beam="1">  1       21 0.63824237E-01 0.46971104E+03</pdfrwt>
<pdfrwt beam="2">  1       21 0.18689517E-01 0.46971104E+03</pdfrwt>
<totfact> 0.54513498E+04</totfact>
</mgrwt>
</event>
<event>
 6    0  0.1576925E-007  0.4389673E+03  0.7546771E-02  0.1031064E+00
         21   -1    0    0  502  501  0.00000000000E+00  0.00000000000E+00  0.45442387558E+03  0.45442387558E+03  0.00000000000E+00 0.  1.
         21   -1    0    0  501  502 -0.00000000000E+00 -0.00000000000E+00 -0.10600910230E+03  0.10600910230E+03  0.00000000000E+00 0.  1.
      99926    2    1    2    0    0  0.44408920985E-14 -0.88817841970E-15  0.34841477327E+03  0.56043297788E+03  0.43896727493E+03 0.  0.
         25    1    3    3    0    0  0.74975244780E+01 -0.75197585013E+01  0.97332797307E+02  0.15885194734E+03  0.12509000000E+03 0.  0.
         25    1    3    3    0    0 -0.66829440733E+02  0.61276934656E+02  0.76577303242E+02  0.17243151783E+03  0.12509000000E+03 0.  0.
         25    1    3    3    0    0  0.59331916255E+02 -0.53757176154E+02  0.17450467272E+03  0.22914951271E+03  0.12509000000E+03 0.  0.
<mgrwt>
<rscale>  2 0.43896727E+03</rscale>
<asrwt>0</asrwt>
<pdfrwt beam="1">  1       21 0.66827040E-01 0.43896727E+03</pdfrwt>
<pdfrwt beam="2">  1       21 0.15589574E-01 0.43896727E+03</pdfrwt>
<totfact> 0.69597011E+04</totfact>
</mgrwt>
</event>
<event>
 6    0  0.1576925E-007  0.4590449E+03  0.7546771E-02  0.1025059E+00
         21   -1    0    0  502  501  0.00000000000E+00  0.00000000000E+00  0.11266336654E+04  0.11266336654E+04  0.00000000000E+00 0. -1.
         21   -1    0    0  501  502 -0.00000000000E+00 -0.00000000000E+00 -0.46759267318E+02  0.46759267318E+02  0.00000000000E+00 0. -1.
      99926    2    1    2    0    0 -0.14210854715E-13  0.00000000000E+00  0.10798743981E+04  0.11733929327E+04  0.45904494216E+03 0.  0.
         25    1    3    3    0    0  0.85047150420E+02 -0.10959458431E+02  0.26400918072E+03  0.30446918256E+03  0.12509000000E+03 0.  0.
         25    1    3    3    0    0  0.22572048610E+02  0.35899740118E+02  0.35602685602E+03  0.37973796100E+03  0.12509000000E+03 0.  0.
         25    1    3    3    0    0 -0.10761919903E+03 -0.24940281687E+02  0.45983836136E+03  0.48918578917E+03  0.12509000000E+03 0.  0.
<mgrwt>
<rscale>  2 0.45904494E+03</rscale>
<asrwt>0</asrwt>
<pdfrwt beam="1">  1       21 0.16568140E+00 0.45904494E+03</pdfrwt>
<pdfrwt beam="2">  1       21 0.68763635E-02 0.45904494E+03</pdfrwt>
<totfact> 0.31990626E+04</totfact>
</mgrwt>
</event>
<event>
 6    0  0.1576925E-007  0.4562382E+03  0.7546771E-02  0.1025878E+00
         21   -1    0    0  502  501  0.00000000000E+00  0.00000000000E+00  0.69521257715E+02  0.69521257715E+02  0.00000000000E+00 0. -1.
         21   -1    0    0  501  502 -0.00000000000E+00 -0.00000000000E+00 -0.74852391228E+03  0.74852391228E+03  0.00000000000E+00 0. -1.
      99926    2    1    2    0    0  0.00000000000E+00  0.00000000000E+00 -0.67900265456E+03  0.81804516999E+03  0.45623820012E+03 0.  0.
         25    1    3    3    0    0 -0.81482567826E+02 -0.27354155287E+02 -0.28787756442E+03  0.32543610566E+03  0.12509000000E+03 0.  0.
         25    1    3    3    0    0  0.55920623930E+02 -0.39887947060E+02 -0.12424299371E+03  0.18921414875E+03  0.12509000000E+03 0.  0.
         25    1    3    3    0    0  0.25561943896E+02  0.67242102347E+02 -0.26688209644E+03  0.30339491558E+03  0.12509000000E+03 0.  0.
<mgrwt>
<rscale>  2 0.45623820E+03</rscale>
<asrwt>0</asrwt>
<pdfrwt beam="1">  1       21 0.10223715E-01 0.45623820E+03</pdfrwt>
<pdfrwt beam="2">  1       21 0.11007704E+00 0.45623820E+03</pdfrwt>
<totfact> 0.46451384E+04</totfact>
</mgrwt>
</event>
<event>
 6    0  0.1576925E-007  0.4555642E+03  0.7546771E-02  0.1026076E+00
         21   -1    0    0  502  501  0.00000000000E+00  0.00000000000E+00  0.16890575362E+03  0.16890575362E+03  0.00000000000E+00 0.  1.
         21   -1    0    0  501  502 -0.00000000000E+00 -0.00000000000E+00 -0.30718121247E+03  0.30718121247E+03  0.00000000000E+00 0.  1.
      99926    2    1    2    0    0 -0.71054273576E-14 -0.53290705182E-14 -0.13827545885E+03  0.47608696609E+03  0.45556415219E+03 0.  0.
         25    1    3    3    0    0  0.69153664190E+02 -0.83023964263E+02 -0.92047607442E+02  0.18919692928E+03  0.12509000000E+03 0.  0.
         25    1    3    3    0    0 -0.14429536384E+02  0.10272305392E+02 -0.38139663410E+02  0.13196921536E+03  0.12509000000E+03 0.  0.
         25    1    3    3    0    0 -0.54724127806E+02  0.72751658871E+02 -0.80881879999E+01  0.15492082145E+03  0.12509000000E+03 0.  0.
<mgrwt>
<rscale>  2 0.45556415E+03</rscale>
<asrwt>0</asrwt>
<pdfrwt beam="1">  1       21 0.24839082E-01 0.45556415E+03</pdfrwt>
<pdfrwt beam="2">  1       21 0.45173707E-01 0.45556415E+03</pdfrwt>
<totfact> 0.66686992E+04</totfact>
</mgrwt>
</event>
<event>
 6    0  0.1576925E-007  0.4536664E+03  0.7546771E-02  0.1026634E+00
         21   -1    0    0  502  501  0.00000000000E+00  0.00000000000E+00  0.17719904782E+03  0.17719904782E+03  0.00000000000E+00 0.  1.
         21   -1    0    0  501  502 -0.00000000000E+00 -0.00000000000E+00 -0.29037012552E+03  0.29037012552E+03  0.00000000000E+00 0.  1.
      99926    2    1    2    0    0  0.00000000000E+00 -0.71054273576E-14 -0.11317107770E+03  0.46756917333E+03  0.45366644027E+03 0.  0.
         25    1    3    3    0    0 -0.81535747636E+02 -0.30339514827E+02 -0.45700160833E+02  0.15907412455E+03  0.12509000000E+03 0.  0.
         25    1    3    3    0    0  0.39462874212E+02 -0.49571413895E+02 -0.64090877846E+02  0.15417455121E+03  0.12509000000E+03 0.  0.
         25    1    3    3    0    0  0.42072873423E+02  0.79910928722E+02 -0.33800390204E+01  0.15432049757E+03  0.12509000000E+03 0.  0.
<mgrwt>
<rscale>  2 0.45366644E+03</rscale>
<asrwt>0</asrwt>
<pdfrwt beam="1">  1       21 0.26058684E-01 0.45366644E+03</pdfrwt>
<pdfrwt beam="2">  1       21 0.42701489E-01 0.45366644E+03</pdfrwt>
<totfact> 0.68337048E+04</totfact>
</mgrwt>
</event>
<event>
 6    0  0.1576925E-007  0.4554152E+03  0.7546771E-02  0.1026119E+00
         21   -1    0    0  502  501  0.00000000000E+00  0.00000000000E+00  0.62961441478E+03  0.62961441478E+03  0.00000000000E+00 0. -1.
         21   -1    0    0  501  502 -0.00000000000E+00 -0.00000000000E+00 -0.82353174605E+02  0.82353174605E+02  0.00000000000E+00 0. -1.
      99926    2    1    2    0    0  0.62172489379E-14 -0.71054273576E-14  0.54726124018E+03  0.71196758938E+03  0.45541517688E+03 0.  0.
         25    1    3    3    0    0 -0.83613948669E+02  0.22625833818E+02  0.26441692344E+03  0.30506890741E+03  0.12509000000E+03 0.  0.
         25    1    3    3    0    0  0.79089600083E+02 -0.62261482707E+02  0.16912681639E+03  0.23320172639E+03  0.12509000000E+03 0.  0.
         25    1    3    3    0    0  0.45243485864E+01  0.39635648889E+02  0.11371750035E+03  0.17369695558E+03  0.12509000000E+03 0.  0.
<mgrwt>
<rscale>  2 0.45541518E+03</rscale>
<asrwt>0</asrwt>
<pdfrwt beam="1">  1       21 0.92590353E-01 0.45541518E+03</pdfrwt>
<pdfrwt beam="2">  1       21 0.12110761E-01 0.45541518E+03</pdfrwt>
<totfact> 0.52087682E+04</totfact>
</mgrwt>
</event>
<event>
 6    0  0.1576925E-007  0.4550253E+03  0.7546771E-02  0.1026234E+00
         21   -1    0    0  502  501  0.00000000000E+00  0.00000000000E+00  0.18571991411E+04  0.18571991411E+04  0.00000000000E+00 0.  1.
         21   -1    0    0  501  502 -0.00000000000E+00 -0.00000000000E+00 -0.27871004699E+02  0.27871004699E+02  0.00000000000E+00 0.  1.
      99926    2    1    2    0    0 -0.71054273576E-14  0.39968028887E-14  0.18293281364E+04  0.18850701458E+04  0.45502530034E+03 0.  0.
         25    1    3    3    0    0 -0.65809006224E+02 -0.44493219099E+02  0.48334590627E+03  0.50555043770E+03  0.12509000000E+03 0.  0.
         25    1    3    3    0    0  0.10455731602E+03  0.45345147218E+02  0.67597935076E+03  0.69683857920E+03  0.12509000000E+03 0.  0.
         25    1    3    3    0    0 -0.38748309792E+02 -0.85192811954E+00  0.67000287936E+03  0.68268112889E+03  0.12509000000E+03 0.  0.
<mgrwt>
<rscale>  2 0.45502530E+03</rscale>
<asrwt>0</asrwt>
<pdfrwt beam="1">  1       21 0.27311744E+00 0.45502530E+03</pdfrwt>
<pdfrwt beam="2">  1       21 0.40986784E-02 0.45502530E+03</pdfrwt>
<totfact> 0.15675242E+04</totfact>
</mgrwt>
</event>
<event>
 6    0  0.1576925E-007  0.4591159E+03  0.7546771E-02  0.1025038E+00
         21   -1    0    0  502  501  0.00000000000E+00  0.00000000000E+00  0.10628824873E+03  0.10628824873E+03  0.00000000000E+00 0.  1.
         21   -1    0    0  501  502 -0.00000000000E+00 -0.00000000000E+00 -0.49579195658E+03  0.49579195658E+03  0.00000000000E+00 0.  1.
      99926    2    1    2    0    0  0.00000000000E+00 -0.14210854715E-13 -0.38950370785E+03  0.60208020531E+03  0.45911592783E+03 0.  0.
         25    1    3    3    0    0 -0.59168225443E+02 -0.31524377962E+02 -0.11676878503E+03  0.18378553415E+03  0.12509000000E+03 0.  0.
         25    1    3    3    0    0 -0.26368759051E+02  0.87331532079E+02 -0.14874773857E+03  0.21469863944E+03  0.12509000000E+03 0.  0.
         25    1    3    3    0    0  0.85536984494E+02 -0.55807154117E+02 -0.12398718426E+03  0.20359603171E+03  0.12509000000E+03 0.  0.
<mgrwt>
<rscale>  2 0.45911593E+03</rscale>
<asrwt>0</asrwt>
<pdfrwt beam="1">  1       21 0.15630625E-01 0.45911593E+03</pdfrwt>
<pdfrwt beam="2">  1       21 0.72910580E-01 0.45911593E+03</pdfrwt>
<totfact> 0.56684434E+04</totfact>
</mgrwt>
</event>
<event>
 6    0  0.1576925E-007  0.4654921E+03  0.7546771E-02  0.1023200E+00
         21   -1    0    0  502  501  0.00000000000E+00  0.00000000000E+00  0.14243492114E+04  0.14243492114E+04  0.00000000000E+00 0.  1.
         21   -1    0    0  501  502 -0.00000000000E+00 -0.00000000000E+00 -0.38031907788E+02  0.38031907788E+02  0.00000000000E+00 0.  1.
      99926    2    1    2    0    0 -0.35527136788E-14  0.00000000000E+00  0.13863173037E+04  0.14623811192E+04  0.46549207455E+03 0.  0.
         25    1    3    3    0    0 -0.84956451469E+02 -0.69189740636E+00  0.47994542442E+03  0.50320293708E+03  0.12509000000E+03 0.  0.
         25    1    3    3    0    0  0.13182183670E+02  0.23255427590E+02  0.19659087688E+03  0.23454224748E+03  0.12509000000E+03 0.  0.
         25    1    3    3    0    0  0.71774267799E+02 -0.22563530184E+02  0.70978100235E+03  0.72463593467E+03  0.12509000000E+03 0.  0.
<mgrwt>
<rscale>  2 0.46549207E+03</rscale>
<asrwt>0</asrwt>
<pdfrwt beam="1">  1       21 0.20946308E+00 0.46549207E+03</pdfrwt>
<pdfrwt beam="2">  1       21 0.55929286E-02 0.46549207E+03</pdfrwt>
<totfact> 0.22799980E+04</totfact>
</mgrwt>
</event>
<event>
 6    0  0.1576925E-007  0.4526995E+03  0.7546771E-02  0.1026920E+00
         21   -1    0    0  502  501  0.00000000000E+00  0.00000000000E+00  0.15521343966E+03  0.15521343966E+03  0.00000000000E+00 0. -1.
         21   -1    0    0  501  502 -0.00000000000E+00 -0.00000000000E+00 -0.33008879919E+03  0.33008879919E+03  0.00000000000E+00 0. -1.
      99926    2    1    2    0    0  0.00000000000E+00 -0.71054273576E-14 -0.17487535953E+03  0.48530223885E+03  0.45269953795E+03 0.  0.
         25    1    3    3    0    0 -0.33065886337E+02 -0.39438889236E+02 -0.89351425052E+02  0.16211096225E+03  0.12509000000E+03 0.  0.
         25    1    3    3    0    0  0.92715691200E+02  0.62407182950E+02 -0.22575159944E+02  0.16925720612E+03  0.12509000000E+03 0.  0.
         25    1    3    3    0    0 -0.59649804863E+02 -0.22968293714E+02 -0.62948774536E+02  0.15393407047E+03  0.12509000000E+03 0.  0.
<mgrwt>
<rscale>  2 0.45269954E+03</rscale>
<asrwt>0</asrwt>
<pdfrwt beam="1">  1       21 0.22825506E-01 0.45269954E+03</pdfrwt>
<pdfrwt beam="2">  1       21 0.48542470E-01 0.45269954E+03</pdfrwt>
<totfact> 0.67541171E+04</totfact>
</mgrwt>
</event>
<event>
 6    0  0.1576925E-007  0.4546126E+03  0.7546771E-02  0.1026355E+00
         21   -1    0    0  502  501  0.00000000000E+00  0.00000000000E+00  0.11567332025E+03  0.11567332025E+03  0.00000000000E+00 0.  1.
         21   -1    0    0  501  502 -0.00000000000E+00 -0.00000000000E+00 -0.44667300756E+03  0.44667300756E+03  0.00000000000E+00 0.  1.
      99926    2    1    2    0    0  0.00000000000E+00  0.00000000000E+00 -0.33099968731E+03  0.56234632780E+03  0.45461258165E+03 0.  0.
         25    1    3    3    0    0  0.11859479282E+02 -0.55082481213E+02 -0.41738764213E+02  0.14340278771E+03  0.12509000000E+03 0.  0.
         25    1    3    3    0    0 -0.71662294614E+02  0.22300193230E+02 -0.21062750479E+03  0.25621131310E+03  0.12509000000E+03 0.  0.
         25    1    3    3    0    0  0.59802815332E+02  0.32782287983E+02 -0.78633418311E+02  0.16273222699E+03  0.12509000000E+03 0.  0.
<mgrwt>
<rscale>  2 0.45461258E+03</rscale>
<asrwt>0</asrwt>
<pdfrwt beam="1">  1       21 0.17010782E-01 0.45461258E+03</pdfrwt>
<pdfrwt beam="2">  1       21 0.65687209E-01 0.45461258E+03</pdfrwt>
<totfact> 0.61245409E+04</totfact>
</mgrwt>
</event>
<event>
 6    0  0.1576925E-007  0.4501466E+03  0.7546771E-02  0.1027678E+00
         21   -1    0    0  502  501  0.00000000000E+00  0.00000000000E+00  0.65594798766E+02  0.65594798766E+02  0.00000000000E+00 0. -1.
         21   -1    0    0  501  502 -0.00000000000E+00 -0.00000000000E+00 -0.77228655333E+03  0.77228655333E+03  0.00000000000E+00 0. -1.
      99926    2    1    2    0    0  0.00000000000E+00  0.00000000000E+00 -0.70669175456E+03  0.83788135209E+03  0.45014655860E+03 0.  0.
         25    1    3    3    0    0  0.64664500701E+02  0.77988512348E+02 -0.20929687188E+03  0.26403862291E+03  0.12509000000E+03 0.  0.
         25    1    3    3    0    0 -0.46040976460E+02 -0.70183106131E+02 -0.33929138404E+03  0.37122983619E+03  0.12509000000E+03 0.  0.
         25    1    3    3    0    0 -0.18623524241E+02 -0.78054062172E+01 -0.15810349864E+03  0.20261289299E+03  0.12509000000E+03 0.  0.
<mgrwt>
<rscale>  2 0.45014656E+03</rscale>
<asrwt>0</asrwt>
<pdfrwt beam="1">  1       21 0.96462935E-02 0.45014656E+03</pdfrwt>
<pdfrwt beam="2">  1       21 0.11357156E+00 0.45014656E+03</pdfrwt>
<totfact> 0.47779972E+04</totfact>
</mgrwt>
</event>
<event>
 6    0  0.1576925E-007  0.4643792E+03  0.7546771E-02  0.1023519E+00
         21   -1    0    0  502  501  0.00000000000E+00  0.00000000000E+00  0.35091678479E+03  0.35091678479E+03  0.00000000000E+00 0.  1.
         21   -1    0    0  501  502 -0.00000000000E+00 -0.00000000000E+00 -0.15363190895E+03  0.15363190895E+03  0.00000000000E+00 0.  1.
      99926    2    1    2    0    0  0.17763568394E-14  0.71054273576E-14  0.19728487583E+03  0.50454869374E+03  0.46437922232E+03 0.  0.
         25    1    3    3    0    0  0.15366933157E+02  0.57963362930E+02 -0.16733236828E+02  0.13972617289E+03  0.12509000000E+03 0.  0.
         25    1    3    3    0    0 -0.13486964117E+02 -0.10246068270E+03  0.10808895855E+03  0.19496363959E+03  0.12509000000E+03 0.  0.
         25    1    3    3    0    0 -0.18799690401E+01  0.44497319773E+02  0.10592915411E+03  0.16985888125E+03  0.12509000000E+03 0.  0.
<mgrwt>
<rscale>  2 0.46437922E+03</rscale>
<asrwt>0</asrwt>
<pdfrwt beam="1">  1       21 0.51605410E-01 0.46437922E+03</pdfrwt>
<pdfrwt beam="2">  1       21 0.22592928E-01 0.46437922E+03</pdfrwt>
<totfact> 0.60333551E+04</totfact>
</mgrwt>
</event>
<event>
 6    0  0.1576925E-007  0.4407070E+03  0.7546771E-02  0.1030530E+00
         21   -1    0    0  502  501  0.00000000000E+00  0.00000000000E+00  0.69925700639E+03  0.69925700639E+03  0.00000000000E+00 0.  1.
         21   -1    0    0  501  502 -0.00000000000E+00 -0.00000000000E+00 -0.69438940269E+02  0.69438940269E+02  0.00000000000E+00 0.  1.
      99926    2    1    2    0    0  0.00000000000E+00  0.00000000000E+00  0.62981806612E+03  0.76869594666E+03  0.44070700244E+03 0.  0.
         25    1    3    3    0    0  0.35873346807E+01  0.14564336265E+02  0.36251539671E+03  0.38378367580E+03  0.12509000000E+03 0.  0.
         25    1    3    3    0    0 -0.26473107443E+02 -0.40776017618E+02  0.19373757772E+03  0.23568043227E+03  0.12509000000E+03 0.  0.
         25    1    3    3    0    0  0.22885772763E+02  0.26211681353E+02  0.73565091688E+02  0.14923183859E+03  0.12509000000E+03 0.  0.
<mgrwt>
<rscale>  2 0.44070700E+03</rscale>
<asrwt>0</asrwt>
<pdfrwt beam="1">  1       21 0.10283191E+00 0.44070700E+03</pdfrwt>
<pdfrwt beam="2">  1       21 0.10211609E-01 0.44070700E+03</pdfrwt>
<totfact> 0.55260758E+04</totfact>
</mgrwt>
</event>
<event>
 6    0  0.1576925E-007  0.4522473E+03  0.7546771E-02  0.1027054E+00
         21   -1    0    0  502  501  0.00000000000E+00  0.00000000000E+00  0.38940757533E+02  0.38940757533E+02  0.00000000000E+00 0.  1.
         21   -1    0    0  501  502 -0.00000000000E+00 -0.00000000000E+00 -0.13130689862E+04  0.13130689862E+04  0.00000000000E+00 0.  1.
      99926    2    1    2    0    0  0.00000000000E+00  0.00000000000E+00 -0.12741282286E+04  0.13520097437E+04  0.45224728198E+03 0.  0.
         25    1    3    3    0    0 -0.58461780995E+02  0.55024289142E+02 -0.36494741205E+03  0.39405529294E+03  0.12509000000E+03 0.  0.
         25    1    3    3    0    0  0.98891814307E+02 -0.28800814211E+02 -0.58807436077E+03  0.60999019642E+03  0.12509000000E+03 0.  0.
         25    1    3    3    0    0 -0.40430033312E+02 -0.26223474931E+02 -0.32110645581E+03  0.34796425434E+03  0.12509000000E+03 0.  0.
<mgrwt>
<rscale>  2 0.45224728E+03</rscale>
<asrwt>0</asrwt>
<pdfrwt beam="1">  1       21 0.57265809E-02 0.45224728E+03</pdfrwt>
<pdfrwt beam="2">  1       21 0.19309842E+00 0.45224728E+03</pdfrwt>
<totfact> 0.28238800E+04</totfact>
</mgrwt>
</event>
<event>
 6    0  0.1576925E-007  0.4545822E+03  0.7546771E-02  0.1026364E+00
         21   -1    0    0  502  501  0.00000000000E+00  0.00000000000E+00  0.22836150484E+02  0.22836150484E+02  0.00000000000E+00 0. -1.
         21   -1    0    0  501  502 -0.00000000000E+00 -0.00000000000E+00 -0.22622574203E+04  0.22622574203E+04  0.00000000000E+00 0. -1.
      99926    2    1    2    0    0  0.71054273576E-14  0.14210854715E-13 -0.22394212698E+04  0.22850935708E+04  0.45458222968E+03 0.  0.
         25    1    3    3    0    0 -0.22878464350E+02 -0.59639743013E+02 -0.10463163962E+04  0.10557015829E+04  0.12509000000E+03 0.  0.
         25    1    3    3    0    0  0.71826879756E+02 -0.10458363225E+02 -0.55291112969E+03  0.57151264505E+03  0.12509000000E+03 0.  0.
         25    1    3    3    0    0 -0.48948415406E+02  0.70098106238E+02 -0.64019374394E+03  0.65787934285E+03  0.12509000000E+03 0.  0.
<mgrwt>
<rscale>  2 0.45458223E+03</rscale>
<asrwt>0</asrwt>
<pdfrwt beam="1">  1       21 0.33582595E-02 0.45458223E+03</pdfrwt>
<pdfrwt beam="2">  1       21 0.33268471E+00 0.45458223E+03</pdfrwt>
<totfact> 0.96197016E+03</totfact>
</mgrwt>
</event>
<event>
 6    0  0.1576925E-007  0.4529309E+03  0.7546771E-02  0.1026852E+00
         21   -1    0    0  502  501  0.00000000000E+00  0.00000000000E+00  0.45423372576E+03  0.45423372576E+03  0.00000000000E+00 0.  1.
         21   -1    0    0  501  502 -0.00000000000E+00 -0.00000000000E+00 -0.11290793644E+03  0.11290793644E+03  0.00000000000E+00 0.  1.
      99926    2    1    2    0    0 -0.35527136788E-14  0.00000000000E+00  0.34132578933E+03  0.56714166220E+03  0.45293086729E+03 0.  0.
         25    1    3    3    0    0 -0.37970226105E+02 -0.11726771533E+02  0.17420390291E+03  0.21811410575E+03  0.12509000000E+03 0.  0.
         25    1    3    3    0    0 -0.20006988040E+02  0.17506069254E+02  0.16786952297E+03  0.21103181483E+03  0.12509000000E+03 0.  0.
         25    1    3    3    0    0  0.57977214146E+02 -0.57792977216E+01 -0.74763654670E+00  0.13799574161E+03  0.12509000000E+03 0.  0.
<mgrwt>
<rscale>  2 0.45293087E+03</rscale>
<asrwt>0</asrwt>
<pdfrwt beam="1">  1       21 0.66799077E-01 0.45293087E+03</pdfrwt>
<pdfrwt beam="2">  1       21 0.16604108E-01 0.45293087E+03</pdfrwt>
<totfact> 0.61752080E+04</totfact>
</mgrwt>
</event>
<event>
 6    0  0.7797436E-007  0.4608622E+03  0.7546771E-02  0.1024531E+00
         21   -1    0    0  502  501  0.00000000000E+00  0.00000000000E+00  0.45391971577E+03  0.45391971577E+03  0.00000000000E+00 0.  1.
         21   -1    0    0  501  502 -0.00000000000E+00 -0.00000000000E+00 -0.11697770204E+03  0.11697770204E+03  0.00000000000E+00 0. -1.
      99926    2    1    2    0    0  0.00000000000E+00  0.00000000000E+00  0.33694201373E+03  0.57089741782E+03  0.46086217143E+03 0.  0.
         25    1    3    3    0    0 -0.15204165831E+02 -0.39787239532E+02  0.73105936184E+02  0.15101714172E+03  0.12509000000E+03 0.  0.
         25    1    3    3    0    0  0.87849773876E+02 -0.16202413715E+02  0.19975915392E+03  0.25205421769E+03  0.12509000000E+03 0.  0.
         25    1    3    3    0    0 -0.72645608045E+02  0.55989653247E+02  0.64076923622E+02  0.16782605840E+03  0.12509000000E+03 0.  0.
<mgrwt>
<rscale>  2 0.46086217E+03</rscale>
<asrwt>0</asrwt>
<pdfrwt beam="1">  1       21 0.66752899E-01 0.46086217E+03</pdfrwt>
<pdfrwt beam="2">  1       21 0.17202603E-01 0.46086217E+03</pdfrwt>
<totfact> 0.57780869E+04</totfact>
</mgrwt>
</event>
<event>
 6    0  0.1576925E-007  0.4519490E+03  0.7546771E-02  0.1027142E+00
         21   -1    0    0  502  501  0.00000000000E+00  0.00000000000E+00  0.31986456986E+03  0.31986456986E+03  0.00000000000E+00 0. -1.
         21   -1    0    0  501  502 -0.00000000000E+00 -0.00000000000E+00 -0.15964408101E+03  0.15964408101E+03  0.00000000000E+00 0. -1.
      99926    2    1    2    0    0  0.71054273576E-14  0.00000000000E+00  0.16022048885E+03  0.47950865087E+03  0.45194904714E+03 0.  0.
         25    1    3    3    0    0  0.76545714415E+02 -0.20088257129E+02  0.33692753520E+02  0.15180742475E+03  0.12509000000E+03 0.  0.
         25    1    3    3    0    0  0.47845449478E+01 -0.49890866879E+02  0.35164339401E+02  0.13926962818E+03  0.12509000000E+03 0.  0.
         25    1    3    3    0    0 -0.81330259363E+02  0.69979124008E+02  0.91363395934E+02  0.18843159794E+03  0.12509000000E+03 0.  0.
<mgrwt>
<rscale>  2 0.45194905E+03</rscale>
<asrwt>0</asrwt>
<pdfrwt beam="1">  1       21 0.47038907E-01 0.45194905E+03</pdfrwt>
<pdfrwt beam="2">  1       21 0.23477071E-01 0.45194905E+03</pdfrwt>
<totfact> 0.68376866E+04</totfact>
</mgrwt>
</event>
<event>
 6    0  0.1576925E-007  0.4540063E+03  0.7546771E-02  0.1026534E+00
         21   -1    0    0  502  501  0.00000000000E+00  0.00000000000E+00  0.84978813390E+02  0.84978813390E+02  0.00000000000E+00 0. -1.
         21   -1    0    0  501  502 -0.00000000000E+00 -0.00000000000E+00 -0.60639146141E+03  0.60639146141E+03  0.00000000000E+00 0. -1.
      99926    2    1    2    0    0  0.71054273576E-14  0.00000000000E+00 -0.52141264802E+03  0.69137027480E+03  0.45400628560E+03 0.  0.
         25    1    3    3    0    0 -0.84471858560E+02  0.13895067523E+02 -0.16443257427E+03  0.22363842999E+03  0.12509000000E+03 0.  0.
         25    1    3    3    0    0  0.42900333748E+02 -0.22812417310E+02 -0.69007914373E+02  0.15089879180E+03  0.12509000000E+03 0.  0.
         25    1    3    3    0    0  0.41571524812E+02  0.89173497869E+01 -0.28797215938E+03  0.31683305301E+03  0.12509000000E+03 0.  0.
<mgrwt>
<rscale>  2 0.45400629E+03</rscale>
<asrwt>0</asrwt>
<pdfrwt beam="1">  1       21 0.12496884E-01 0.45400629E+03</pdfrwt>
<pdfrwt beam="2">  1       21 0.89175220E-01 0.45400629E+03</pdfrwt>
<totfact> 0.53793631E+04</totfact>
</mgrwt>
</event>
<event>
 6    0  0.1576925E-007  0.4499033E+03  0.7546771E-02  0.1027751E+00
         21   -1    0    0  502  501  0.00000000000E+00  0.00000000000E+00  0.46924254856E+03  0.46924254856E+03  0.00000000000E+00 0. -1.
         21   -1    0    0  501  502 -0.00000000000E+00 -0.00000000000E+00 -0.10784027852E+03  0.10784027852E+03  0.00000000000E+00 0. -1.
      99926    2    1    2    0    0 -0.17763568394E-14  0.00000000000E+00  0.36140227004E+03  0.57708282709E+03  0.44990331020E+03 0.  0.
         25    1    3    3    0    0 -0.21767800959E+01 -0.76084713289E+02  0.61009117006E+02  0.15862926094E+03  0.12509000000E+03 0.  0.
         25    1    3    3    0    0 -0.90036433013E+01  0.43370675222E+02  0.60793714374E+02  0.14596391633E+03  0.12509000000E+03 0.  0.
         25    1    3    3    0    0  0.11180423397E+02  0.32714038067E+02  0.23959943866E+03  0.27248964982E+03  0.12509000000E+03 0.  0.
<mgrwt>
<rscale>  2 0.44990331E+03</rscale>
<asrwt>0</asrwt>
<pdfrwt beam="1">  1       21 0.69006257E-01 0.44990331E+03</pdfrwt>
<pdfrwt beam="2">  1       21 0.15858865E-01 0.44990331E+03</pdfrwt>
<totfact> 0.62595989E+04</totfact>
</mgrwt>
</event>
<event>
 6    0  0.1576925E-007  0.4735082E+03  0.7546771E-02  0.1020935E+00
         21   -1    0    0  502  501  0.00000000000E+00  0.00000000000E+00  0.86224424994E+02  0.86224424994E+02  0.00000000000E+00 0.  1.
         21   -1    0    0  501  502 -0.00000000000E+00 -0.00000000000E+00 -0.65007698632E+03  0.65007698632E+03  0.00000000000E+00 0.  1.
      99926    2    1    2    0    0  0.00000000000E+00  0.00000000000E+00 -0.56385256132E+03  0.73630141131E+03  0.47350824427E+03 0.  0.
         25    1    3    3    0    0  0.36196373116E+02 -0.21275977840E+02 -0.27507816047E+03  0.30508744178E+03  0.12509000000E+03 0.  0.
         25    1    3    3    0    0  0.41240373605E+02  0.38686351280E+02 -0.42304407390E+02  0.14364739181E+03  0.12509000000E+03 0.  0.
         25    1    3    3    0    0 -0.77436746721E+02 -0.17410373440E+02 -0.24646999346E+03  0.28756657772E+03  0.12509000000E+03 0.  0.
<mgrwt>
<rscale>  2 0.47350824E+03</rscale>
<asrwt>0</asrwt>
<pdfrwt beam="1">  1       21 0.12680063E-01 0.47350824E+03</pdfrwt>
<pdfrwt beam="2">  1       21 0.95599555E-01 0.47350824E+03</pdfrwt>
<totfact> 0.44186084E+04</totfact>
</mgrwt>
</event>
<event>
 6    0  0.1576925E-007  0.4566306E+03  0.7546771E-02  0.1025763E+00
         21   -1    0    0  502  501  0.00000000000E+00  0.00000000000E+00  0.10034162979E+04  0.10034162979E+04  0.00000000000E+00 0. -1.
         21   -1    0    0  501  502 -0.00000000000E+00 -0.00000000000E+00 -0.51950406775E+02  0.51950406775E+02  0.00000000000E+00 0. -1.
      99926    2    1    2    0    0  0.00000000000E+00  0.00000000000E+00  0.95146589113E+03  0.10553667047E+04  0.45663063778E+03 0.  0.
         25    1    3    3    0    0  0.71103059318E+02 -0.52685051688E+02  0.40678667910E+03  0.43468870483E+03  0.12509000000E+03 0.  0.
         25    1    3    3    0    0 -0.34083216559E+01  0.84988743187E+02  0.29483809135E+03  0.33137850162E+03  0.12509000000E+03 0.  0.
         25    1    3    3    0    0 -0.67694737662E+02 -0.32303691499E+02  0.24984112068E+03  0.28929949823E+03  0.12509000000E+03 0.  0.
<mgrwt>
<rscale>  2 0.45663064E+03</rscale>
<asrwt>0</asrwt>
<pdfrwt beam="1">  1       21 0.14756121E+00 0.45663064E+03</pdfrwt>
<pdfrwt beam="2">  1       21 0.76397663E-02 0.45663064E+03</pdfrwt>
<totfact> 0.36612892E+04</totfact>
</mgrwt>
</event>
<event>
 6    0  0.1576925E-007  0.4542335E+03  0.7546771E-02  0.1026467E+00
         21   -1    0    0  502  501  0.00000000000E+00  0.00000000000E+00  0.13236762419E+03  0.13236762419E+03  0.00000000000E+00 0.  1.
         21   -1    0    0  501  502 -0.00000000000E+00 -0.00000000000E+00 -0.38968760296E+03  0.38968760296E+03  0.00000000000E+00 0.  1.
      99926    2    1    2    0    0  0.00000000000E+00 -0.71054273576E-14 -0.25731997877E+03  0.52205522715E+03  0.45423351783E+03 0.  0.
         25    1    3    3    0    0  0.56823121802E+02 -0.59895940985E+02 -0.71009988761E+02  0.16585028647E+03  0.12509000000E+03 0.  0.
         25    1    3    3    0    0 -0.78147786288E+02  0.81137176323E+02 -0.68454312706E+02  0.18172456882E+03  0.12509000000E+03 0.  0.
         25    1    3    3    0    0  0.21324664486E+02 -0.21241235338E+02 -0.11785567730E+03  0.17448037186E+03  0.12509000000E+03 0.  0.
<mgrwt>
<rscale>  2 0.45423352E+03</rscale>
<asrwt>0</asrwt>
<pdfrwt beam="1">  1       21 0.19465827E-01 0.45423352E+03</pdfrwt>
<pdfrwt beam="2">  1       21 0.57307000E-01 0.45423352E+03</pdfrwt>
<totfact> 0.64136329E+04</totfact>
</mgrwt>
</event>
<event>
 6    0  0.1576925E-007  0.4560232E+03  0.7546771E-02  0.1025941E+00
         21   -1    0    0  502  501  0.00000000000E+00  0.00000000000E+00  0.19502728491E+03  0.19502728491E+03  0.00000000000E+00 0.  1.
         21   -1    0    0  501  502 -0.00000000000E+00 -0.00000000000E+00 -0.26657442152E+03  0.26657442152E+03  0.00000000000E+00 0.  1.
      99926    2    1    2    0    0 -0.71054273576E-14  0.71054273576E-14 -0.71547136609E+02  0.46160170643E+03  0.45602318211E+03 0.  0.
         25    1    3    3    0    0  0.57474529611E+02 -0.57526387343E+02 -0.21783446735E+02  0.15078008306E+03  0.12509000000E+03 0.  0.
         25    1    3    3    0    0 -0.57270668338E+02  0.55926106976E+02  0.43537442440E+02  0.15476005908E+03  0.12509000000E+03 0.  0.
         25    1    3    3    0    0 -0.20386127302E+00  0.16002803673E+01 -0.93301132314E+02  0.15606156429E+03  0.12509000000E+03 0.  0.
<mgrwt>
<rscale>  2 0.45602318E+03</rscale>
<asrwt>0</asrwt>
<pdfrwt beam="1">  1       21 0.28680483E-01 0.45602318E+03</pdfrwt>
<pdfrwt beam="2">  1       21 0.39202121E-01 0.45602318E+03</pdfrwt>
<totfact> 0.67511435E+04</totfact>
</mgrwt>
</event>
<event>
 6    0  0.1576925E-007  0.4531829E+03  0.7546771E-02  0.1026777E+00
         21   -1    0    0  502  501  0.00000000000E+00  0.00000000000E+00  0.20536103140E+03  0.20536103140E+03  0.00000000000E+00 0.  1.
         21   -1    0    0  501  502 -0.00000000000E+00 -0.00000000000E+00 -0.25001664983E+03  0.25001664983E+03  0.00000000000E+00 0.  1.
      99926    2    1    2    0    0  0.00000000000E+00  0.00000000000E+00 -0.44655618427E+02  0.45537768123E+03  0.45318286409E+03 0.  0.
         25    1    3    3    0    0 -0.10907301352E+02  0.24307945100E+02 -0.95221985773E+01  0.12824985686E+03  0.12509000000E+03 0.  0.
         25    1    3    3    0    0 -0.39800632692E+02  0.32162629028E+02 -0.98949727929E+02  0.16750248304E+03  0.12509000000E+03 0.  0.
         25    1    3    3    0    0  0.50707934044E+02 -0.56470574127E+02  0.63816308079E+02  0.15962534133E+03  0.12509000000E+03 0.  0.
<mgrwt>
<rscale>  2 0.45318286E+03</rscale>
<asrwt>0</asrwt>
<pdfrwt beam="1">  1       21 0.30200152E-01 0.45318286E+03</pdfrwt>
<pdfrwt beam="2">  1       21 0.36767154E-01 0.45318286E+03</pdfrwt>
<totfact> 0.69520594E+04</totfact>
</mgrwt>
</event>
<event>
 6    0  0.1576925E-007  0.4457367E+03  0.7546771E-02  0.1029001E+00
         21   -1    0    0  502  501  0.00000000000E+00  0.00000000000E+00  0.92218462901E+02  0.92218462901E+02  0.00000000000E+00 0.  1.
         21   -1    0    0  501  502 -0.00000000000E+00 -0.00000000000E+00 -0.53861553066E+03  0.53861553066E+03  0.00000000000E+00 0.  1.
      99926    2    1    2    0    0  0.35527136788E-14  0.19984014443E-14 -0.44639706776E+03  0.63083399356E+03  0.44573667712E+03 0.  0.
         25    1    3    3    0    0  0.22450738154E+02  0.76992631112E+00 -0.13041764315E+03  0.18210134040E+03  0.12509000000E+03 0.  0.
         25    1    3    3    0    0 -0.51143939548E+02  0.50493825140E+02 -0.26444667400E+03  0.30123890921E+03  0.12509000000E+03 0.  0.
         25    1    3    3    0    0  0.28693201394E+02 -0.51263751452E+02 -0.51532750598E+02  0.14749374395E+03  0.12509000000E+03 0.  0.
<mgrwt>
<rscale>  2 0.44573668E+03</rscale>
<asrwt>0</asrwt>
<pdfrwt beam="1">  1       21 0.13561539E-01 0.44573668E+03</pdfrwt>
<pdfrwt beam="2">  1       21 0.79208166E-01 0.44573668E+03</pdfrwt>
<totfact> 0.61170894E+04</totfact>
</mgrwt>
</event>
<event>
 6    0  0.1576925E-007  0.4449765E+03  0.7546771E-02  0.1029231E+00
         21   -1    0    0  502  501  0.00000000000E+00  0.00000000000E+00  0.10274257569E+03  0.10274257569E+03  0.00000000000E+00 0.  1.
         21   -1    0    0  501  502 -0.00000000000E+00 -0.00000000000E+00 -0.48179663811E+03  0.48179663811E+03  0.00000000000E+00 0.  1.
      99926    2    1    2    0    0  0.71054273576E-14  0.00000000000E+00 -0.37905406242E+03  0.58453921380E+03  0.44497652774E+03 0.  0.
         25    1    3    3    0    0 -0.57032043895E+02 -0.60485111861E+02 -0.18784410090E+03  0.24050783174E+03  0.12509000000E+03 0.  0.
         25    1    3    3    0    0  0.40240991729E+02  0.89532361677E+01 -0.34160016913E+02  0.13606583961E+03  0.12509000000E+03 0.  0.
         25    1    3    3    0    0  0.16791052167E+02  0.51531875694E+02 -0.15704994461E+03  0.20796554245E+03  0.12509000000E+03 0.  0.
<mgrwt>
<rscale>  2 0.44497653E+03</rscale>
<asrwt>0</asrwt>
<pdfrwt beam="1">  1       21 0.15109203E-01 0.44497653E+03</pdfrwt>
<pdfrwt beam="2">  1       21 0.70852445E-01 0.44497653E+03</pdfrwt>
<totfact> 0.64608968E+04</totfact>
</mgrwt>
</event>
<event>
 6    0  0.1576925E-007  0.4597865E+03  0.7546771E-02  0.1024843E+00
         21   -1    0    0  502  501  0.00000000000E+00  0.00000000000E+00  0.44082797077E+03  0.44082797077E+03  0.00000000000E+00 0.  1.
         21   -1    0    0  501  502 -0.00000000000E+00 -0.00000000000E+00 -0.11989008945E+03  0.11989008945E+03  0.00000000000E+00 0.  1.
      99926    2    1    2    0    0 -0.35527136788E-14  0.00000000000E+00  0.32093788132E+03  0.56071806021E+03  0.45978649326E+03 0.  0.
         25    1    3    3    0    0 -0.13735764392E+02 -0.52597188811E+01  0.17874737296E+03  0.21866519455E+03  0.12509000000E+03 0.  0.
         25    1    3    3    0    0 -0.19429810018E+02  0.65235117487E+02  0.13956182473E+03  0.19939445602E+03  0.12509000000E+03 0.  0.
         25    1    3    3    0    0  0.33165574410E+02 -0.59975398606E+02  0.26286836291E+01  0.14265840964E+03  0.12509000000E+03 0.  0.
<mgrwt>
<rscale>  2 0.45978649E+03</rscale>
<asrwt>0</asrwt>
<pdfrwt beam="1">  1       21 0.64827642E-01 0.45978649E+03</pdfrwt>
<pdfrwt beam="2">  1       21 0.17630896E-01 0.45978649E+03</pdfrwt>
<totfact> 0.58901839E+04</totfact>
</mgrwt>
</event>
<event>
 6    0  0.1576925E-007  0.4500234E+03  0.7546771E-02  0.1027715E+00
         21   -1    0    0  502  501  0.00000000000E+00  0.00000000000E+00  0.54728121522E+02  0.54728121522E+02  0.00000000000E+00 0. -1.
         21   -1    0    0  501  502 -0.00000000000E+00 -0.00000000000E+00 -0.92512332843E+03  0.92512332843E+03  0.00000000000E+00 0. -1.
      99926    2    1    2    0    0  0.00000000000E+00  0.00000000000E+00 -0.87039520691E+03  0.97985144995E+03  0.45002338580E+03 0.  0.
         25    1    3    3    0    0 -0.40042808563E+02 -0.33445059264E+01 -0.10596403469E+03  0.16879128231E+03  0.12509000000E+03 0.  0.
         25    1    3    3    0    0  0.34604274147E+02 -0.49943976352E+01 -0.52393908679E+03  0.53979817947E+03  0.12509000000E+03 0.  0.
         25    1    3    3    0    0  0.54385344156E+01  0.83389035616E+01 -0.24049208544E+03  0.27126198817E+03  0.12509000000E+03 0.  0.
<mgrwt>
<rscale>  2 0.45002339E+03</rscale>
<asrwt>0</asrwt>
<pdfrwt beam="1">  1       21 0.80482530E-02 0.45002339E+03</pdfrwt>
<pdfrwt beam="2">  1       21 0.13604755E+00 0.45002339E+03</pdfrwt>
<totfact> 0.41547843E+04</totfact>
</mgrwt>
</event>
<event>
 6    0  0.1576925E-007  0.4523274E+03  0.7546771E-02  0.1027030E+00
         21   -1    0    0  502  501  0.00000000000E+00  0.00000000000E+00  0.71073193138E+03  0.71073193138E+03  0.00000000000E+00 0. -1.
         21   -1    0    0  501  502 -0.00000000000E+00 -0.00000000000E+00 -0.71968074777E+02  0.71968074777E+02  0.00000000000E+00 0. -1.
      99926    2    1    2    0    0  0.71054273576E-14  0.71054273576E-14  0.63876385660E+03  0.78270000615E+03  0.45232735395E+03 0.  0.
         25    1    3    3    0    0  0.83714482931E+02 -0.35358223770E+02  0.26863633380E+03  0.30995371683E+03  0.12509000000E+03 0.  0.
         25    1    3    3    0    0 -0.50883557878E+02 -0.40275588266E+02  0.21513606911E+03  0.25718144529E+03  0.12509000000E+03 0.  0.
         25    1    3    3    0    0 -0.32830925053E+02  0.75633812036E+02  0.15499145369E+03  0.21556484403E+03  0.12509000000E+03 0.  0.
<mgrwt>
<rscale>  2 0.45232735E+03</rscale>
<asrwt>0</asrwt>
<pdfrwt beam="1">  1       21 0.10451940E+00 0.45232735E+03</pdfrwt>
<pdfrwt beam="2">  1       21 0.10583541E-01 0.45232735E+03</pdfrwt>
<totfact> 0.49646310E+04</totfact>
</mgrwt>
</event>
<event>
 6    0  0.1576925E-007  0.4598713E+03  0.7546771E-02  0.1024819E+00
         21   -1    0    0  502  501  0.00000000000E+00  0.00000000000E+00  0.20491402074E+04  0.20491402074E+04  0.00000000000E+00 0. -1.
         21   -1    0    0  501  502 -0.00000000000E+00 -0.00000000000E+00 -0.25801262743E+02  0.25801262743E+02  0.00000000000E+00 0. -1.
      99926    2    1    2    0    0  0.00000000000E+00 -0.26645352591E-14  0.20233389446E+04  0.20749414701E+04  0.45987130759E+03 0.  0.
         25    1    3    3    0    0 -0.63084611652E+02 -0.69540824662E+02  0.80871013042E+03  0.82369604690E+03  0.12509000000E+03 0.  0.
         25    1    3    3    0    0  0.81745760630E+02  0.75115937250E+02  0.81725140487E+03  0.83418951101E+03  0.12509000000E+03 0.  0.
         25    1    3    3    0    0 -0.18661148978E+02 -0.55751125880E+01  0.39737740932E+03  0.41705591220E+03  0.12509000000E+03 0.  0.
<mgrwt>
<rscale>  2 0.45987131E+03</rscale>
<asrwt>0</asrwt>
<pdfrwt beam="1">  1       21 0.30134404E+00 0.45987131E+03</pdfrwt>
<pdfrwt beam="2">  1       21 0.37943048E-02 0.45987131E+03</pdfrwt>
<totfact> 0.12062046E+04</totfact>
</mgrwt>
</event>
<event>
 6    0  0.1576925E-007  0.4588323E+03  0.7546771E-02  0.1025120E+00
         21   -1    0    0  502  501  0.00000000000E+00  0.00000000000E+00  0.50374675647E+03  0.50374675647E+03  0.00000000000E+00 0. -1.
         21   -1    0    0  501  502 -0.00000000000E+00 -0.00000000000E+00 -0.10448061179E+03  0.10448061179E+03  0.00000000000E+00 0. -1.
      99926    2    1    2    0    0  0.00000000000E+00  0.00000000000E+00  0.39926614468E+03  0.60822736825E+03  0.45883229747E+03 0.  0.
         25    1    3    3    0    0  0.66045206629E+02 -0.35270193906E+02  0.76456156659E+02  0.16461776298E+03  0.12509000000E+03 0.  0.
         25    1    3    3    0    0  0.17546515068E+02  0.19919811512E+02  0.61971154977E+02  0.14210070806E+03  0.12509000000E+03 0.  0.
         25    1    3    3    0    0 -0.83591721697E+02  0.15350382395E+02  0.26083883304E+03  0.30150889721E+03  0.12509000000E+03 0.  0.
<mgrwt>
<rscale>  2 0.45883230E+03</rscale>
<asrwt>0</asrwt>
<pdfrwt beam="1">  1       21 0.74080404E-01 0.45883230E+03</pdfrwt>
<pdfrwt beam="2">  1       21 0.15364796E-01 0.45883230E+03</pdfrwt>
<totfact> 0.56446367E+04</totfact>
</mgrwt>
</event>
<event>
 6    0  0.1576925E-007  0.4761459E+03  0.7546771E-02  0.1020200E+00
         21   -1    0    0  502  501  0.00000000000E+00  0.00000000000E+00  0.20811067087E+04  0.20811067087E+04  0.00000000000E+00 0.  1.
         21   -1    0    0  501  502 -0.00000000000E+00 -0.00000000000E+00 -0.27234903179E+02  0.27234903179E+02  0.00000000000E+00 0.  1.
      99926    2    1    2    0    0  0.71054273576E-14 -0.71054273576E-14  0.20538718056E+04  0.21083416119E+04  0.47614594283E+03 0.  0.
         25    1    3    3    0    0 -0.11071219348E+02  0.97936084942E+02  0.87049358431E+03  0.88494103592E+03  0.12509000000E+03 0.  0.
         25    1    3    3    0    0  0.56249992084E+02 -0.43518930412E+02  0.36206261672E+03  0.38960852845E+03  0.12509000000E+03 0.  0.
         25    1    3    3    0    0 -0.45178772735E+02 -0.54417154530E+02  0.82131560452E+03  0.83379204754E+03  0.12509000000E+03 0.  0.
<mgrwt>
<rscale>  2 0.47614594E+03</rscale>
<asrwt>0</asrwt>
<pdfrwt beam="1">  1       21 0.30604500E+00 0.47614594E+03</pdfrwt>
<pdfrwt beam="2">  1       21 0.40051342E-02 0.47614594E+03</pdfrwt>
<totfact> 0.10234233E+04</totfact>
</mgrwt>
</event>
<event>
 6    0  0.1576925E-007  0.4645248E+03  0.7546771E-02  0.1023477E+00
         21   -1    0    0  502  501  0.00000000000E+00  0.00000000000E+00  0.85827827281E+02  0.85827827281E+02  0.00000000000E+00 0. -1.
         21   -1    0    0  501  502 -0.00000000000E+00 -0.00000000000E+00 -0.62853545851E+03  0.62853545851E+03  0.00000000000E+00 0. -1.
      99926    2    1    2    0    0  0.00000000000E+00 -0.71054273576E-14 -0.54270763123E+03  0.71436328579E+03  0.46452484443E+03 0.  0.
         25    1    3    3    0    0 -0.34249240449E+02  0.38624173194E+02 -0.10630495054E+03  0.17208453689E+03  0.12509000000E+03 0.  0.
         25    1    3    3    0    0  0.10613926984E+03  0.35196487007E+01 -0.28547559707E+03  0.32927459233E+03  0.12509000000E+03 0.  0.
         25    1    3    3    0    0 -0.71890029392E+02 -0.42143821895E+02 -0.15092708362E+03  0.21300415658E+03  0.12509000000E+03 0.  0.
<mgrwt>
<rscale>  2 0.46452484E+03</rscale>
<asrwt>0</asrwt>
<pdfrwt beam="1">  1       21 0.12621740E-01 0.46452484E+03</pdfrwt>
<pdfrwt beam="2">  1       21 0.92431682E-01 0.46452484E+03</pdfrwt>
<totfact> 0.48400122E+04</totfact>
</mgrwt>
</event>
<event>
 6    0  0.1576925E-007  0.4625750E+03  0.7546771E-02  0.1024037E+00
         21   -1    0    0  502  501  0.00000000000E+00  0.00000000000E+00  0.92221107913E+02  0.92221107913E+02  0.00000000000E+00 0.  1.
         21   -1    0    0  501  502 -0.00000000000E+00 -0.00000000000E+00 -0.58006150808E+03  0.58006150808E+03  0.00000000000E+00 0.  1.
      99926    2    1    2    0    0  0.00000000000E+00 -0.14210854715E-13 -0.48784040017E+03  0.67228261599E+03  0.46257503146E+03 0.  0.
         25    1    3    3    0    0 -0.20486678216E+02 -0.10423990730E+01 -0.13275197141E+03  0.18355213045E+03  0.12509000000E+03 0.  0.
         25    1    3    3    0    0 -0.54491262430E+02  0.70512145055E+02 -0.89182280633E+02  0.17760137263E+03  0.12509000000E+03 0.  0.
         25    1    3    3    0    0  0.74977940646E+02 -0.69469745982E+02 -0.26590614812E+03  0.31112911291E+03  0.12509000000E+03 0.  0.
<mgrwt>
<rscale>  2 0.46257503E+03</rscale>
<asrwt>0</asrwt>
<pdfrwt beam="1">  1       21 0.13561927E-01 0.46257503E+03</pdfrwt>
<pdfrwt beam="2">  1       21 0.85303164E-01 0.46257503E+03</pdfrwt>
<totfact> 0.51301318E+04</totfact>
</mgrwt>
</event>
<event>
 6    0  0.1576925E-007  0.4845289E+03  0.7546771E-02  0.1017898E+00
         21   -1    0    0  502  501  0.00000000000E+00  0.00000000000E+00  0.70025864127E+02  0.70025864127E+02  0.00000000000E+00 0.  1.
         21   -1    0    0  501  502 -0.00000000000E+00 -0.00000000000E+00 -0.83814819882E+03  0.83814819882E+03  0.00000000000E+00 0.  1.
      99926    2    1    2    0    0  0.00000000000E+00 -0.17763568394E-14 -0.76812233469E+03  0.90817406295E+03  0.48452885111E+03 0.  0.
         25    1    3    3    0    0 -0.88998344839E+02  0.42956614577E+01 -0.41202175219E+03  0.43971421454E+03  0.12509000000E+03 0.  0.
         25    1    3    3    0    0  0.56684657792E+02 -0.67547131602E+02 -0.23489780374E+03  0.28035736431E+03  0.12509000000E+03 0.  0.
         25    1    3    3    0    0  0.32313687047E+02  0.63251470144E+02 -0.12120277876E+03  0.18810248410E+03  0.12509000000E+03 0.  0.
<mgrwt>
<rscale>  2 0.48452885E+03</rscale>
<asrwt>0</asrwt>
<pdfrwt beam="1">  1       21 0.10297922E-01 0.48452885E+03</pdfrwt>
<pdfrwt beam="2">  1       21 0.12325708E+00 0.48452885E+03</pdfrwt>
<totfact> 0.34250521E+04</totfact>
</mgrwt>
</event>
<event>
 6    0  0.1576925E-007  0.4519464E+03  0.7546771E-02  0.1027143E+00
         21   -1    0    0  502  501  0.00000000000E+00  0.00000000000E+00  0.65277605044E+02  0.65277605044E+02  0.00000000000E+00 0.  1.
         21   -1    0    0  501  502 -0.00000000000E+00 -0.00000000000E+00 -0.78225740286E+03  0.78225740286E+03  0.00000000000E+00 0.  1.
      99926    2    1    2    0    0  0.00000000000E+00  0.71054273576E-14 -0.71697979781E+03  0.84753500790E+03  0.45194641181E+03 0.  0.
         25    1    3    3    0    0  0.94235967621E+02  0.44917776472E+02 -0.23387212845E+03  0.28502930517E+03  0.12509000000E+03 0.  0.
         25    1    3    3    0    0 -0.43577469634E+02 -0.43312697154E+02 -0.33104800618E+03  0.35918696537E+03  0.12509000000E+03 0.  0.
         25    1    3    3    0    0 -0.50658497988E+02 -0.16050793178E+01 -0.15205966318E+03  0.20331873736E+03  0.12509000000E+03 0.  0.
<mgrwt>
<rscale>  2 0.45194641E+03</rscale>
<asrwt>0</asrwt>
<pdfrwt beam="1">  1       21 0.95996492E-02 0.45194641E+03</pdfrwt>
<pdfrwt beam="2">  1       21 0.11503784E+00 0.45194641E+03</pdfrwt>
<totfact> 0.46657507E+04</totfact>
</mgrwt>
</event>
<event>
 6    0  0.1576925E-007  0.4589527E+03  0.7546771E-02  0.1025085E+00
         21   -1    0    0  502  501  0.00000000000E+00  0.00000000000E+00  0.18196311942E+03  0.18196311942E+03  0.00000000000E+00 0.  1.
         21   -1    0    0  501  502 -0.00000000000E+00 -0.00000000000E+00 -0.28939601627E+03  0.28939601627E+03  0.00000000000E+00 0.  1.
      99926    2    1    2    0    0 -0.35527136788E-14 -0.71054273576E-14 -0.10743289685E+03  0.47135913569E+03  0.45895272902E+03 0.  0.
         25    1    3    3    0    0 -0.53401829807E+02  0.62318538334E+02 -0.10394490691E+03  0.18217411292E+03  0.12509000000E+03 0.  0.
         25    1    3    3    0    0  0.23814683429E+02 -0.92155000529E+02 -0.20267043523E+00  0.15718534424E+03  0.12509000000E+03 0.  0.
         25    1    3    3    0    0  0.29587146378E+02  0.29836462196E+02 -0.32853195068E+01  0.13199967853E+03  0.12509000000E+03 0.  0.
<mgrwt>
<rscale>  2 0.45895273E+03</rscale>
<asrwt>0</asrwt>
<pdfrwt beam="1">  1       21 0.26759282E-01 0.45895273E+03</pdfrwt>
<pdfrwt beam="2">  1       21 0.42558237E-01 0.45895273E+03</pdfrwt>
<totfact> 0.65264379E+04</totfact>
</mgrwt>
</event>
<event>
 6    0  0.1576925E-007  0.4579633E+03  0.7546771E-02  0.1025374E+00
         21   -1    0    0  502  501  0.00000000000E+00  0.00000000000E+00  0.71805507379E+02  0.71805507379E+02  0.00000000000E+00 0.  1.
         21   -1    0    0  501  502 -0.00000000000E+00 -0.00000000000E+00 -0.73020287979E+03  0.73020287979E+03  0.00000000000E+00 0.  1.
      99926    2    1    2    0    0  0.00000000000E+00  0.71054273576E-14 -0.65839737241E+03  0.80200838717E+03  0.45796326609E+03 0.  0.
         25    1    3    3    0    0 -0.69480232587E+02 -0.73499838632E+02 -0.31318606604E+03  0.35208344048E+03  0.12509000000E+03 0.  0.
         25    1    3    3    0    0  0.84654769458E+02  0.55517483264E+02 -0.20361753711E+03  0.25953078904E+03  0.12509000000E+03 0.  0.
         25    1    3    3    0    0 -0.15174536871E+02  0.17982355368E+02 -0.14159376927E+03  0.19039415765E+03  0.12509000000E+03 0.  0.
<mgrwt>
<rscale>  2 0.45796327E+03</rscale>
<asrwt>0</asrwt>
<pdfrwt beam="1">  1       21 0.10559634E-01 0.45796327E+03</pdfrwt>
<pdfrwt beam="2">  1       21 0.10738278E+00 0.45796327E+03</pdfrwt>
<totfact> 0.46575240E+04</totfact>
</mgrwt>
</event>
<event>
 6    0  0.1576925E-007  0.4878355E+03  0.7546771E-02  0.1017004E+00
         21   -1    0    0  502  501  0.00000000000E+00  0.00000000000E+00  0.50175847673E+03  0.50175847673E+03  0.00000000000E+00 0. -1.
         21   -1    0    0  501  502 -0.00000000000E+00 -0.00000000000E+00 -0.11857472270E+03  0.11857472270E+03  0.00000000000E+00 0. -1.
      99926    2    1    2    0    0  0.17763568394E-14  0.00000000000E+00  0.38318375403E+03  0.62033319943E+03  0.48783551425E+03 0.  0.
         25    1    3    3    0    0 -0.51198967363E+02  0.78013852123E+02  0.27172937861E+03  0.31335580205E+03  0.12509000000E+03 0.  0.
         25    1    3    3    0    0  0.46485068609E+02  0.10832843588E+01  0.80015307908E+02  0.15560203311E+03  0.12509000000E+03 0.  0.
         25    1    3    3    0    0  0.47138987541E+01 -0.79097136482E+02  0.31439067515E+02  0.15137536427E+03  0.12509000000E+03 0.  0.
<mgrwt>
<rscale>  2 0.48783551E+03</rscale>
<asrwt>0</asrwt>
<pdfrwt beam="1">  1       21 0.73788011E-01 0.48783551E+03</pdfrwt>
<pdfrwt beam="2">  1       21 0.17437459E-01 0.48783551E+03</pdfrwt>
<totfact> 0.44679388E+04</totfact>
</mgrwt>
</event>
<event>
 6    0  0.1576925E-007  0.4529507E+03  0.7546771E-02  0.1026846E+00
         21   -1    0    0  502  501  0.00000000000E+00  0.00000000000E+00  0.22085953736E+03  0.22085953736E+03  0.00000000000E+00 0.  1.
         21   -1    0    0  501  502 -0.00000000000E+00 -0.00000000000E+00 -0.23223399912E+03  0.23223399912E+03  0.00000000000E+00 0.  1.
      99926    2    1    2    0    0  0.00000000000E+00  0.00000000000E+00 -0.11374461767E+02  0.45309353648E+03  0.45295074172E+03 0.  0.
         25    1    3    3    0    0  0.15464862841E+02 -0.10045328152E+03 -0.12595769365E+02  0.16166689598E+03  0.12509000000E+03 0.  0.
         25    1    3    3    0    0  0.67787564639E+01  0.10596147522E+03 -0.43252803467E+01  0.16413409737E+03  0.12509000000E+03 0.  0.
         25    1    3    3    0    0 -0.22243619305E+02 -0.55081937033E+01  0.55465879442E+01  0.12729254313E+03  0.12509000000E+03 0.  0.
<mgrwt>
<rscale>  2 0.45295074E+03</rscale>
<asrwt>0</asrwt>
<pdfrwt beam="1">  1       21 0.32479344E-01 0.45295074E+03</pdfrwt>
<pdfrwt beam="2">  1       21 0.34152059E-01 0.45295074E+03</pdfrwt>
<totfact> 0.69820352E+04</totfact>
</mgrwt>
</event>
<event>
 6    0  0.1576925E-007  0.4540327E+03  0.7546771E-02  0.1026526E+00
         21   -1    0    0  502  501  0.00000000000E+00  0.00000000000E+00  0.74760298170E+02  0.74760298170E+02  0.00000000000E+00 0.  1.
         21   -1    0    0  501  502 -0.00000000000E+00 -0.00000000000E+00 -0.68935550879E+03  0.68935550879E+03  0.00000000000E+00 0.  1.
      99926    2    1    2    0    0  0.71054273576E-14  0.17763568394E-14 -0.61459521062E+03  0.76411580696E+03  0.45403270095E+03 0.  0.
         25    1    3    3    0    0  0.47221241290E+01 -0.15916883701E+02 -0.18730580368E+03  0.22584644747E+03  0.12509000000E+03 0.  0.
         25    1    3    3    0    0 -0.56928541177E+02  0.75657920006E+01 -0.36259847053E+03  0.38784437464E+03  0.12509000000E+03 0.  0.
         25    1    3    3    0    0  0.52206417048E+02  0.83510917006E+01 -0.64690936411E+02  0.15042498485E+03  0.12509000000E+03 0.  0.
<mgrwt>
<rscale>  2 0.45403270E+03</rscale>
<asrwt>0</asrwt>
<pdfrwt beam="1">  1       21 0.10994161E-01 0.45403270E+03</pdfrwt>
<pdfrwt beam="2">  1       21 0.10137581E+00 0.45403270E+03</pdfrwt>
<totfact> 0.49927296E+04</totfact>
</mgrwt>
</event>
<event>
 6    0  0.1576925E-007  0.4339104E+03  0.7546771E-02  0.1032632E+00
         21   -1    0    0  502  501  0.00000000000E+00  0.00000000000E+00  0.45808950243E+03  0.45808950243E+03  0.00000000000E+00 0.  1.
         21   -1    0    0  501  502 -0.00000000000E+00 -0.00000000000E+00 -0.10275188649E+03  0.10275188649E+03  0.00000000000E+00 0.  1.
      99926    2    1    2    0    0  0.00000000000E+00  0.00000000000E+00  0.35533761594E+03  0.56084138892E+03  0.43391040806E+03 0.  0.
         25    1    3    3    0    0 -0.66915877781E+01  0.33025199431E+02  0.84741594610E+02  0.15480338207E+03  0.12509000000E+03 0.  0.
         25    1    3    3    0    0  0.47554262618E+02  0.26213569857E+02  0.20803761325E+03  0.24874829802E+03  0.12509000000E+03 0.  0.
         25    1    3    3    0    0 -0.40862674840E+02 -0.59238769288E+02  0.62558408071E+02  0.15728970882E+03  0.12509000000E+03 0.  0.
<mgrwt>
<rscale>  2 0.43391041E+03</rscale>
<asrwt>0</asrwt>
<pdfrwt beam="1">  1       21 0.67366102E-01 0.43391041E+03</pdfrwt>
<pdfrwt beam="2">  1       21 0.15110572E-01 0.43391041E+03</pdfrwt>
<totfact> 0.72515821E+04</totfact>
</mgrwt>
</event>
<event>
 6    0  0.1576925E-007  0.4533461E+03  0.7546771E-02  0.1026729E+00
         21   -1    0    0  502  501  0.00000000000E+00  0.00000000000E+00  0.82967126364E+02  0.82967126364E+02  0.00000000000E+00 0. -1.
         21   -1    0    0  501  502 -0.00000000000E+00 -0.00000000000E+00 -0.61928945860E+03  0.61928945860E+03  0.00000000000E+00 0. -1.
      99926    2    1    2    0    0 -0.71054273576E-14 -0.71054273576E-14 -0.53632233223E+03  0.70225658496E+03  0.45334607870E+03 0.  0.
         25    1    3    3    0    0 -0.49930399782E+02 -0.38797393673E+02 -0.26579560321E+03  0.30048809188E+03  0.12509000000E+03 0.  0.
         25    1    3    3    0    0  0.88644776797E+02  0.36992495998E+02 -0.19426374155E+03  0.25022440048E+03  0.12509000000E+03 0.  0.
         25    1    3    3    0    0 -0.38714377015E+02  0.18048976751E+01 -0.76262987473E+02  0.15154409260E+03  0.12509000000E+03 0.  0.
<mgrwt>
<rscale>  2 0.45334608E+03</rscale>
<asrwt>0</asrwt>
<pdfrwt beam="1">  1       21 0.12201048E-01 0.45334608E+03</pdfrwt>
<pdfrwt beam="2">  1       21 0.91071978E-01 0.45334608E+03</pdfrwt>
<totfact> 0.53473177E+04</totfact>
</mgrwt>
</event>
<event>
 6    0  0.1576925E-007  0.4549204E+03  0.7546771E-02  0.1026265E+00
         21   -1    0    0  502  501  0.00000000000E+00  0.00000000000E+00  0.12237182200E+03  0.12237182200E+03  0.00000000000E+00 0.  1.
         21   -1    0    0  501  502 -0.00000000000E+00 -0.00000000000E+00 -0.42279453307E+03  0.42279453307E+03  0.00000000000E+00 0.  1.
      99926    2    1    2    0    0  0.35527136788E-14  0.00000000000E+00 -0.30042271107E+03  0.54516635507E+03  0.45492037696E+03 0.  0.
         25    1    3    3    0    0 -0.15687530184E+02  0.10630324783E+03 -0.82610113351E+02  0.18444082528E+03  0.12509000000E+03 0.  0.
         25    1    3    3    0    0  0.20129240039E+02 -0.10137424948E+03 -0.12121781882E+03  0.20254182892E+03  0.12509000000E+03 0.  0.
         25    1    3    3    0    0 -0.44417098554E+01 -0.49289983539E+01 -0.96594778891E+02  0.15818370087E+03  0.12509000000E+03 0.  0.
<mgrwt>
<rscale>  2 0.45492038E+03</rscale>
<asrwt>0</asrwt>
<pdfrwt beam="1">  1       21 0.17995856E-01 0.45492038E+03</pdfrwt>
<pdfrwt beam="2">  1       21 0.62175667E-01 0.45492038E+03</pdfrwt>
<totfact> 0.62226254E+04</totfact>
</mgrwt>
</event>
<event>
 6    0  0.1576925E-007  0.4551656E+03  0.7546771E-02  0.1026193E+00
         21   -1    0    0  502  501  0.00000000000E+00  0.00000000000E+00  0.64314216711E+02  0.64314216711E+02  0.00000000000E+00 0.  1.
         21   -1    0    0  501  502 -0.00000000000E+00 -0.00000000000E+00 -0.80532614133E+03  0.80532614133E+03  0.00000000000E+00 0.  1.
      99926    2    1    2    0    0  0.71054273576E-14  0.00000000000E+00 -0.74101192462E+03  0.86964035804E+03  0.45516555220E+03 0.  0.
         25    1    3    3    0    0 -0.45708218714E+02 -0.40492259092E+02 -0.29712932704E+03  0.32811919998E+03  0.12509000000E+03 0.  0.
         25    1    3    3    0    0  0.91701827614E+02  0.75071978111E+02 -0.23761004463E+03  0.29351502260E+03  0.12509000000E+03 0.  0.
         25    1    3    3    0    0 -0.45993608900E+02 -0.34579719019E+02 -0.20627255295E+03  0.24800613546E+03  0.12509000000E+03 0.  0.
<mgrwt>
<rscale>  2 0.45516555E+03</rscale>
<asrwt>0</asrwt>
<pdfrwt beam="1">  1       21 0.94579740E-02 0.45516555E+03</pdfrwt>
<pdfrwt beam="2">  1       21 0.11843030E+00 0.45516555E+03</pdfrwt>
<totfact> 0.44514618E+04</totfact>
</mgrwt>
</event>
<event>
 6    0  0.1576925E-007  0.4490767E+03  0.7546771E-02  0.1027998E+00
         21   -1    0    0  502  501  0.00000000000E+00  0.00000000000E+00  0.18009729894E+03  0.18009729894E+03  0.00000000000E+00 0.  1.
         21   -1    0    0  501  502 -0.00000000000E+00 -0.00000000000E+00 -0.27994578482E+03  0.27994578482E+03  0.00000000000E+00 0.  1.
      99926    2    1    2    0    0 -0.88817841970E-15  0.71054273576E-14 -0.99848485872E+02  0.46004308376E+03  0.44907674042E+03 0.  0.
         25    1    3    3    0    0 -0.47661307866E+01 -0.43275950296E+02  0.91009559242E+01  0.13276241703E+03  0.12509000000E+03 0.  0.
         25    1    3    3    0    0  0.31552302521E+01  0.98604014486E+02 -0.12287379184E+02  0.15978483951E+03  0.12509000000E+03 0.  0.
         25    1    3    3    0    0  0.16109005345E+01 -0.55328064189E+02 -0.96662062612E+02  0.16749582722E+03  0.12509000000E+03 0.  0.
<mgrwt>
<rscale>  2 0.44907674E+03</rscale>
<asrwt>0</asrwt>
<pdfrwt beam="1">  1       21 0.26484897E-01 0.44907674E+03</pdfrwt>
<pdfrwt beam="2">  1       21 0.41168497E-01 0.44907674E+03</pdfrwt>
<totfact> 0.71483850E+04</totfact>
</mgrwt>
</event>
<event>
 6    0  0.1576925E-007  0.4505168E+03  0.7546771E-02  0.1027568E+00
         21   -1    0    0  502  501  0.00000000000E+00  0.00000000000E+00  0.66950318753E+03  0.66950318753E+03  0.00000000000E+00 0.  1.
         21   -1    0    0  501  502 -0.00000000000E+00 -0.00000000000E+00 -0.75789546173E+02  0.75789546173E+02  0.00000000000E+00 0.  1.
      99926    2    1    2    0    0 -0.44408920985E-15  0.00000000000E+00  0.59371364135E+03  0.74529273370E+03  0.45051678213E+03 0.  0.
         25    1    3    3    0    0  0.45416749421E+02 -0.26342654239E+02  0.29549866763E+03  0.32515163729E+03  0.12509000000E+03 0.  0.
         25    1    3    3    0    0 -0.47727077223E+02  0.72868948316E+02  0.21246268443E+03  0.26148739531E+03  0.12509000000E+03 0.  0.
         25    1    3    3    0    0  0.23103278011E+01 -0.46526294077E+02  0.85752289292E+02  0.15865370110E+03  0.12509000000E+03 0.  0.
<mgrwt>
<rscale>  2 0.45051678E+03</rscale>
<asrwt>0</asrwt>
<pdfrwt beam="1">  1       21 0.98456348E-01 0.45051678E+03</pdfrwt>
<pdfrwt beam="2">  1       21 0.11145522E-01 0.45051678E+03</pdfrwt>
<totfact> 0.52331797E+04</totfact>
</mgrwt>
</event>
<event>
 6    0  0.1576925E-007  0.4532101E+03  0.7546771E-02  0.1026769E+00
         21   -1    0    0  502  501  0.00000000000E+00  0.00000000000E+00  0.81166937016E+03  0.81166937016E+03  0.00000000000E+00 0.  1.
         21   -1    0    0  501  502 -0.00000000000E+00 -0.00000000000E+00 -0.63264486417E+02  0.63264486417E+02  0.00000000000E+00 0.  1.
      99926    2    1    2    0    0 -0.53290705182E-14  0.00000000000E+00  0.74840488374E+03  0.87493385657E+03  0.45321008746E+03 0.  0.
         25    1    3    3    0    0 -0.82972256350E+02 -0.52171234504E+02  0.22196516517E+03  0.27298768412E+03  0.12509000000E+03 0.  0.
         25    1    3    3    0    0  0.34123885594E+01  0.68650088314E+02  0.25706322542E+03  0.29402974167E+03  0.12509000000E+03 0.  0.
         25    1    3    3    0    0  0.79559867790E+02 -0.16478853810E+02  0.26937649315E+03  0.30791643078E+03  0.12509000000E+03 0.  0.
<mgrwt>
<rscale>  2 0.45321009E+03</rscale>
<asrwt>0</asrwt>
<pdfrwt beam="1">  1       21 0.11936314E+00 0.45321009E+03</pdfrwt>
<pdfrwt beam="2">  1       21 0.93036014E-02 0.45321009E+03</pdfrwt>
<totfact> 0.44962287E+04</totfact>
</mgrwt>
</event>
<event>
 6    0  0.1576925E-007  0.4522363E+03  0.7546771E-02  0.1027057E+00
         21   -1    0    0  502  501  0.00000000000E+00  0.00000000000E+00  0.33201768945E+03  0.33201768945E+03  0.00000000000E+00 0. -1.
         21   -1    0    0  501  502 -0.00000000000E+00 -0.00000000000E+00 -0.15399605276E+03  0.15399605276E+03  0.00000000000E+00 0. -1.
      99926    2    1    2    0    0 -0.35527136788E-14 -0.35527136788E-14  0.17802163669E+03  0.48601374222E+03  0.45223628171E+03 0.  0.
         25    1    3    3    0    0 -0.36655675383E+02 -0.69438316836E+02  0.79584734135E+02  0.16776935474E+03  0.12509000000E+03 0.  0.
         25    1    3    3    0    0  0.23720606496E+02 -0.10008456821E+02 -0.18484660094E+02  0.12904273377E+03  0.12509000000E+03 0.  0.
         25    1    3    3    0    0  0.12935068887E+02  0.79446773656E+02  0.11692156265E+03  0.18920165370E+03  0.12509000000E+03 0.  0.
<mgrwt>
<rscale>  2 0.45223628E+03</rscale>
<asrwt>0</asrwt>
<pdfrwt beam="1">  1       21 0.48826131E-01 0.45223628E+03</pdfrwt>
<pdfrwt beam="2">  1       21 0.22646478E-01 0.45223628E+03</pdfrwt>
<totfact> 0.67738923E+04</totfact>
</mgrwt>
</event>
<event>
 6    0  0.1576925E-007  0.4527845E+03  0.7546771E-02  0.1026895E+00
         21   -1    0    0  502  501  0.00000000000E+00  0.00000000000E+00  0.33881767346E+03  0.33881767346E+03  0.00000000000E+00 0. -1.
         21   -1    0    0  501  502 -0.00000000000E+00 -0.00000000000E+00 -0.15127144935E+03  0.15127144935E+03  0.00000000000E+00 0. -1.
      99926    2    1    2    0    0  0.00000000000E+00  0.00000000000E+00  0.18754622411E+03  0.49008912281E+03  0.45278445437E+03 0.  0.
         25    1    3    3    0    0 -0.42505410411E+02  0.70813225809E+02  0.74172417029E+02  0.16724317149E+03  0.12509000000E+03 0.  0.
         25    1    3    3    0    0 -0.24419171404E+02 -0.26235038084E+02  0.11569848846E+03  0.17412128384E+03  0.12509000000E+03 0.  0.
         25    1    3    3    0    0  0.66924581815E+02 -0.44578187725E+02 -0.23246813771E+01  0.14872466747E+03  0.12509000000E+03 0.  0.
<mgrwt>
<rscale>  2 0.45278445E+03</rscale>
<asrwt>0</asrwt>
<pdfrwt beam="1">  1       21 0.49826128E-01 0.45278445E+03</pdfrwt>
<pdfrwt beam="2">  1       21 0.22245801E-01 0.45278445E+03</pdfrwt>
<totfact> 0.67145941E+04</totfact>
</mgrwt>
</event>
<event>
 6    0  0.1576925E-007  0.4565702E+03  0.7546771E-02  0.1025781E+00
         21   -1    0    0  502  501  0.00000000000E+00  0.00000000000E+00  0.86525806143E+03  0.86525806143E+03  0.00000000000E+00 0. -1.
         21   -1    0    0  501  502 -0.00000000000E+00 -0.00000000000E+00 -0.60229536248E+02  0.60229536248E+02  0.00000000000E+00 0. -1.
      99926    2    1    2    0    0  0.00000000000E+00 -0.35527136788E-14  0.80502852518E+03  0.92548759768E+03  0.45657022143E+03 0.  0.
         25    1    3    3    0    0 -0.87219885599E+02  0.38090045230E+02  0.20505797367E+03  0.25836880743E+03  0.12509000000E+03 0.  0.
         25    1    3    3    0    0  0.91007733957E+01 -0.29794385909E+02  0.38724354332E+03  0.40813674112E+03  0.12509000000E+03 0.  0.
         25    1    3    3    0    0  0.78119112203E+02 -0.82956593212E+01  0.21272700819E+03  0.25898204913E+03  0.12509000000E+03 0.  0.
<mgrwt>
<rscale>  2 0.45657022E+03</rscale>
<asrwt>0</asrwt>
<pdfrwt beam="1">  1       21 0.12724382E+00 0.45657022E+03</pdfrwt>
<pdfrwt beam="2">  1       21 0.88572853E-02 0.45657022E+03</pdfrwt>
<totfact> 0.41635971E+04</totfact>
</mgrwt>
</event>
<event>
 6    0  0.1576925E-007  0.4538310E+03  0.7546771E-02  0.1026586E+00
         21   -1    0    0  502  501  0.00000000000E+00  0.00000000000E+00  0.61338110225E+03  0.61338110225E+03  0.00000000000E+00 0.  1.
         21   -1    0    0  501  502 -0.00000000000E+00 -0.00000000000E+00 -0.83945588051E+02  0.83945588051E+02  0.00000000000E+00 0.  1.
      99926    2    1    2    0    0 -0.71054273576E-14  0.14210854715E-13  0.52943551419E+03  0.69732669030E+03  0.45383096998E+03 0.  0.
         25    1    3    3    0    0  0.31931216431E+02 -0.21379291937E+02  0.84534388457E+02  0.15578911271E+03  0.12509000000E+03 0.  0.
         25    1    3    3    0    0 -0.58180300313E+02  0.85660438013E+02  0.19686732608E+03  0.25519974562E+03  0.12509000000E+03 0.  0.
         25    1    3    3    0    0  0.26249083881E+02 -0.64281146076E+02  0.24803379966E+03  0.28633783197E+03  0.12509000000E+03 0.  0.
<mgrwt>
<rscale>  2 0.45383097E+03</rscale>
<asrwt>0</asrwt>
<pdfrwt beam="1">  1       21 0.90203101E-01 0.45383097E+03</pdfrwt>
<pdfrwt beam="2">  1       21 0.12344940E-01 0.45383097E+03</pdfrwt>
<totfact> 0.53539252E+04</totfact>
</mgrwt>
</event>
<event>
 6    0  0.1576925E-007  0.4343447E+03  0.7546771E-02  0.1032496E+00
         21   -1    0    0  502  501  0.00000000000E+00  0.00000000000E+00  0.36524809149E+02  0.36524809149E+02  0.00000000000E+00 0. -1.
         21   -1    0    0  501  502 -0.00000000000E+00 -0.00000000000E+00 -0.12912820222E+04  0.12912820222E+04  0.00000000000E+00 0. -1.
      99926    2    1    2    0    0  0.00000000000E+00 -0.88817841970E-15 -0.12547572130E+04  0.13278068313E+04  0.43434469914E+03 0.  0.
         25    1    3    3    0    0  0.19015117015E+02  0.16326578030E+02 -0.29010478113E+03  0.31691706164E+03  0.12509000000E+03 0.  0.
         25    1    3    3    0    0 -0.91674267468E+02 -0.19045080737E+02 -0.54738295498E+03  0.56924730471E+03  0.12509000000E+03 0.  0.
         25    1    3    3    0    0  0.72659150453E+02  0.27185027070E+01 -0.41726947690E+03  0.44164246496E+03  0.12509000000E+03 0.  0.
<mgrwt>
<rscale>  2 0.43434470E+03</rscale>
<asrwt>0</asrwt>
<pdfrwt beam="1">  1       21 0.53712952E-02 0.43434470E+03</pdfrwt>
<pdfrwt beam="2">  1       21 0.18989442E+00 0.43434470E+03</pdfrwt>
<totfact> 0.33362971E+04</totfact>
</mgrwt>
</event>
<event>
 6    0  0.1576925E-007  0.4703616E+03  0.7546771E-02  0.1021818E+00
         21   -1    0    0  502  501  0.00000000000E+00  0.00000000000E+00  0.10174564561E+04  0.10174564561E+04  0.00000000000E+00 0. -1.
         21   -1    0    0  501  502 -0.00000000000E+00 -0.00000000000E+00 -0.54361049692E+02  0.54361049692E+02  0.00000000000E+00 0. -1.
      99926    2    1    2    0    0  0.00000000000E+00  0.44408920985E-15  0.96309540639E+03  0.10718175058E+04  0.47036156718E+03 0.  0.
         25    1    3    3    0    0  0.34171067023E+02  0.40517252114E+02  0.51244065403E+03  0.53014360464E+03  0.12509000000E+03 0.  0.
         25    1    3    3    0    0 -0.56742013250E+02 -0.37408546789E+02  0.11586203752E+03  0.18354992585E+03  0.12509000000E+03 0.  0.
         25    1    3    3    0    0  0.22570946227E+02 -0.31087053248E+01  0.33479271485E+03  0.35812397529E+03  0.12509000000E+03 0.  0.
<mgrwt>
<rscale>  2 0.47036157E+03</rscale>
<asrwt>0</asrwt>
<pdfrwt beam="1">  1       21 0.14962594E+00 0.47036157E+03</pdfrwt>
<pdfrwt beam="2">  1       21 0.79942726E-02 0.47036157E+03</pdfrwt>
<totfact> 0.32422316E+04</totfact>
</mgrwt>
</event>
<event>
 6    0  0.1576925E-007  0.4476439E+03  0.7546771E-02  0.1028427E+00
         21   -1    0    0  502  501  0.00000000000E+00  0.00000000000E+00  0.38146767349E+03  0.38146767349E+03  0.00000000000E+00 0. -1.
         21   -1    0    0  501  502 -0.00000000000E+00 -0.00000000000E+00 -0.13132506159E+03  0.13132506159E+03  0.00000000000E+00 0. -1.
      99926    2    1    2    0    0  0.00000000000E+00  0.00000000000E+00  0.25014261191E+03  0.51279273508E+03  0.44764390185E+03 0.  0.
         25    1    3    3    0    0 -0.38903462147E+02  0.10033587723E+03  0.81288858161E+02  0.18394606326E+03  0.12509000000E+03 0.  0.
         25    1    3    3    0    0  0.54676621095E+02 -0.65128127318E+02  0.92657996007E+02  0.17738156101E+03  0.12509000000E+03 0.  0.
         25    1    3    3    0    0 -0.15773158948E+02 -0.35207749915E+02  0.76195757737E+02  0.15146511082E+03  0.12509000000E+03 0.  0.
<mgrwt>
<rscale>  2 0.44764390E+03</rscale>
<asrwt>0</asrwt>
<pdfrwt beam="1">  1       21 0.56098187E-01 0.44764390E+03</pdfrwt>
<pdfrwt beam="2">  1       21 0.19312509E-01 0.44764390E+03</pdfrwt>
<totfact> 0.68280082E+04</totfact>
</mgrwt>
</event>
<event>
 6    0  0.1576925E-007  0.4887729E+03  0.7546771E-02  0.1016752E+00
         21   -1    0    0  502  501  0.00000000000E+00  0.00000000000E+00  0.12032600480E+03  0.12032600480E+03  0.00000000000E+00 0. -1.
         21   -1    0    0  501  502 -0.00000000000E+00 -0.00000000000E+00 -0.49635765957E+03  0.49635765957E+03  0.00000000000E+00 0. -1.
      99926    2    1    2    0    0  0.00000000000E+00  0.35527136788E-14 -0.37603165477E+03  0.61668366437E+03  0.48877288848E+03 0.  0.
         25    1    3    3    0    0 -0.68456803120E+01 -0.94028791907E+02 -0.47460000217E+02  0.16367112380E+03  0.12509000000E+03 0.  0.
         25    1    3    3    0    0 -0.31768951847E+02  0.65414493105E+02 -0.27090889463E+03  0.30712775762E+03  0.12509000000E+03 0.  0.
         25    1    3    3    0    0  0.38614632159E+02  0.28614298803E+02 -0.57662759914E+02  0.14588478294E+03  0.12509000000E+03 0.  0.
<mgrwt>
<rscale>  2 0.48877289E+03</rscale>
<asrwt>0</asrwt>
<pdfrwt beam="1">  1       21 0.17695001E-01 0.48877289E+03</pdfrwt>
<pdfrwt beam="2">  1       21 0.72993773E-01 0.48877289E+03</pdfrwt>
<totfact> 0.44538020E+04</totfact>
</mgrwt>
</event>
<event>
 6    0  0.1576925E-007  0.4459567E+03  0.7546771E-02  0.1028935E+00
         21   -1    0    0  502  501  0.00000000000E+00  0.00000000000E+00  0.26979009843E+03  0.26979009843E+03  0.00000000000E+00 0. -1.
         21   -1    0    0  501  502 -0.00000000000E+00 -0.00000000000E+00 -0.18428899686E+03  0.18428899686E+03  0.00000000000E+00 0. -1.
      99926    2    1    2    0    0  0.00000000000E+00  0.00000000000E+00  0.85501101565E+02  0.45407909529E+03  0.44595670913E+03 0.  0.
         25    1    3    3    0    0  0.94885721640E+02 -0.16020013075E+02  0.69237766102E+02  0.17234070136E+03  0.12509000000E+03 0.  0.
         25    1    3    3    0    0 -0.45866052461E+02  0.36601693841E+02 -0.23428926121E+02  0.14014207591E+03  0.12509000000E+03 0.  0.
         25    1    3    3    0    0 -0.49019669179E+02 -0.20581680766E+02  0.39692261583E+02  0.14159631803E+03  0.12509000000E+03 0.  0.
<mgrwt>
<rscale>  2 0.44595671E+03</rscale>
<asrwt>0</asrwt>
<pdfrwt beam="1">  1       21 0.39675015E-01 0.44595671E+03</pdfrwt>
<pdfrwt beam="2">  1       21 0.27101323E-01 0.44595671E+03</pdfrwt>
<totfact> 0.73792069E+04</totfact>
</mgrwt>
</event>
<event>
 6    0  0.1576925E-007  0.4593696E+03  0.7546771E-02  0.1024964E+00
         21   -1    0    0  502  501  0.00000000000E+00  0.00000000000E+00  0.62774816545E+03  0.62774816545E+03  0.00000000000E+00 0.  1.
         21   -1    0    0  501  502 -0.00000000000E+00 -0.00000000000E+00 -0.84038660059E+02  0.84038660059E+02  0.00000000000E+00 0.  1.
      99926    2    1    2    0    0  0.00000000000E+00  0.00000000000E+00  0.54370950539E+03  0.71178682551E+03  0.45936963190E+03 0.  0.
         25    1    3    3    0    0  0.26801172740E+02 -0.18785714297E+02  0.11897095926E+03  0.17570658260E+03  0.12509000000E+03 0.  0.
         25    1    3    3    0    0 -0.16160317050E+02 -0.26880207185E+02  0.50126532581E+02  0.13836140630E+03  0.12509000000E+03 0.  0.
         25    1    3    3    0    0 -0.10640855690E+02  0.45665921482E+02  0.37461201355E+03  0.39771883660E+03  0.12509000000E+03 0.  0.
<mgrwt>
<rscale>  2 0.45936963E+03</rscale>
<asrwt>0</asrwt>
<pdfrwt beam="1">  1       21 0.92315904E-01 0.45936963E+03</pdfrwt>
<pdfrwt beam="2">  1       21 0.12358627E-01 0.45936963E+03</pdfrwt>
<totfact> 0.50508799E+04</totfact>
</mgrwt>
</event>
<event>
 6    0  0.1576925E-007  0.4528965E+03  0.7546771E-02  0.1026862E+00
         21   -1    0    0  502  501  0.00000000000E+00  0.00000000000E+00  0.25751781078E+03  0.25751781078E+03  0.00000000000E+00 0. -1.
         21   -1    0    0  501  502 -0.00000000000E+00 -0.00000000000E+00 -0.19912721156E+03  0.19912721156E+03  0.00000000000E+00 0. -1.
      99926    2    1    2    0    0 -0.44408920985E-15  0.35527136788E-14  0.58390599227E+02  0.45664502234E+03  0.45289647200E+03 0.  0.
         25    1    3    3    0    0 -0.15182336564E+01 -0.29345493137E+02 -0.65908386254E+02  0.14441221029E+03  0.12509000000E+03 0.  0.
         25    1    3    3    0    0 -0.25173591665E+02  0.76461957920E+02  0.80033869642E+02  0.16891734404E+03  0.12509000000E+03 0.  0.
         25    1    3    3    0    0  0.26691825322E+02 -0.47116464784E+02  0.44265115839E+02  0.14331546802E+03  0.12509000000E+03 0.  0.
<mgrwt>
<rscale>  2 0.45289647E+03</rscale>
<asrwt>0</asrwt>
<pdfrwt beam="1">  1       21 0.37870266E-01 0.45289647E+03</pdfrwt>
<pdfrwt beam="2">  1       21 0.29283413E-01 0.45289647E+03</pdfrwt>
<totfact> 0.69585765E+04</totfact>
</mgrwt>
</event>
<event>
 6    0  0.1576925E-007  0.4449139E+03  0.7546771E-02  0.1029250E+00
         21   -1    0    0  502  501  0.00000000000E+00  0.00000000000E+00  0.15731885562E+04  0.15731885562E+04  0.00000000000E+00 0. -1.
         21   -1    0    0  501  502 -0.00000000000E+00 -0.00000000000E+00 -0.31456549740E+02  0.31456549740E+02  0.00000000000E+00 0. -1.
      99926    2    1    2    0    0 -0.71054273576E-14  0.00000000000E+00  0.15417320065E+04  0.16046451060E+04  0.44491385265E+03 0.  0.
         25    1    3    3    0    0 -0.37911912708E+02  0.40038648095E+02  0.63271607446E+03  0.64731564592E+03  0.12509000000E+03 0.  0.
         25    1    3    3    0    0 -0.45362510055E+02  0.19552180159E+02  0.33511455029E+03  0.36109460669E+03  0.12509000000E+03 0.  0.
         25    1    3    3    0    0  0.83274422763E+02 -0.59590828254E+02  0.57390138172E+03  0.59623485335E+03  0.12509000000E+03 0.  0.
<mgrwt>
<rscale>  2 0.44491385E+03</rscale>
<asrwt>0</asrwt>
<pdfrwt beam="1">  1       21 0.23135121E+00 0.44491385E+03</pdfrwt>
<pdfrwt beam="2">  1       21 0.46259643E-02 0.44491385E+03</pdfrwt>
<totfact> 0.23080447E+04</totfact>
</mgrwt>
</event>
<event>
 6    0  0.1576925E-007  0.4515285E+03  0.7546771E-02  0.1027267E+00
         21   -1    0    0  502  501  0.00000000000E+00  0.00000000000E+00  0.44709413901E+02  0.44709413901E+02  0.00000000000E+00 0. -1.
         21   -1    0    0  501  502 -0.00000000000E+00 -0.00000000000E+00 -0.11400171083E+04  0.11400171083E+04  0.00000000000E+00 0. -1.
      99926    2    1    2    0    0  0.00000000000E+00  0.00000000000E+00 -0.10953076944E+04  0.11847265222E+04  0.45152850076E+03 0.  0.
         25    1    3    3    0    0  0.47792056250E+02 -0.57722126284E+02 -0.45487145037E+03  0.47767297282E+03  0.12509000000E+03 0.  0.
         25    1    3    3    0    0 -0.55828071475E+02  0.30208368554E+02 -0.48815058716E+03  0.50790532871E+03  0.12509000000E+03 0.  0.
         25    1    3    3    0    0  0.80360152246E+01  0.27513757730E+02 -0.15228565688E+03  0.19914822067E+03  0.12509000000E+03 0.  0.
<mgrwt>
<rscale>  2 0.45152850E+03</rscale>
<asrwt>0</asrwt>
<pdfrwt beam="1">  1       21 0.65749139E-02 0.45152850E+03</pdfrwt>
<pdfrwt beam="2">  1       21 0.16764957E+00 0.45152850E+03</pdfrwt>
<totfact> 0.33541870E+04</totfact>
</mgrwt>
</event>
<event>
 6    0  0.1576925E-007  0.4644486E+03  0.7546771E-02  0.1023499E+00
         21   -1    0    0  502  501  0.00000000000E+00  0.00000000000E+00  0.13380437358E+03  0.13380437358E+03  0.00000000000E+00 0. -1.
         21   -1    0    0  501  502 -0.00000000000E+00 -0.00000000000E+00 -0.40303707307E+03  0.40303707307E+03  0.00000000000E+00 0. -1.
      99926    2    1    2    0    0  0.71054273576E-14 -0.35527136788E-14 -0.26923269950E+03  0.53684144665E+03  0.46444858958E+03 0.  0.
         25    1    3    3    0    0  0.80516494567E+02  0.32734459447E+02 -0.10690280105E+03  0.18609182600E+03  0.12509000000E+03 0.  0.
         25    1    3    3    0    0 -0.10848898412E+03 -0.93722676891E+01 -0.14309470173E+03  0.21904634405E+03  0.12509000000E+03 0.  0.
         25    1    3    3    0    0  0.27972489556E+02 -0.23362191758E+02 -0.19235196722E+02  0.13170327661E+03  0.12509000000E+03 0.  0.
<mgrwt>
<rscale>  2 0.46444859E+03</rscale>
<asrwt>0</asrwt>
<pdfrwt beam="1">  1       21 0.19677114E-01 0.46444859E+03</pdfrwt>
<pdfrwt beam="2">  1       21 0.59270157E-01 0.46444859E+03</pdfrwt>
<totfact> 0.58259107E+04</totfact>
</mgrwt>
</event>
<event>
 6    0  0.1576925E-007  0.4422075E+03  0.7546771E-02  0.1030072E+00
         21   -1    0    0  502  501  0.00000000000E+00  0.00000000000E+00  0.83096603934E+03  0.83096603934E+03  0.00000000000E+00 0.  1.
         21   -1    0    0  501  502 -0.00000000000E+00 -0.00000000000E+00 -0.58831372941E+02  0.58831372941E+02  0.00000000000E+00 0.  1.
      99926    2    1    2    0    0  0.71054273576E-14  0.00000000000E+00  0.77213466640E+03  0.88979741228E+03  0.44220752125E+03 0.  0.
         25    1    3    3    0    0 -0.77916821298E+02 -0.19344653323E+02  0.16475094217E+03  0.22189102663E+03  0.12509000000E+03 0.  0.
         25    1    3    3    0    0  0.47704164347E+02  0.43684514824E+02  0.24509194754E+03  0.28266870181E+03  0.12509000000E+03 0.  0.
         25    1    3    3    0    0  0.30212656951E+02 -0.24339861501E+02  0.36229177669E+03  0.38523768384E+03  0.12509000000E+03 0.  0.
<mgrwt>
<rscale>  2 0.44220752E+03</rscale>
<asrwt>0</asrwt>
<pdfrwt beam="1">  1       21 0.12220088E+00 0.44220752E+03</pdfrwt>
<pdfrwt beam="2">  1       21 0.86516730E-02 0.44220752E+03</pdfrwt>
<totfact> 0.48339920E+04</totfact>
</mgrwt>
</event>
<event>
 6    0  0.1576925E-007  0.4564791E+03  0.7546771E-02  0.1025807E+00
         21   -1    0    0  502  501  0.00000000000E+00  0.00000000000E+00  0.89456991209E+02  0.89456991209E+02  0.00000000000E+00 0. -1.
         21   -1    0    0  501  502 -0.00000000000E+00 -0.00000000000E+00 -0.58232785653E+03  0.58232785653E+03  0.00000000000E+00 0. -1.
      99926    2    1    2    0    0  0.00000000000E+00  0.00000000000E+00 -0.49287086532E+03  0.67178484774E+03  0.45647912523E+03 0.  0.
         25    1    3    3    0    0  0.34251989746E+02  0.72509606016E+01 -0.10573433832E+03  0.16749039862E+03  0.12509000000E+03 0.  0.
         25    1    3    3    0    0  0.64019473517E+02 -0.58147317302E+02 -0.14486099849E+03  0.21002814212E+03  0.12509000000E+03 0.  0.
         25    1    3    3    0    0 -0.98271463263E+02  0.50896356701E+02 -0.24227552852E+03  0.29426630700E+03  0.12509000000E+03 0.  0.
<mgrwt>
<rscale>  2 0.45647913E+03</rscale>
<asrwt>0</asrwt>
<pdfrwt beam="1">  1       21 0.13155440E-01 0.45647913E+03</pdfrwt>
<pdfrwt beam="2">  1       21 0.85636448E-01 0.45647913E+03</pdfrwt>
<totfact> 0.53831579E+04</totfact>
</mgrwt>
</event>
<event>
 6    0  0.1576925E-007  0.4537555E+03  0.7546771E-02  0.1026608E+00
         21   -1    0    0  502  501  0.00000000000E+00  0.00000000000E+00  0.96703805346E+03  0.96703805346E+03  0.00000000000E+00 0. -1.
         21   -1    0    0  501  502 -0.00000000000E+00 -0.00000000000E+00 -0.53228002645E+02  0.53228002645E+02  0.00000000000E+00 0. -1.
      99926    2    1    2    0    0  0.00000000000E+00  0.35527136788E-14  0.91381005082E+03  0.10202660561E+04  0.45375545867E+03 0.  0.
         25    1    3    3    0    0  0.55848151539E+01 -0.23429608687E+02  0.37171345912E+03  0.39293579693E+03  0.12509000000E+03 0.  0.
         25    1    3    3    0    0 -0.27825535144E+02  0.40980192635E+02  0.44932966533E+03  0.46903975614E+03  0.12509000000E+03 0.  0.
         25    1    3    3    0    0  0.22240719990E+02 -0.17550583949E+02  0.92766926375E+02  0.15829050304E+03  0.12509000000E+03 0.  0.
<mgrwt>
<rscale>  2 0.45375546E+03</rscale>
<asrwt>0</asrwt>
<pdfrwt beam="1">  1       21 0.14221147E+00 0.45375546E+03</pdfrwt>
<pdfrwt beam="2">  1       21 0.78276481E-02 0.45375546E+03</pdfrwt>
<totfact> 0.38762965E+04</totfact>
</mgrwt>
</event>
<event>
 6    0  0.1576925E-007  0.4552125E+03  0.7546771E-02  0.1026179E+00
         21   -1    0    0  502  501  0.00000000000E+00  0.00000000000E+00  0.30555529068E+03  0.30555529068E+03  0.00000000000E+00 0.  1.
         21   -1    0    0  501  502 -0.00000000000E+00 -0.00000000000E+00 -0.16954246663E+03  0.16954246663E+03  0.00000000000E+00 0.  1.
      99926    2    1    2    0    0  0.44408920985E-15  0.71054273576E-14  0.13601282405E+03  0.47509775731E+03  0.45521246764E+03 0.  0.
         25    1    3    3    0    0 -0.14389660197E+02 -0.40219672732E+02  0.11359273846E+03  0.17428569283E+03  0.12509000000E+03 0.  0.
         25    1    3    3    0    0  0.11404568342E+01 -0.45390150952E+02  0.57008143809E+02  0.14477224529E+03  0.12509000000E+03 0.  0.
         25    1    3    3    0    0  0.13249203363E+02  0.85609823684E+02 -0.34588058218E+02  0.15603981919E+03  0.12509000000E+03 0.  0.
<mgrwt>
<rscale>  2 0.45521247E+03</rscale>
<asrwt>0</asrwt>
<pdfrwt beam="1">  1       21 0.44934602E-01 0.45521247E+03</pdfrwt>
<pdfrwt beam="2">  1       21 0.24932716E-01 0.45521247E+03</pdfrwt>
<totfact> 0.66945773E+04</totfact>
</mgrwt>
</event>
<event>
 6    0  0.1576925E-007  0.4600680E+03  0.7546771E-02  0.1024761E+00
         21   -1    0    0  502  501  0.00000000000E+00  0.00000000000E+00  0.40712673379E+03  0.40712673379E+03  0.00000000000E+00 0. -1.
         21   -1    0    0  501  502 -0.00000000000E+00 -0.00000000000E+00 -0.12997339135E+03  0.12997339135E+03  0.00000000000E+00 0. -1.
      99926    2    1    2    0    0  0.00000000000E+00  0.00000000000E+00  0.27715334244E+03  0.53710012513E+03  0.46006800497E+03 0.  0.
         25    1    3    3    0    0  0.34362464843E+02 -0.72781667241E+02  0.18565646266E+03  0.23789447304E+03  0.12509000000E+03 0.  0.
         25    1    3    3    0    0 -0.51259408528E+02  0.24060424501E+02  0.26412770312E+01  0.13733504809E+03  0.12509000000E+03 0.  0.
         25    1    3    3    0    0  0.16896943685E+02  0.48721242740E+02  0.88855602746E+02  0.16187060400E+03  0.12509000000E+03 0.  0.
<mgrwt>
<rscale>  2 0.46006800E+03</rscale>
<asrwt>0</asrwt>
<pdfrwt beam="1">  1       21 0.59871578E-01 0.46006800E+03</pdfrwt>
<pdfrwt beam="2">  1       21 0.19113734E-01 0.46006800E+03</pdfrwt>
<totfact> 0.60270998E+04</totfact>
</mgrwt>
</event>
<event>
 6    0  0.1576925E-007  0.4502719E+03  0.7546771E-02  0.1027641E+00
         21   -1    0    0  502  501  0.00000000000E+00  0.00000000000E+00  0.12306399002E+03  0.12306399002E+03  0.00000000000E+00 0.  1.
         21   -1    0    0  501  502 -0.00000000000E+00 -0.00000000000E+00 -0.41186866256E+03  0.41186866256E+03  0.00000000000E+00 0.  1.
      99926    2    1    2    0    0  0.00000000000E+00  0.71054273576E-14 -0.28880467254E+03  0.53493265259E+03  0.45027192220E+03 0.  0.
         25    1    3    3    0    0  0.56735548325E+02 -0.38234181256E+02 -0.41592587537E+02  0.14852012153E+03  0.12509000000E+03 0.  0.
         25    1    3    3    0    0  0.30472296509E+02 -0.22065838972E+02 -0.85564893738E+02  0.15615479898E+03  0.12509000000E+03 0.  0.
         25    1    3    3    0    0 -0.87207844833E+02  0.60300020228E+02 -0.16164719126E+03  0.23025773208E+03  0.12509000000E+03 0.  0.
<mgrwt>
<rscale>  2 0.45027192E+03</rscale>
<asrwt>0</asrwt>
<pdfrwt beam="1">  1       21 0.18097646E-01 0.45027192E+03</pdfrwt>
<pdfrwt beam="2">  1       21 0.60568920E-01 0.45027192E+03</pdfrwt>
<totfact> 0.65282204E+04</totfact>
</mgrwt>
</event>
<event>
 6    0  0.1576925E-007  0.4588894E+03  0.7546771E-02  0.1025104E+00
         21   -1    0    0  502  501  0.00000000000E+00  0.00000000000E+00  0.13476391407E+03  0.13476391407E+03  0.00000000000E+00 0. -1.
         21   -1    0    0  501  502 -0.00000000000E+00 -0.00000000000E+00 -0.39064512707E+03  0.39064512707E+03  0.00000000000E+00 0. -1.
      99926    2    1    2    0    0  0.00000000000E+00  0.00000000000E+00 -0.25588121300E+03  0.52540904114E+03  0.45888938247E+03 0.  0.
         25    1    3    3    0    0 -0.33064040861E+02  0.55229105121E+02 -0.17734137607E+03  0.22636465408E+03  0.12509000000E+03 0.  0.
         25    1    3    3    0    0  0.19984813233E+02 -0.26475148672E+02 -0.10582615257E+03  0.16717358920E+03  0.12509000000E+03 0.  0.
         25    1    3    3    0    0  0.13079227628E+02 -0.28753956449E+02  0.27286315640E+02  0.13187079786E+03  0.12509000000E+03 0.  0.
<mgrwt>
<rscale>  2 0.45888938E+03</rscale>
<asrwt>0</asrwt>
<pdfrwt beam="1">  1       21 0.19818223E-01 0.45888938E+03</pdfrwt>
<pdfrwt beam="2">  1       21 0.57447812E-01 0.45888938E+03</pdfrwt>
<totfact> 0.61597041E+04</totfact>
</mgrwt>
</event>
<event>
 6    0  0.1576925E-007  0.4739659E+03  0.7546771E-02  0.1020807E+00
         21   -1    0    0  502  501  0.00000000000E+00  0.00000000000E+00  0.77381939797E+02  0.77381939797E+02  0.00000000000E+00 0.  1.
         21   -1    0    0  501  502 -0.00000000000E+00 -0.00000000000E+00 -0.72576272222E+03  0.72576272222E+03  0.00000000000E+00 0.  1.
      99926    2    1    2    0    0  0.00000000000E+00  0.35527136788E-14 -0.64838078243E+03  0.80314466202E+03  0.47396593666E+03 0.  0.
         25    1    3    3    0    0 -0.33610638779E+02 -0.30230127234E+02 -0.20387089960E+03  0.24342224104E+03  0.12509000000E+03 0.  0.
         25    1    3    3    0    0  0.32520711216E+02 -0.13178273197E+02 -0.42854262649E+02  0.13680372608E+03  0.12509000000E+03 0.  0.
         25    1    3    3    0    0  0.10899275631E+01  0.43408400431E+02 -0.40165562018E+03  0.42291869490E+03  0.12509000000E+03 0.  0.
<mgrwt>
<rscale>  2 0.47396594E+03</rscale>
<asrwt>0</asrwt>
<pdfrwt beam="1">  1       21 0.11379698E-01 0.47396594E+03</pdfrwt>
<pdfrwt beam="2">  1       21 0.10672980E+00 0.47396594E+03</pdfrwt>
<totfact> 0.41139624E+04</totfact>
</mgrwt>
</event>
<event>
 6    0  0.1576925E-007  0.4471794E+03  0.7546771E-02  0.1028567E+00
         21   -1    0    0  502  501  0.00000000000E+00  0.00000000000E+00  0.22065363106E+03  0.22065363106E+03  0.00000000000E+00 0.  1.
         21   -1    0    0  501  502 -0.00000000000E+00 -0.00000000000E+00 -0.22656479853E+03  0.22656479853E+03  0.00000000000E+00 0.  1.
      99926    2    1    2    0    0 -0.26645352591E-14 -0.71054273576E-14 -0.59111674684E+01  0.44721842959E+03  0.44717936208E+03 0.  0.
         25    1    3    3    0    0 -0.32618431782E+02 -0.10249417733E+03 -0.17082885536E+02  0.16585641849E+03  0.12509000000E+03 0.  0.
         25    1    3    3    0    0  0.27242938698E+02  0.80242235926E+02  0.26074166659E+02  0.15332437641E+03  0.12509000000E+03 0.  0.
         25    1    3    3    0    0  0.53754930841E+01  0.22251941399E+02 -0.14902448591E+02  0.12803763469E+03  0.12509000000E+03 0.  0.
<mgrwt>
<rscale>  2 0.44717936E+03</rscale>
<asrwt>0</asrwt>
<pdfrwt beam="1">  1       21 0.32449063E-01 0.44717936E+03</pdfrwt>
<pdfrwt beam="2">  1       21 0.33318353E-01 0.44717936E+03</pdfrwt>
<totfact> 0.73606639E+04</totfact>
</mgrwt>
</event>
<event>
 6    0  0.1576925E-007  0.4350133E+03  0.7546771E-02  0.1032288E+00
         21   -1    0    0  502  501  0.00000000000E+00  0.00000000000E+00  0.30524350549E+02  0.30524350549E+02  0.00000000000E+00 0. -1.
         21   -1    0    0  501  502 -0.00000000000E+00 -0.00000000000E+00 -0.15498823426E+04  0.15498823426E+04  0.00000000000E+00 0. -1.
      99926    2    1    2    0    0 -0.71054273576E-14  0.00000000000E+00 -0.15193579920E+04  0.15804066931E+04  0.43501334202E+03 0.  0.
         25    1    3    3    0    0  0.19040402971E+02 -0.40686989303E+02 -0.31337175630E+03  0.34039291090E+03  0.12509000000E+03 0.  0.
         25    1    3    3    0    0 -0.68291113515E+02 -0.79459775702E+01 -0.68865845842E+03  0.70329566699E+03  0.12509000000E+03 0.  0.
         25    1    3    3    0    0  0.49250710544E+02  0.48632966873E+02 -0.51732777732E+03  0.53671811525E+03  0.12509000000E+03 0.  0.
<mgrwt>
<rscale>  2 0.43501334E+03</rscale>
<asrwt>0</asrwt>
<pdfrwt beam="1">  1       21 0.44888753E-02 0.43501334E+03</pdfrwt>
<pdfrwt beam="2">  1       21 0.22792386E+00 0.43501334E+03</pdfrwt>
<totfact> 0.25628676E+04</totfact>
</mgrwt>
</event>
<event>
 6    0  0.1576925E-007  0.4498245E+03  0.7546771E-02  0.1027774E+00
         21   -1    0    0  502  501  0.00000000000E+00  0.00000000000E+00  0.16388355957E+03  0.16388355957E+03  0.00000000000E+00 0.  1.
         21   -1    0    0  501  502 -0.00000000000E+00 -0.00000000000E+00 -0.30866748039E+03  0.30866748039E+03  0.00000000000E+00 0.  1.
      99926    2    1    2    0    0 -0.28865798640E-14  0.17763568394E-14 -0.14478392083E+03  0.47255103996E+03  0.44982452316E+03 0.  0.
         25    1    3    3    0    0 -0.43682087660E+02 -0.49036613183E+02 -0.11519639431E+03  0.18229215994E+03  0.12509000000E+03 0.  0.
         25    1    3    3    0    0  0.41852366576E+02  0.34035789056E+02 -0.75989024341E+02  0.15598684382E+03  0.12509000000E+03 0.  0.
         25    1    3    3    0    0  0.18297210836E+01  0.15000824127E+02  0.46401497826E+02  0.13427203620E+03  0.12509000000E+03 0.  0.
<mgrwt>
<rscale>  2 0.44982452E+03</rscale>
<asrwt>0</asrwt>
<pdfrwt beam="1">  1       21 0.24100524E-01 0.44982452E+03</pdfrwt>
<pdfrwt beam="2">  1       21 0.45392276E-01 0.44982452E+03</pdfrwt>
<totfact> 0.70080950E+04</totfact>
</mgrwt>
</event>
<event>
 6    0  0.1576925E-007  0.4614762E+03  0.7546771E-02  0.1024354E+00
         21   -1    0    0  502  501  0.00000000000E+00  0.00000000000E+00  0.50233504622E+02  0.50233504622E+02  0.00000000000E+00 0.  1.
         21   -1    0    0  501  502 -0.00000000000E+00 -0.00000000000E+00 -0.10598518730E+04  0.10598518730E+04  0.00000000000E+00 0.  1.
      99926    2    1    2    0    0  0.71054273576E-14  0.00000000000E+00 -0.10096183683E+04  0.11100853776E+04  0.46147621372E+03 0.  0.
         25    1    3    3    0    0  0.20502807830E+02 -0.95527098635E+02 -0.50544216760E+03  0.52977833534E+03  0.12509000000E+03 0.  0.
         25    1    3    3    0    0  0.22631614654E+02  0.19321144722E+02 -0.29045846772E+03  0.31764622804E+03  0.12509000000E+03 0.  0.
         25    1    3    3    0    0 -0.43134422483E+02  0.76205953913E+02 -0.21371773301E+03  0.26266081421E+03  0.12509000000E+03 0.  0.
<mgrwt>
<rscale>  2 0.46147621E+03</rscale>
<asrwt>0</asrwt>
<pdfrwt beam="1">  1       21 0.73872802E-02 0.46147621E+03</pdfrwt>
<pdfrwt beam="2">  1       21 0.15586057E+00 0.46147621E+03</pdfrwt>
<totfact> 0.33423324E+04</totfact>
</mgrwt>
</event>
<event>
 6    0  0.1576925E-007  0.4548611E+03  0.7546771E-02  0.1026282E+00
         21   -1    0    0  502  501  0.00000000000E+00  0.00000000000E+00  0.22394468012E+03  0.22394468012E+03  0.00000000000E+00 0. -1.
         21   -1    0    0  501  502 -0.00000000000E+00 -0.00000000000E+00 -0.23097067106E+03  0.23097067106E+03  0.00000000000E+00 0. -1.
      99926    2    1    2    0    0 -0.71054273576E-14  0.00000000000E+00 -0.70259909413E+01  0.45491535118E+03  0.45486109110E+03 0.  0.
         25    1    3    3    0    0 -0.64157558876E+02  0.47276449379E+01 -0.78441196120E+02  0.16105611549E+03  0.12509000000E+03 0.  0.
         25    1    3    3    0    0  0.23373789361E+02  0.37985771815E+02  0.80387614283E+02  0.15523829914E+03  0.12509000000E+03 0.  0.
         25    1    3    3    0    0  0.40783769515E+02 -0.42713416753E+02 -0.89724091041E+01  0.13862093656E+03  0.12509000000E+03 0.  0.
<mgrwt>
<rscale>  2 0.45486109E+03</rscale>
<asrwt>0</asrwt>
<pdfrwt beam="1">  1       21 0.32933041E-01 0.45486109E+03</pdfrwt>
<pdfrwt beam="2">  1       21 0.33966275E-01 0.45486109E+03</pdfrwt>
<totfact> 0.68628027E+04</totfact>
</mgrwt>
</event>
<event>
 6    0  0.1576925E-007  0.4540837E+03  0.7546771E-02  0.1026511E+00
         21   -1    0    0  502  501  0.00000000000E+00  0.00000000000E+00  0.69373288871E+03  0.69373288871E+03  0.00000000000E+00 0.  1.
         21   -1    0    0  501  502 -0.00000000000E+00 -0.00000000000E+00 -0.74305260460E+02  0.74305260460E+02  0.00000000000E+00 0.  1.
      99926    2    1    2    0    0  0.00000000000E+00  0.00000000000E+00  0.61942762825E+03  0.76803814917E+03  0.45408370587E+03 0.  0.
         25    1    3    3    0    0  0.22062721296E+02 -0.83215674408E+02  0.18840735652E+03  0.24198440493E+03  0.12509000000E+03 0.  0.
         25    1    3    3    0    0  0.24637035395E+02  0.10612550346E+03  0.22702807364E+03  0.28117407476E+03  0.12509000000E+03 0.  0.
         25    1    3    3    0    0 -0.46699756692E+02 -0.22909829049E+02  0.20399219809E+03  0.24487966948E+03  0.12509000000E+03 0.  0.
<mgrwt>
<rscale>  2 0.45408371E+03</rscale>
<asrwt>0</asrwt>
<pdfrwt beam="1">  1       21 0.10201954E+00 0.45408371E+03</pdfrwt>
<pdfrwt beam="2">  1       21 0.10927245E-01 0.45408371E+03</pdfrwt>
<totfact> 0.49706105E+04</totfact>
</mgrwt>
</event>
<event>
 6    0  0.1576925E-007  0.4558215E+03  0.7546771E-02  0.1026000E+00
         21   -1    0    0  502  501  0.00000000000E+00  0.00000000000E+00  0.50517128908E+03  0.50517128908E+03  0.00000000000E+00 0. -1.
         21   -1    0    0  501  502 -0.00000000000E+00 -0.00000000000E+00 -0.10282317413E+03  0.10282317413E+03  0.00000000000E+00 0. -1.
      99926    2    1    2    0    0  0.00000000000E+00  0.00000000000E+00  0.40234811495E+03  0.60799446321E+03  0.45582152395E+03 0.  0.
         25    1    3    3    0    0 -0.31774187591E+02 -0.45708235339E+02  0.93264449861E+02  0.16566414061E+03  0.12509000000E+03 0.  0.
         25    1    3    3    0    0 -0.11871325650E+02  0.10147608204E+03  0.10476704410E+03  0.19251484418E+03  0.12509000000E+03 0.  0.
         25    1    3    3    0    0  0.43645513240E+02 -0.55767846705E+02  0.20431662098E+03  0.24981547843E+03  0.12509000000E+03 0.  0.
<mgrwt>
<rscale>  2 0.45582152E+03</rscale>
<asrwt>0</asrwt>
<pdfrwt beam="1">  1       21 0.74289894E-01 0.45582152E+03</pdfrwt>
<pdfrwt beam="2">  1       21 0.15121055E-01 0.45582152E+03</pdfrwt>
<totfact> 0.57812774E+04</totfact>
</mgrwt>
</event>
<event>
 6    0  0.1576925E-007  0.4552398E+03  0.7546771E-02  0.1026171E+00
         21   -1    0    0  502  501  0.00000000000E+00  0.00000000000E+00  0.90819164411E+02  0.90819164411E+02  0.00000000000E+00 0.  1.
         21   -1    0    0  501  502 -0.00000000000E+00 -0.00000000000E+00 -0.57048330622E+03  0.57048330622E+03  0.00000000000E+00 0.  1.
      99926    2    1    2    0    0  0.00000000000E+00 -0.71054273576E-14 -0.47966414181E+03  0.66130247063E+03  0.45523979255E+03 0.  0.
         25    1    3    3    0    0  0.42454525907E+02 -0.22444890681E+02 -0.20663583760E+03  0.24627634350E+03  0.12509000000E+03 0.  0.
         25    1    3    3    0    0  0.29089594576E+02  0.77007339602E+02 -0.18339337517E+03  0.23676353820E+03  0.12509000000E+03 0.  0.
         25    1    3    3    0    0 -0.71544120483E+02 -0.54562448921E+02 -0.89634929039E+02  0.17826258893E+03  0.12509000000E+03 0.  0.
<mgrwt>
<rscale>  2 0.45523979E+03</rscale>
<asrwt>0</asrwt>
<pdfrwt beam="1">  1       21 0.13355760E-01 0.45523979E+03</pdfrwt>
<pdfrwt beam="2">  1       21 0.83894600E-01 0.45523979E+03</pdfrwt>
<totfact> 0.54950470E+04</totfact>
</mgrwt>
</event>
<event>
 6    0  0.1576925E-007  0.4701518E+03  0.7546771E-02  0.1021877E+00
         21   -1    0    0  502  501  0.00000000000E+00  0.00000000000E+00  0.43138319837E+03  0.43138319837E+03  0.00000000000E+00 0. -1.
         21   -1    0    0  501  502 -0.00000000000E+00 -0.00000000000E+00 -0.12810116469E+03  0.12810116469E+03  0.00000000000E+00 0. -1.
      99926    2    1    2    0    0 -0.71054273576E-14  0.00000000000E+00  0.30328203368E+03  0.55948436306E+03  0.47015184840E+03 0.  0.
         25    1    3    3    0    0  0.47502099512E+02 -0.55797876039E+02  0.72310271423E+02  0.16200659209E+03  0.12509000000E+03 0.  0.
         25    1    3    3    0    0 -0.36407511139E+02  0.89058703824E+02  0.33855551465E+02  0.16140218728E+03  0.12509000000E+03 0.  0.
         25    1    3    3    0    0 -0.11094588373E+02 -0.33260827785E+02  0.19711621079E+03  0.23607558369E+03  0.12509000000E+03 0.  0.
<mgrwt>
<rscale>  2 0.47015185E+03</rscale>
<asrwt>0</asrwt>
<pdfrwt beam="1">  1       21 0.63438705E-01 0.47015185E+03</pdfrwt>
<pdfrwt beam="2">  1       21 0.18838407E-01 0.47015185E+03</pdfrwt>
<totfact> 0.54421543E+04</totfact>
</mgrwt>
</event>
<event>
 6    0  0.1576925E-007  0.4543174E+03  0.7546771E-02  0.1026442E+00
         21   -1    0    0  502  501  0.00000000000E+00  0.00000000000E+00  0.87871675741E+03  0.87871675741E+03  0.00000000000E+00 0.  1.
         21   -1    0    0  501  502 -0.00000000000E+00 -0.00000000000E+00 -0.58723224988E+02  0.58723224988E+02  0.00000000000E+00 0.  1.
      99926    2    1    2    0    0  0.00000000000E+00  0.00000000000E+00  0.81999353242E+03  0.93743998239E+03  0.45431743020E+03 0.  0.
         25    1    3    3    0    0  0.63427144515E+02  0.32491091548E+02  0.16673378233E+03  0.22028694006E+03  0.12509000000E+03 0.  0.
         25    1    3    3    0    0  0.35547613724E+02 -0.35460567045E+02  0.33629918586E+03  0.36230613460E+03  0.12509000000E+03 0.  0.
         25    1    3    3    0    0 -0.98974758239E+02  0.29694754975E+01  0.31696056423E+03  0.35484690773E+03  0.12509000000E+03 0.  0.
<mgrwt>
<rscale>  2 0.45431743E+03</rscale>
<asrwt>0</asrwt>
<pdfrwt beam="1">  1       21 0.12922304E+00 0.45431743E+03</pdfrwt>
<pdfrwt beam="2">  1       21 0.86357689E-02 0.45431743E+03</pdfrwt>
<totfact> 0.41876730E+04</totfact>
</mgrwt>
</event>
<event>
 6    0  0.1576925E-007  0.4518902E+03  0.7546771E-02  0.1027160E+00
         21   -1    0    0  502  501  0.00000000000E+00  0.00000000000E+00  0.61969069380E+03  0.61969069380E+03  0.00000000000E+00 0. -1.
         21   -1    0    0  501  502 -0.00000000000E+00 -0.00000000000E+00 -0.82381714245E+02  0.82381714245E+02  0.00000000000E+00 0. -1.
      99926    2    1    2    0    0  0.71054273576E-14  0.71054273576E-14  0.53730897956E+03  0.70207240805E+03  0.45189017098E+03 0.  0.
         25    1    3    3    0    0  0.46523424057E+02 -0.40561876797E+01  0.10188845553E+03  0.16795727765E+03  0.12509000000E+03 0.  0.
         25    1    3    3    0    0  0.39310668916E+02 -0.60379817491E+02  0.21174251306E+03  0.25626831835E+03  0.12509000000E+03 0.  0.
         25    1    3    3    0    0 -0.85834092973E+02  0.64436005171E+02  0.22367801096E+03  0.27784681205E+03  0.12509000000E+03 0.  0.
<mgrwt>
<rscale>  2 0.45189017E+03</rscale>
<asrwt>0</asrwt>
<pdfrwt beam="1">  1       21 0.91130982E-01 0.45189017E+03</pdfrwt>
<pdfrwt beam="2">  1       21 0.12114958E-01 0.45189017E+03</pdfrwt>
<totfact> 0.54102476E+04</totfact>
</mgrwt>
</event>
<event>
 6    0  0.1576925E-007  0.4587537E+03  0.7546771E-02  0.1025143E+00
         21   -1    0    0  502  501  0.00000000000E+00  0.00000000000E+00  0.10431136977E+04  0.10431136977E+04  0.00000000000E+00 0. -1.
         21   -1    0    0  501  502 -0.00000000000E+00 -0.00000000000E+00 -0.50439126892E+02  0.50439126892E+02  0.00000000000E+00 0. -1.
      99926    2    1    2    0    0  0.71054273576E-14 -0.67723604502E-14  0.99267457081E+03  0.10935528246E+04  0.45875372112E+03 0.  0.
         25    1    3    3    0    0  0.52387792586E+02  0.36069295923E+00  0.26908858017E+03  0.30133168269E+03  0.12509000000E+03 0.  0.
         25    1    3    3    0    0  0.36609523990E+02 -0.55701092621E+02  0.46788991989E+03  0.48888787488E+03  0.12509000000E+03 0.  0.
         25    1    3    3    0    0 -0.88997316576E+02  0.55340399661E+02  0.25569607075E+03  0.30333326703E+03  0.12509000000E+03 0.  0.
<mgrwt>
<rscale>  2 0.45875372E+03</rscale>
<asrwt>0</asrwt>
<pdfrwt beam="1">  1       21 0.15339906E+00 0.45875372E+03</pdfrwt>
<pdfrwt beam="2">  1       21 0.74175193E-02 0.45875372E+03</pdfrwt>
<totfact> 0.34691493E+04</totfact>
</mgrwt>
</event>
<event>
 6    0  0.1576925E-007  0.4543082E+03  0.7546771E-02  0.1026445E+00
         21   -1    0    0  502  501  0.00000000000E+00  0.00000000000E+00  0.17539154889E+04  0.17539154889E+04  0.00000000000E+00 0. -1.
         21   -1    0    0  501  502 -0.00000000000E+00 -0.00000000000E+00 -0.29419313439E+02  0.29419313439E+02  0.00000000000E+00 0. -1.
      99926    2    1    2    0    0  0.71054273576E-14 -0.71054273576E-14  0.17244961754E+04  0.17833348023E+04  0.45430821922E+03 0.  0.
         25    1    3    3    0    0 -0.12155792856E+01  0.20603981008E+02  0.22279326084E+03  0.25634029501E+03  0.12509000000E+03 0.  0.
         25    1    3    3    0    0 -0.40827278768E+02  0.30120237313E+02  0.77463862810E+03  0.78631202944E+03  0.12509000000E+03 0.  0.
         25    1    3    3    0    0  0.42042858054E+02 -0.50724218321E+02  0.72706428647E+03  0.74068247785E+03  0.12509000000E+03 0.  0.
<mgrwt>
<rscale>  2 0.45430822E+03</rscale>
<asrwt>0</asrwt>
<pdfrwt beam="1">  1       21 0.25792868E+00 0.45430822E+03</pdfrwt>
<pdfrwt beam="2">  1       21 0.43263708E-02 0.45430822E+03</pdfrwt>
<totfact> 0.17676619E+04</totfact>
</mgrwt>
</event>
<event>
 6    0  0.1576925E-007  0.4578970E+03  0.7546771E-02  0.1025393E+00
         21   -1    0    0  502  501  0.00000000000E+00  0.00000000000E+00  0.51927361504E+03  0.51927361504E+03  0.00000000000E+00 0. -1.
         21   -1    0    0  501  502 -0.00000000000E+00 -0.00000000000E+00 -0.10094372891E+03  0.10094372891E+03  0.00000000000E+00 0. -1.
      99926    2    1    2    0    0 -0.71054273576E-14  0.00000000000E+00  0.41832988612E+03  0.62021734395E+03  0.45789699728E+03 0.  0.
         25    1    3    3    0    0  0.47127802491E+02 -0.40230928013E+01  0.90810464443E+02  0.16165167366E+03  0.12509000000E+03 0.  0.
         25    1    3    3    0    0 -0.45826874474E+02  0.37627014847E+02  0.41398028585E+02  0.14448944439E+03  0.12509000000E+03 0.  0.
         25    1    3    3    0    0 -0.13009280170E+01 -0.33603922046E+02  0.28612139310E+03  0.31407622590E+03  0.12509000000E+03 0.  0.
<mgrwt>
<rscale>  2 0.45789700E+03</rscale>
<asrwt>0</asrwt>
<pdfrwt beam="1">  1       21 0.76363766E-01 0.45789700E+03</pdfrwt>
<pdfrwt beam="2">  1       21 0.14844666E-01 0.45789700E+03</pdfrwt>
<totfact> 0.56155083E+04</totfact>
</mgrwt>
</event>
<event>
 6    0  0.1576925E-007  0.4512255E+03  0.7546771E-02  0.1027357E+00
         21   -1    0    0  502  501  0.00000000000E+00  0.00000000000E+00  0.45013533302E+03  0.45013533302E+03  0.00000000000E+00 0.  1.
         21   -1    0    0  501  502 -0.00000000000E+00 -0.00000000000E+00 -0.11307959137E+03  0.11307959137E+03  0.00000000000E+00 0.  1.
      99926    2    1    2    0    0  0.00000000000E+00 -0.71054273576E-14  0.33705574165E+03  0.56321492438E+03  0.45122552905E+03 0.  0.
         25    1    3    3    0    0 -0.33609029843E+02 -0.59320198463E+02  0.11141458625E+03  0.18085676919E+03  0.12509000000E+03 0.  0.
         25    1    3    3    0    0  0.91720383454E+01  0.57383780770E+02  0.21367870338E+03  0.25432876550E+03  0.12509000000E+03 0.  0.
         25    1    3    3    0    0  0.24436991498E+02  0.19364176929E+01  0.11962452024E+02  0.12802938969E+03  0.12509000000E+03 0.  0.
<mgrwt>
<rscale>  2 0.45122553E+03</rscale>
<asrwt>0</asrwt>
<pdfrwt beam="1">  1       21 0.66196371E-01 0.45122553E+03</pdfrwt>
<pdfrwt beam="2">  1       21 0.16629352E-01 0.45122553E+03</pdfrwt>
<totfact> 0.62857171E+04</totfact>
</mgrwt>
</event>
<event>
 6    0  0.1576925E-007  0.4517116E+03  0.7546771E-02  0.1027213E+00
         21   -1    0    0  502  501  0.00000000000E+00  0.00000000000E+00  0.33649092159E+03  0.33649092159E+03  0.00000000000E+00 0.  1.
         21   -1    0    0  501  502 -0.00000000000E+00 -0.00000000000E+00 -0.15159649572E+03  0.15159649572E+03  0.00000000000E+00 0.  1.
      99926    2    1    2    0    0  0.00000000000E+00  0.00000000000E+00  0.18489442586E+03  0.48808741731E+03  0.45171160957E+03 0.  0.
         25    1    3    3    0    0 -0.71869243132E+02 -0.54755925783E+02  0.80989746046E+02  0.17427061307E+03  0.12509000000E+03 0.  0.
         25    1    3    3    0    0  0.79914552255E+02  0.74748053851E+02  0.80807297108E+02  0.18479971478E+03  0.12509000000E+03 0.  0.
         25    1    3    3    0    0 -0.80453091227E+01 -0.19992128068E+02  0.23097382710E+02  0.12901708946E+03  0.12509000000E+03 0.  0.
<mgrwt>
<rscale>  2 0.45171161E+03</rscale>
<asrwt>0</asrwt>
<pdfrwt beam="1">  1       21 0.49483959E-01 0.45171161E+03</pdfrwt>
<pdfrwt beam="2">  1       21 0.22293602E-01 0.45171161E+03</pdfrwt>
<totfact> 0.67870503E+04</totfact>
</mgrwt>
</event>
<event>
 6    0  0.1576925E-007  0.4556645E+03  0.7546771E-02  0.1026046E+00
         21   -1    0    0  502  501  0.00000000000E+00  0.00000000000E+00  0.10354803360E+04  0.10354803360E+04  0.00000000000E+00 0.  1.
         21   -1    0    0  501  502 -0.00000000000E+00 -0.00000000000E+00 -0.50128936430E+02  0.50128936430E+02  0.00000000000E+00 0.  1.
      99926    2    1    2    0    0 -0.71054273576E-14  0.35527136788E-14  0.98535139954E+03  0.10856092724E+04  0.45566447277E+03 0.  0.
         25    1    3    3    0    0  0.44192330617E+02  0.29143441675E+02  0.32245638050E+03  0.34989702442E+03  0.12509000000E+03 0.  0.
         25    1    3    3    0    0 -0.10131411068E+03 -0.43777443423E+02  0.46716945204E+03  0.49606029734E+03  0.12509000000E+03 0.  0.
         25    1    3    3    0    0  0.57121780067E+02  0.14634001748E+02  0.19572556701E+03  0.23965195064E+03  0.12509000000E+03 0.  0.
<mgrwt>
<rscale>  2 0.45566447E+03</rscale>
<asrwt>0</asrwt>
<pdfrwt beam="1">  1       21 0.15227651E+00 0.45566447E+03</pdfrwt>
<pdfrwt beam="2">  1       21 0.73719031E-02 0.45566447E+03</pdfrwt>
<totfact> 0.35811237E+04</totfact>
</mgrwt>
</event>
<event>
 6    0  0.1576925E-007  0.4586254E+03  0.7546771E-02  0.1025181E+00
         21   -1    0    0  502  501  0.00000000000E+00  0.00000000000E+00  0.74605335367E+03  0.74605335367E+03  0.00000000000E+00 0. -1.
         21   -1    0    0  501  502 -0.00000000000E+00 -0.00000000000E+00 -0.70483317390E+02  0.70483317390E+02  0.00000000000E+00 0. -1.
      99926    2    1    2    0    0  0.00000000000E+00  0.00000000000E+00  0.67557003628E+03  0.81653667106E+03  0.45862540408E+03 0.  0.
         25    1    3    3    0    0  0.10044134422E+03 -0.51267028377E+02  0.23396455815E+03  0.28827711390E+03  0.12509000000E+03 0.  0.
         25    1    3    3    0    0 -0.49906765013E+02 -0.42091656639E+00  0.14240537515E+03  0.19600423806E+03  0.12509000000E+03 0.  0.
         25    1    3    3    0    0 -0.50534579212E+02  0.51687944943E+02  0.29920010297E+03  0.33225531910E+03  0.12509000000E+03 0.  0.
<mgrwt>
<rscale>  2 0.45862540E+03</rscale>
<asrwt>0</asrwt>
<pdfrwt beam="1">  1       21 0.10971372E+00 0.45862540E+03</pdfrwt>
<pdfrwt beam="2">  1       21 0.10365194E-01 0.45862540E+03</pdfrwt>
<totfact> 0.45662404E+04</totfact>
</mgrwt>
</event>
<event>
 6    0  0.1576925E-007  0.4620153E+03  0.7546771E-02  0.1024198E+00
         21   -1    0    0  502  501  0.00000000000E+00  0.00000000000E+00  0.10808855003E+04  0.10808855003E+04  0.00000000000E+00 0.  1.
         21   -1    0    0  501  502 -0.00000000000E+00 -0.00000000000E+00 -0.49371133112E+02  0.49371133112E+02  0.00000000000E+00 0.  1.
      99926    2    1    2    0    0  0.00000000000E+00  0.14210854715E-13  0.10315143672E+04  0.11302566334E+04  0.46201533271E+03 0.  0.
         25    1    3    3    0    0 -0.22156593751E+01 -0.34063561112E+02  0.19571861958E+03  0.23477334068E+03  0.12509000000E+03 0.  0.
         25    1    3    3    0    0  0.56342729853E+02 -0.66102693814E+02  0.39045402233E+03  0.41910132544E+03  0.12509000000E+03 0.  0.
         25    1    3    3    0    0 -0.54127070478E+02  0.10016625493E+03  0.44534172528E+03  0.47638196729E+03  0.12509000000E+03 0.  0.
<mgrwt>
<rscale>  2 0.46201533E+03</rscale>
<asrwt>0</asrwt>
<pdfrwt beam="1">  1       21 0.15895373E+00 0.46201533E+03</pdfrwt>
<pdfrwt beam="2">  1       21 0.72604615E-02 0.46201533E+03</pdfrwt>
<totfact> 0.32627308E+04</totfact>
</mgrwt>
</event>
<event>
 6    0  0.1576925E-007  0.4543357E+03  0.7546771E-02  0.1026437E+00
         21   -1    0    0  502  501  0.00000000000E+00  0.00000000000E+00  0.14296291661E+03  0.14296291661E+03  0.00000000000E+00 0. -1.
         21   -1    0    0  501  502 -0.00000000000E+00 -0.00000000000E+00 -0.36096935543E+03  0.36096935543E+03  0.00000000000E+00 0. -1.
      99926    2    1    2    0    0  0.00000000000E+00  0.00000000000E+00 -0.21800643882E+03  0.50393227204E+03  0.45433569906E+03 0.  0.
         25    1    3    3    0    0  0.45942027716E+02  0.53349738745E+00 -0.59619549643E+01  0.13339418105E+03  0.12509000000E+03 0.  0.
         25    1    3    3    0    0 -0.35179034725E+02  0.77487816540E+02 -0.74568358877E+02  0.16867090574E+03  0.12509000000E+03 0.  0.
         25    1    3    3    0    0 -0.10762992991E+02 -0.78021313927E+02 -0.13747612498E+03  0.20186718526E+03  0.12509000000E+03 0.  0.
<mgrwt>
<rscale>  2 0.45433570E+03</rscale>
<asrwt>0</asrwt>
<pdfrwt beam="1">  1       21 0.21023959E-01 0.45433570E+03</pdfrwt>
<pdfrwt beam="2">  1       21 0.53083727E-01 0.45433570E+03</pdfrwt>
<totfact> 0.65339126E+04</totfact>
</mgrwt>
</event>
<event>
 6    0  0.5495958E-006  0.4640545E+03  0.7546771E-02  0.1023612E+00
         21   -1    0    0  502  501  0.00000000000E+00  0.00000000000E+00  0.23456445597E+04  0.23456445597E+04  0.00000000000E+00 0.  1.
         21   -1    0    0  501  502 -0.00000000000E+00 -0.00000000000E+00 -0.22951752779E+02  0.22951752779E+02  0.00000000000E+00 0. -1.
      99926    2    1    2    0    0  0.00000000000E+00  0.71054273576E-14  0.23226928069E+04  0.23685963125E+04  0.46405454008E+03 0.  0.
         25    1    3    3    0    0  0.75341046110E+02 -0.45002174606E+02  0.57645484633E+03  0.59636328433E+03  0.12509000000E+03 0.  0.
         25    1    3    3    0    0 -0.11023902464E+03  0.43793395204E+02  0.96666424459E+03  0.98191535983E+03  0.12509000000E+03 0.  0.
         25    1    3    3    0    0  0.34897978531E+02  0.12087794025E+01  0.77957371600E+03  0.79031766830E+03  0.12509000000E+03 0.  0.
<mgrwt>
<rscale>  2 0.46405454E+03</rscale>
<asrwt>0</asrwt>
<pdfrwt beam="1">  1       21 0.34494757E+00 0.46405454E+03</pdfrwt>
<pdfrwt beam="2">  1       21 0.33752594E-02 0.46405454E+03</pdfrwt>
<totfact> 0.79939702E+03</totfact>
</mgrwt>
</event>
<event>
 6    0  0.1576925E-007  0.4556570E+03  0.7546771E-02  0.1026048E+00
         21   -1    0    0  502  501  0.00000000000E+00  0.00000000000E+00  0.16951854611E+03  0.16951854611E+03  0.00000000000E+00 0.  1.
         21   -1    0    0  501  502 -0.00000000000E+00 -0.00000000000E+00 -0.30619557994E+03  0.30619557994E+03  0.00000000000E+00 0.  1.
      99926    2    1    2    0    0  0.00000000000E+00  0.00000000000E+00 -0.13667703384E+03  0.47571412605E+03  0.45565701810E+03 0.  0.
         25    1    3    3    0    0 -0.10434225066E+02  0.37173534940E+02  0.46221197565E+02  0.13883318032E+03  0.12509000000E+03 0.  0.
         25    1    3    3    0    0  0.13603451243E+02 -0.46176952894E+02 -0.26917083175E+02  0.13670918890E+03  0.12509000000E+03 0.  0.
         25    1    3    3    0    0 -0.31692261772E+01  0.90034179549E+01 -0.15598114823E+03  0.20017175683E+03  0.12509000000E+03 0.  0.
<mgrwt>
<rscale>  2 0.45565702E+03</rscale>
<asrwt>0</asrwt>
<pdfrwt beam="1">  1       21 0.24929198E-01 0.45565702E+03</pdfrwt>
<pdfrwt beam="2">  1       21 0.45028761E-01 0.45565702E+03</pdfrwt>
<totfact> 0.66665156E+04</totfact>
</mgrwt>
</event>
<event>
 6    0  0.1576925E-007  0.4372561E+03  0.7546771E-02  0.1031592E+00
         21   -1    0    0  502  501  0.00000000000E+00  0.00000000000E+00  0.13408077287E+03  0.13408077287E+03  0.00000000000E+00 0. -1.
         21   -1    0    0  501  502 -0.00000000000E+00 -0.00000000000E+00 -0.35648822567E+03  0.35648822567E+03  0.00000000000E+00 0. -1.
      99926    2    1    2    0    0 -0.62172489379E-14 -0.35527136788E-14 -0.22240745280E+03  0.49056899855E+03  0.43725606602E+03 0.  0.
         25    1    3    3    0    0  0.42331185170E+01  0.22503847011E+02 -0.12116833412E+03  0.17565197328E+03  0.12509000000E+03 0.  0.
         25    1    3    3    0    0 -0.66917312491E+02 -0.58886774337E+02 -0.54371362265E+02  0.16293965766E+03  0.12509000000E+03 0.  0.
         25    1    3    3    0    0  0.62684193974E+02  0.36382927327E+02 -0.46867756412E+02  0.15197736761E+03  0.12509000000E+03 0.  0.
<mgrwt>
<rscale>  2 0.43725607E+03</rscale>
<asrwt>0</asrwt>
<pdfrwt beam="1">  1       21 0.19717760E-01 0.43725607E+03</pdfrwt>
<pdfrwt beam="2">  1       21 0.52424740E-01 0.43725607E+03</pdfrwt>
<totfact> 0.76106109E+04</totfact>
</mgrwt>
</event>
<event>
 6    0  0.1576925E-007  0.4516545E+03  0.7546771E-02  0.1027230E+00
         21   -1    0    0  502  501  0.00000000000E+00  0.00000000000E+00  0.53143457493E+02  0.53143457493E+02  0.00000000000E+00 0.  1.
         21   -1    0    0  501  502 -0.00000000000E+00 -0.00000000000E+00 -0.95962787355E+03  0.95962787355E+03  0.00000000000E+00 0.  1.
      99926    2    1    2    0    0  0.00000000000E+00  0.00000000000E+00 -0.90648441606E+03  0.10127713310E+04  0.45165448346E+03 0.  0.
         25    1    3    3    0    0  0.45861175855E+02 -0.80900337619E+02 -0.38159407482E+03  0.41220099238E+03  0.12509000000E+03 0.  0.
         25    1    3    3    0    0 -0.50127852309E+02  0.37509706918E+02 -0.16079559227E+03  0.21312557398E+03  0.12509000000E+03 0.  0.
         25    1    3    3    0    0  0.42666764536E+01  0.43390630702E+02 -0.36409474896E+03  0.38744476468E+03  0.12509000000E+03 0.  0.
<mgrwt>
<rscale>  2 0.45165448E+03</rscale>
<asrwt>0</asrwt>
<pdfrwt beam="1">  1       21 0.78152142E-02 0.45165448E+03</pdfrwt>
<pdfrwt beam="2">  1       21 0.14112175E+00 0.45165448E+03</pdfrwt>
<totfact> 0.39700695E+04</totfact>
</mgrwt>
</event>
<event>
 6    0  0.1576925E-007  0.4558291E+03  0.7546771E-02  0.1025998E+00
         21   -1    0    0  502  501  0.00000000000E+00  0.00000000000E+00  0.87289783187E+02  0.87289783187E+02  0.00000000000E+00 0. -1.
         21   -1    0    0  501  502 -0.00000000000E+00 -0.00000000000E+00 -0.59508735235E+03  0.59508735235E+03  0.00000000000E+00 0. -1.
      99926    2    1    2    0    0 -0.88817841970E-15  0.00000000000E+00 -0.50779756916E+03  0.68237713553E+03  0.45582911695E+03 0.  0.
         25    1    3    3    0    0  0.20482045051E+02  0.28209190348E+02 -0.18985186579E+03  0.23001415529E+03  0.12509000000E+03 0.  0.
         25    1    3    3    0    0  0.46631223194E+01 -0.87721508369E+02 -0.25684470585E+03  0.29888713382E+03  0.12509000000E+03 0.  0.
         25    1    3    3    0    0 -0.25145167370E+02  0.59512318021E+02 -0.61100997524E+02  0.15347584643E+03  0.12509000000E+03 0.  0.
<mgrwt>
<rscale>  2 0.45582912E+03</rscale>
<asrwt>0</asrwt>
<pdfrwt beam="1">  1       21 0.12836733E-01 0.45582912E+03</pdfrwt>
<pdfrwt beam="2">  1       21 0.87512844E-01 0.45582912E+03</pdfrwt>
<totfact> 0.53520323E+04</totfact>
</mgrwt>
</event>
<event>
 6    0  0.1576925E-007  0.4549440E+03  0.7546771E-02  0.1026258E+00
         21   -1    0    0  502  501  0.00000000000E+00  0.00000000000E+00  0.60427890759E+02  0.60427890759E+02  0.00000000000E+00 0. -1.
         21   -1    0    0  501  502 -0.00000000000E+00 -0.00000000000E+00 -0.85628533980E+03  0.85628533980E+03  0.00000000000E+00 0. -1.
      99926    2    1    2    0    0  0.71054273576E-14  0.00000000000E+00 -0.79585744904E+03  0.91671323056E+03  0.45494402720E+03 0.  0.
         25    1    3    3    0    0  0.59273003792E+02  0.58815727293E+02 -0.19826388794E+03  0.24885468876E+03  0.12509000000E+03 0.  0.
         25    1    3    3    0    0 -0.78532471171E+02 -0.14180249070E+02 -0.41875391477E+03  0.44426431066E+03  0.12509000000E+03 0.  0.
         25    1    3    3    0    0  0.19259467379E+02 -0.44635478223E+02 -0.17883964634E+03  0.22359423114E+03  0.12509000000E+03 0.  0.
<mgrwt>
<rscale>  2 0.45494403E+03</rscale>
<asrwt>0</asrwt>
<pdfrwt beam="1">  1       21 0.88864554E-02 0.45494403E+03</pdfrwt>
<pdfrwt beam="2">  1       21 0.12592430E+00 0.45494403E+03</pdfrwt>
<totfact> 0.42537631E+04</totfact>
</mgrwt>
</event>
<event>
 6    0  0.1576925E-007  0.4372468E+03  0.7546771E-02  0.1031595E+00
         21   -1    0    0  502  501  0.00000000000E+00  0.00000000000E+00  0.15837094018E+04  0.15837094018E+04  0.00000000000E+00 0. -1.
         21   -1    0    0  501  502 -0.00000000000E+00 -0.00000000000E+00 -0.30179896864E+02  0.30179896864E+02  0.00000000000E+00 0. -1.
      99926    2    1    2    0    0  0.62172489379E-14  0.00000000000E+00  0.15535295049E+04  0.16138892987E+04  0.43724677887E+03 0.  0.
         25    1    3    3    0    0 -0.60693009400E+02 -0.45996202653E+02  0.66127347655E+03  0.67729565991E+03  0.12509000000E+03 0.  0.
         25    1    3    3    0    0  0.66502905708E+02 -0.19787709614E+02  0.42858706707E+03  0.45182803375E+03  0.12509000000E+03 0.  0.
         25    1    3    3    0    0 -0.58098963072E+01  0.65783912266E+02  0.46366896132E+03  0.48476560501E+03  0.12509000000E+03 0.  0.
<mgrwt>
<rscale>  2 0.43724678E+03</rscale>
<asrwt>0</asrwt>
<pdfrwt beam="1">  1       21 0.23289839E+00 0.43724678E+03</pdfrwt>
<pdfrwt beam="2">  1       21 0.44382212E-02 0.43724678E+03</pdfrwt>
<totfact> 0.24298787E+04</totfact>
</mgrwt>
</event>
<event>
 6    0  0.1576925E-007  0.4542288E+03  0.7546771E-02  0.1026468E+00
         21   -1    0    0  502  501  0.00000000000E+00  0.00000000000E+00  0.22787895435E+04  0.22787895435E+04  0.00000000000E+00 0.  1.
         21   -1    0    0  501  502 -0.00000000000E+00 -0.00000000000E+00 -0.22635239143E+02  0.22635239143E+02  0.00000000000E+00 0.  1.
      99926    2    1    2    0    0  0.26645352591E-14 -0.71054273576E-14  0.22561543044E+04  0.23014247827E+04  0.45422878057E+03 0.  0.
         25    1    3    3    0    0  0.53757489088E+02 -0.52219978793E+02  0.11451320078E+04  0.11543793212E+04  0.12509000000E+03 0.  0.
         25    1    3    3    0    0 -0.56682148003E+02  0.72635088464E+02  0.69407119467E+03  0.71124612713E+03  0.12509000000E+03 0.  0.
         25    1    3    3    0    0  0.29246589151E+01 -0.20415109671E+02  0.41695110191E+03  0.43579933435E+03  0.12509000000E+03 0.  0.
<mgrwt>
<rscale>  2 0.45422878E+03</rscale>
<asrwt>0</asrwt>
<pdfrwt beam="1">  1       21 0.33511595E+00 0.45422878E+03</pdfrwt>
<pdfrwt beam="2">  1       21 0.33287132E-02 0.45422878E+03</pdfrwt>
<totfact> 0.94396466E+03</totfact>
</mgrwt>
</event>
<event>
 6    0  0.1576925E-007  0.4529072E+03  0.7546771E-02  0.1026859E+00
         21   -1    0    0  502  501  0.00000000000E+00  0.00000000000E+00  0.25301844066E+03  0.25301844066E+03  0.00000000000E+00 0.  1.
         21   -1    0    0  501  502 -0.00000000000E+00 -0.00000000000E+00 -0.20267787907E+03  0.20267787907E+03  0.00000000000E+00 0.  1.
      99926    2    1    2    0    0 -0.35527136788E-14 -0.42188474936E-14  0.50340561590E+02  0.45569631973E+03  0.45290723517E+03 0.  0.
         25    1    3    3    0    0 -0.89581687720E+02  0.41840589802E+02 -0.12472108094E+02  0.15993303383E+03  0.12509000000E+03 0.  0.
         25    1    3    3    0    0  0.88692802516E+01 -0.12218805573E+01 -0.86501506624E+01  0.12570795651E+03  0.12509000000E+03 0.  0.
         25    1    3    3    0    0  0.80712407468E+02 -0.40618709245E+02  0.71462820347E+02  0.17005532938E+03  0.12509000000E+03 0.  0.
<mgrwt>
<rscale>  2 0.45290724E+03</rscale>
<asrwt>0</asrwt>
<pdfrwt beam="1">  1       21 0.37208594E-01 0.45290724E+03</pdfrwt>
<pdfrwt beam="2">  1       21 0.29805571E-01 0.45290724E+03</pdfrwt>
<totfact> 0.69650464E+04</totfact>
</mgrwt>
</event>
<event>
 6    0  0.1576925E-007  0.4358798E+03  0.7546771E-02  0.1032019E+00
         21   -1    0    0  502  501  0.00000000000E+00  0.00000000000E+00  0.23548206745E+02  0.23548206745E+02  0.00000000000E+00 0.  1.
         21   -1    0    0  501  502 -0.00000000000E+00 -0.00000000000E+00 -0.20170454842E+04  0.20170454842E+04  0.00000000000E+00 0.  1.
      99926    2    1    2    0    0 -0.35527136788E-14  0.71054273576E-14 -0.19934972775E+04  0.20405936910E+04  0.43587981865E+03 0.  0.
         25    1    3    3    0    0  0.71711290415E+02 -0.57321116190E+02 -0.77589929278E+03  0.79126192893E+03  0.12509000000E+03 0.  0.
         25    1    3    3    0    0 -0.42048813991E+02  0.84592564048E+01 -0.43201799338E+03  0.45180384735E+03  0.12509000000E+03 0.  0.
         25    1    3    3    0    0 -0.29662476424E+02  0.48861859785E+02 -0.78557999131E+03  0.79752791468E+03  0.12509000000E+03 0.  0.
<mgrwt>
<rscale>  2 0.43587982E+03</rscale>
<asrwt>0</asrwt>
<pdfrwt beam="1">  1       21 0.34629704E-02 0.43587982E+03</pdfrwt>
<pdfrwt beam="2">  1       21 0.29662444E+00 0.43587982E+03</pdfrwt>
<totfact> 0.15191199E+04</totfact>
</mgrwt>
</event>
<event>
 6    0  0.1576925E-007  0.4556508E+03  0.7546771E-02  0.1026050E+00
         21   -1    0    0  502  501  0.00000000000E+00  0.00000000000E+00  0.66389675424E+03  0.66389675424E+03  0.00000000000E+00 0. -1.
         21   -1    0    0  501  502 -0.00000000000E+00 -0.00000000000E+00 -0.78181460241E+02  0.78181460241E+02  0.00000000000E+00 0. -1.
      99926    2    1    2    0    0 -0.71054273576E-14  0.35527136788E-14  0.58571529400E+03  0.74207821448E+03  0.45565082112E+03 0.  0.
         25    1    3    3    0    0  0.50740767357E+02 -0.29888982024E+02  0.65527766300E+02  0.15300121887E+03  0.12509000000E+03 0.  0.
         25    1    3    3    0    0 -0.14422774353E+02  0.83885938119E+01  0.14984098981E+03  0.19590358663E+03  0.12509000000E+03 0.  0.
         25    1    3    3    0    0 -0.36317993004E+02  0.21500388212E+02  0.37034653789E+03  0.39317340899E+03  0.12509000000E+03 0.  0.
<mgrwt>
<rscale>  2 0.45565082E+03</rscale>
<asrwt>0</asrwt>
<pdfrwt beam="1">  1       21 0.97631873E-01 0.45565082E+03</pdfrwt>
<pdfrwt beam="2">  1       21 0.11497274E-01 0.45565082E+03</pdfrwt>
<totfact> 0.50418763E+04</totfact>
</mgrwt>
</event>
<event>
 6    0  0.1576925E-007  0.4564193E+03  0.7546771E-02  0.1025825E+00
         21   -1    0    0  502  501  0.00000000000E+00  0.00000000000E+00  0.19147368295E+03  0.19147368295E+03  0.00000000000E+00 0. -1.
         21   -1    0    0  501  502 -0.00000000000E+00 -0.00000000000E+00 -0.27199377834E+03  0.27199377834E+03  0.00000000000E+00 0. -1.
      99926    2    1    2    0    0  0.00000000000E+00  0.00000000000E+00 -0.80520095387E+02  0.46346746129E+03  0.45641932684E+03 0.  0.
         25    1    3    3    0    0 -0.11477867585E+02  0.51148562808E+02 -0.26736823585E+02  0.13823994631E+03  0.12509000000E+03 0.  0.
         25    1    3    3    0    0  0.10058750850E+03 -0.25426801840E+02 -0.47753104338E+02  0.16938782776E+03  0.12509000000E+03 0.  0.
         25    1    3    3    0    0 -0.89109640916E+02 -0.25721760969E+02 -0.60301674642E+01  0.15583968721E+03  0.12509000000E+03 0.  0.
<mgrwt>
<rscale>  2 0.45641933E+03</rscale>
<asrwt>0</asrwt>
<pdfrwt beam="1">  1       21 0.28157894E-01 0.45641933E+03</pdfrwt>
<pdfrwt beam="2">  1       21 0.39999085E-01 0.45641933E+03</pdfrwt>
<totfact> 0.67163038E+04</totfact>
</mgrwt>
</event>
<event>
 6    0  0.1576925E-007  0.4637074E+03  0.7546771E-02  0.1023711E+00
         21   -1    0    0  502  501  0.00000000000E+00  0.00000000000E+00  0.26336956926E+03  0.26336956926E+03  0.00000000000E+00 0.  1.
         21   -1    0    0  501  502 -0.00000000000E+00 -0.00000000000E+00 -0.20410912480E+03  0.20410912480E+03  0.00000000000E+00 0.  1.
      99926    2    1    2    0    0  0.17763568394E-14  0.00000000000E+00  0.59260444465E+02  0.46747869406E+03  0.46370737445E+03 0.  0.
         25    1    3    3    0    0  0.67322211312E+00 -0.25014202413E+02  0.85870989131E+02  0.15377743145E+03  0.12509000000E+03 0.  0.
         25    1    3    3    0    0  0.13967634590E+02 -0.79455892995E+02 -0.16411798221E+02  0.14975042226E+03  0.12509000000E+03 0.  0.
         25    1    3    3    0    0 -0.14640856703E+02  0.10447009541E+03 -0.10198746445E+02  0.16395084034E+03  0.12509000000E+03 0.  0.
<mgrwt>
<rscale>  2 0.46370737E+03</rscale>
<asrwt>0</asrwt>
<pdfrwt beam="1">  1       21 0.38730819E-01 0.46370737E+03</pdfrwt>
<pdfrwt beam="2">  1       21 0.30016048E-01 0.46370737E+03</pdfrwt>
<totfact> 0.63139276E+04</totfact>
</mgrwt>
</event>
<event>
 6    0  0.1576925E-007  0.4636410E+03  0.7546771E-02  0.1023730E+00
         21   -1    0    0  502  501  0.00000000000E+00  0.00000000000E+00  0.23070806090E+02  0.23070806090E+02  0.00000000000E+00 0.  1.
         21   -1    0    0  501  502 -0.00000000000E+00 -0.00000000000E+00 -0.23293829269E+04  0.23293829269E+04  0.00000000000E+00 0.  1.
      99926    2    1    2    0    0  0.71054273576E-14 -0.71054273576E-14 -0.23063121208E+04  0.23524537330E+04  0.46364098963E+03 0.  0.
         25    1    3    3    0    0  0.52655310498E+02 -0.36518560945E+02 -0.32876842387E+03  0.35755051622E+03  0.12509000000E+03 0.  0.
         25    1    3    3    0    0 -0.31104334717E+02  0.36259641414E+02 -0.11303039033E+04  0.11382076538E+04  0.12509000000E+03 0.  0.
         25    1    3    3    0    0 -0.21550975782E+02  0.25891953060E+00 -0.84723979368E+03  0.85669556302E+03  0.12509000000E+03 0.  0.
<mgrwt>
<rscale>  2 0.46364099E+03</rscale>
<asrwt>0</asrwt>
<pdfrwt beam="1">  1       21 0.33927674E-02 0.46364099E+03</pdfrwt>
<pdfrwt beam="2">  1       21 0.34255613E+00 0.46364099E+03</pdfrwt>
<totfact> 0.81973828E+03</totfact>
</mgrwt>
</event>
<event>
 6    0  0.1576925E-007  0.4513037E+03  0.7546771E-02  0.1027334E+00
         21   -1    0    0  502  501  0.00000000000E+00  0.00000000000E+00  0.82411622286E+03  0.82411622286E+03  0.00000000000E+00 0.  1.
         21   -1    0    0  501  502 -0.00000000000E+00 -0.00000000000E+00 -0.61785903007E+02  0.61785903007E+02  0.00000000000E+00 0.  1.
      99926    2    1    2    0    0 -0.71054273576E-14  0.00000000000E+00  0.76233031985E+03  0.88590212586E+03  0.45130373369E+03 0.  0.
         25    1    3    3    0    0  0.48162805660E+02 -0.81327499549E+02  0.25617866436E+03  0.30034785534E+03  0.12509000000E+03 0.  0.
         25    1    3    3    0    0  0.14254629788E+02  0.24275688710E+02  0.14189877536E+03  0.19124663156E+03  0.12509000000E+03 0.  0.
         25    1    3    3    0    0 -0.62417435449E+02  0.57051810838E+02  0.36425288013E+03  0.39430763897E+03  0.12509000000E+03 0.  0.
<mgrwt>
<rscale>  2 0.45130373E+03</rscale>
<asrwt>0</asrwt>
<pdfrwt beam="1">  1       21 0.12119356E+00 0.45130373E+03</pdfrwt>
<pdfrwt beam="2">  1       21 0.90861627E-02 0.45130373E+03</pdfrwt>
<totfact> 0.45141401E+04</totfact>
</mgrwt>
</event>
<event>
 6    0  0.1576925E-007  0.4584811E+03  0.7546771E-02  0.1025223E+00
         21   -1    0    0  502  501  0.00000000000E+00  0.00000000000E+00  0.10833502683E+03  0.10833502683E+03  0.00000000000E+00 0. -1.
         21   -1    0    0  501  502 -0.00000000000E+00 -0.00000000000E+00 -0.48508076513E+03  0.48508076513E+03  0.00000000000E+00 0. -1.
      99926    2    1    2    0    0  0.22204460493E-14  0.35527136788E-14 -0.37674573830E+03  0.59341579196E+03  0.45848113464E+03 0.  0.
         25    1    3    3    0    0  0.17001295721E+02 -0.52398725259E+02 -0.28613582135E+03  0.31710548217E+03  0.12509000000E+03 0.  0.
         25    1    3    3    0    0 -0.14494409509E+02  0.33938201321E+02 -0.21470693960E+02  0.13217559614E+03  0.12509000000E+03 0.  0.
         25    1    3    3    0    0 -0.25068862114E+01  0.18460523938E+02 -0.69139222988E+02  0.14413471365E+03  0.12509000000E+03 0.  0.
<mgrwt>
<rscale>  2 0.45848113E+03</rscale>
<asrwt>0</asrwt>
<pdfrwt beam="1">  1       21 0.15931621E-01 0.45848113E+03</pdfrwt>
<pdfrwt beam="2">  1       21 0.71335407E-01 0.45848113E+03</pdfrwt>
<totfact> 0.57487447E+04</totfact>
</mgrwt>
</event>
<event>
 6    0  0.1576925E-007  0.4497035E+03  0.7546771E-02  0.1027810E+00
         21   -1    0    0  502  501  0.00000000000E+00  0.00000000000E+00  0.38421109252E+03  0.38421109252E+03  0.00000000000E+00 0. -1.
         21   -1    0    0  501  502 -0.00000000000E+00 -0.00000000000E+00 -0.13158994768E+03  0.13158994768E+03  0.00000000000E+00 0. -1.
      99926    2    1    2    0    0  0.71054273576E-14  0.71054273576E-14  0.25262114484E+03  0.51580104020E+03  0.44970353595E+03 0.  0.
         25    1    3    3    0    0 -0.10756978229E+03 -0.13777066321E+02  0.64522318873E+02  0.17768427998E+03  0.12509000000E+03 0.  0.
         25    1    3    3    0    0  0.71398760961E+02 -0.20219995667E+02  0.83855190772E+02  0.16788636756E+03  0.12509000000E+03 0.  0.
         25    1    3    3    0    0  0.36171021329E+02  0.33997061989E+02  0.10424363520E+03  0.17023039266E+03  0.12509000000E+03 0.  0.
<mgrwt>
<rscale>  2 0.44970354E+03</rscale>
<asrwt>0</asrwt>
<pdfrwt beam="1">  1       21 0.56501631E-01 0.44970354E+03</pdfrwt>
<pdfrwt beam="2">  1       21 0.19351463E-01 0.44970354E+03</pdfrwt>
<totfact> 0.66943451E+04</totfact>
</mgrwt>
</event>
<event>
 6    0  0.1576925E-007  0.4899278E+03  0.7546771E-02  0.1016442E+00
         21   -1    0    0  502  501  0.00000000000E+00  0.00000000000E+00  0.55620387995E+03  0.55620387995E+03  0.00000000000E+00 0.  1.
         21   -1    0    0  501  502 -0.00000000000E+00 -0.00000000000E+00 -0.10788726489E+03  0.10788726489E+03  0.00000000000E+00 0.  1.
      99926    2    1    2    0    0 -0.71054273576E-14  0.14210854715E-13  0.44831661507E+03  0.66409114484E+03  0.48992781235E+03 0.  0.
         25    1    3    3    0    0  0.24475545349E+02 -0.80425475393E+02  0.28335602200E+03  0.32094462562E+03  0.12509000000E+03 0.  0.
         25    1    3    3    0    0  0.43981901967E+02  0.78348812192E+02  0.56787080860E+02  0.16415000678E+03  0.12509000000E+03 0.  0.
         25    1    3    3    0    0 -0.68457447316E+02  0.20766632006E+01  0.10817351221E+03  0.17899651244E+03  0.12509000000E+03 0.  0.
<mgrwt>
<rscale>  2 0.48992781E+03</rscale>
<asrwt>0</asrwt>
<pdfrwt beam="1">  1       21 0.81794687E-01 0.48992781E+03</pdfrwt>
<pdfrwt beam="2">  1       21 0.15865774E-01 0.48992781E+03</pdfrwt>
<totfact> 0.42056258E+04</totfact>
</mgrwt>
</event>
<event>
 6    0  0.1576925E-007  0.4555172E+03  0.7546771E-02  0.1026089E+00
         21   -1    0    0  502  501  0.00000000000E+00  0.00000000000E+00  0.20681456402E+03  0.20681456402E+03  0.00000000000E+00 0. -1.
         21   -1    0    0  501  502 -0.00000000000E+00 -0.00000000000E+00 -0.25082362727E+03  0.25082362727E+03  0.00000000000E+00 0. -1.
      99926    2    1    2    0    0  0.00000000000E+00 -0.26645352591E-14 -0.44009063259E+02  0.45763819129E+03  0.45551719669E+03 0.  0.
         25    1    3    3    0    0  0.26687092311E+02  0.53046821992E+02  0.18876788598E+02  0.13974980310E+03  0.12509000000E+03 0.  0.
         25    1    3    3    0    0 -0.20470908939E+02  0.32717659793E+01 -0.11483335592E+03  0.17106715142E+03  0.12509000000E+03 0.  0.
         25    1    3    3    0    0 -0.62161833728E+01 -0.56318587971E+02  0.51947504059E+02  0.14682123676E+03  0.12509000000E+03 0.  0.
<mgrwt>
<rscale>  2 0.45551720E+03</rscale>
<asrwt>0</asrwt>
<pdfrwt beam="1">  1       21 0.30413907E-01 0.45551720E+03</pdfrwt>
<pdfrwt beam="2">  1       21 0.36885827E-01 0.45551720E+03</pdfrwt>
<totfact> 0.68071622E+04</totfact>
</mgrwt>
</event>
<event>
 6    0  0.1576925E-007  0.4625017E+03  0.7546771E-02  0.1024058E+00
         21   -1    0    0  502  501  0.00000000000E+00  0.00000000000E+00  0.12653342421E+03  0.12653342421E+03  0.00000000000E+00 0. -1.
         21   -1    0    0  501  502 -0.00000000000E+00 -0.00000000000E+00 -0.42263102447E+03  0.42263102447E+03  0.00000000000E+00 0. -1.
      99926    2    1    2    0    0 -0.88817841970E-15  0.00000000000E+00 -0.29609760026E+03  0.54916444869E+03  0.46250167872E+03 0.  0.
         25    1    3    3    0    0  0.70209784028E+01  0.96297546311E+02 -0.27284811913E+02  0.16035735289E+03  0.12509000000E+03 0.  0.
         25    1    3    3    0    0  0.29435610754E+02 -0.58998754383E+02 -0.10457803715E+03  0.17587319908E+03  0.12509000000E+03 0.  0.
         25    1    3    3    0    0 -0.36456589157E+02 -0.37298791928E+02 -0.16423475120E+03  0.21293389673E+03  0.12509000000E+03 0.  0.
<mgrwt>
<rscale>  2 0.46250168E+03</rscale>
<asrwt>0</asrwt>
<pdfrwt beam="1">  1       21 0.18607857E-01 0.46250168E+03</pdfrwt>
<pdfrwt beam="2">  1       21 0.62151621E-01 0.46250168E+03</pdfrwt>
<totfact> 0.58378750E+04</totfact>
</mgrwt>
</event>
<event>
 6    0  0.1576925E-007  0.4525498E+03  0.7546771E-02  0.1026964E+00
         21   -1    0    0  502  501  0.00000000000E+00  0.00000000000E+00  0.35918646933E+03  0.35918646933E+03  0.00000000000E+00 0.  1.
         21   -1    0    0  501  502 -0.00000000000E+00 -0.00000000000E+00 -0.14254526350E+03  0.14254526350E+03  0.00000000000E+00 0.  1.
      99926    2    1    2    0    0  0.26645352591E-14  0.14210854715E-13  0.21664120583E+03  0.50173173283E+03  0.45254979799E+03 0.  0.
         25    1    3    3    0    0 -0.29853226854E+02  0.91550757867E+00 -0.78215658929E+01  0.12884385240E+03  0.12509000000E+03 0.  0.
         25    1    3    3    0    0 -0.68351092747E+01  0.75859130358E+02  0.11255605173E+03  0.18470977034E+03  0.12509000000E+03 0.  0.
         25    1    3    3    0    0  0.36688336128E+02 -0.76774637937E+02  0.11190671999E+03  0.18817811009E+03  0.12509000000E+03 0.  0.
<mgrwt>
<rscale>  2 0.45254980E+03</rscale>
<asrwt>0</asrwt>
<pdfrwt beam="1">  1       21 0.52821539E-01 0.45254980E+03</pdfrwt>
<pdfrwt beam="2">  1       21 0.20962539E-01 0.45254980E+03</pdfrwt>
<totfact> 0.66431817E+04</totfact>
</mgrwt>
</event>
<event>
 6    0  0.1576925E-007  0.4549829E+03  0.7546771E-02  0.1026246E+00
         21   -1    0    0  502  501  0.00000000000E+00  0.00000000000E+00  0.50905755832E+03  0.50905755832E+03  0.00000000000E+00 0. -1.
         21   -1    0    0  501  502 -0.00000000000E+00 -0.00000000000E+00 -0.10166305956E+03  0.10166305956E+03  0.00000000000E+00 0. -1.
      99926    2    1    2    0    0  0.00000000000E+00  0.00000000000E+00  0.40739449876E+03  0.61072061787E+03  0.45498285185E+03 0.  0.
         25    1    3    3    0    0 -0.30446170086E+02  0.65226693459E+02  0.20374214616E+03  0.24967951665E+03  0.12509000000E+03 0.  0.
         25    1    3    3    0    0  0.72297060923E+01 -0.10495843787E+03  0.12937345802E+03  0.20845513203E+03  0.12509000000E+03 0.  0.
         25    1    3    3    0    0  0.23216463994E+02  0.39731744411E+02  0.74278894582E+02  0.15258596919E+03  0.12509000000E+03 0.  0.
<mgrwt>
<rscale>  2 0.45498285E+03</rscale>
<asrwt>0</asrwt>
<pdfrwt beam="1">  1       21 0.74861404E-01 0.45498285E+03</pdfrwt>
<pdfrwt beam="2">  1       21 0.14950450E-01 0.45498285E+03</pdfrwt>
<totfact> 0.58031053E+04</totfact>
</mgrwt>
</event>
<event>
 6    0  0.1576925E-007  0.4534034E+03  0.7546771E-02  0.1026712E+00
         21   -1    0    0  502  501  0.00000000000E+00  0.00000000000E+00  0.47074993436E+02  0.47074993436E+02  0.00000000000E+00 0.  1.
         21   -1    0    0  501  502 -0.00000000000E+00 -0.00000000000E+00 -0.10917403128E+04  0.10917403128E+04  0.00000000000E+00 0.  1.
      99926    2    1    2    0    0  0.00000000000E+00  0.71054273576E-14 -0.10446653194E+04  0.11388153062E+04  0.45340343209E+03 0.  0.
         25    1    3    3    0    0 -0.56252139041E+02 -0.58872180949E+02 -0.51499485982E+03  0.53618788739E+03  0.12509000000E+03 0.  0.
         25    1    3    3    0    0 -0.21386606939E+02  0.13028691745E+02 -0.18159868247E+03  0.22192954589E+03  0.12509000000E+03 0.  0.
         25    1    3    3    0    0  0.77638745980E+02  0.45843489205E+02 -0.34807177706E+03  0.38069787295E+03  0.12509000000E+03 0.  0.
<mgrwt>
<rscale>  2 0.45340343E+03</rscale>
<asrwt>0</asrwt>
<pdfrwt beam="1">  1       21 0.69227936E-02 0.45340343E+03</pdfrwt>
<pdfrwt beam="2">  1       21 0.16055004E+00 0.45340343E+03</pdfrwt>
<totfact> 0.34586417E+04</totfact>
</mgrwt>
</event>
<event>
 6    0  0.1576925E-007  0.4503517E+03  0.7546771E-02  0.1027617E+00
         21   -1    0    0  502  501  0.00000000000E+00  0.00000000000E+00  0.32259092654E+03  0.32259092654E+03  0.00000000000E+00 0. -1.
         21   -1    0    0  501  502 -0.00000000000E+00 -0.00000000000E+00 -0.15717792095E+03  0.15717792095E+03  0.00000000000E+00 0. -1.
      99926    2    1    2    0    0  0.88817841970E-15  0.00000000000E+00  0.16541300560E+03  0.47976884749E+03  0.45035173432E+03 0.  0.
         25    1    3    3    0    0 -0.14259911489E+02  0.30791164042E+02  0.15910556948E+02  0.13058366966E+03  0.12509000000E+03 0.  0.
         25    1    3    3    0    0  0.74240053033E+01 -0.10688703255E+03  0.50374127257E+02  0.17223534591E+03  0.12509000000E+03 0.  0.
         25    1    3    3    0    0  0.68359061861E+01  0.76095868511E+02  0.99128321392E+02  0.17694983193E+03  0.12509000000E+03 0.  0.
<mgrwt>
<rscale>  2 0.45035173E+03</rscale>
<asrwt>0</asrwt>
<pdfrwt beam="1">  1       21 0.47439842E-01 0.45035173E+03</pdfrwt>
<pdfrwt beam="2">  1       21 0.23114400E-01 0.45035173E+03</pdfrwt>
<totfact> 0.69236552E+04</totfact>
</mgrwt>
</event>
<event>
 6    0  0.1576925E-007  0.4825452E+03  0.7546771E-02  0.1018438E+00
         21   -1    0    0  502  501  0.00000000000E+00  0.00000000000E+00  0.33443276957E+03  0.33443276957E+03  0.00000000000E+00 0. -1.
         21   -1    0    0  501  502 -0.00000000000E+00 -0.00000000000E+00 -0.17406326082E+03  0.17406326082E+03  0.00000000000E+00 0. -1.
      99926    2    1    2    0    0  0.00000000000E+00  0.71054273576E-14  0.16036950876E+03  0.50849603039E+03  0.48254516223E+03 0.  0.
         25    1    3    3    0    0  0.81287864221E+02  0.40768818199E+02 -0.35725497484E+02  0.15872502222E+03  0.12509000000E+03 0.  0.
         25    1    3    3    0    0 -0.40483390845E+01  0.15228215203E+02  0.51819042748E+02  0.13631217436E+03  0.12509000000E+03 0.  0.
         25    1    3    3    0    0 -0.77239525136E+02 -0.55997033402E+02  0.14427596349E+03  0.21345883382E+03  0.12509000000E+03 0.  0.
<mgrwt>
<rscale>  2 0.48254516E+03</rscale>
<asrwt>0</asrwt>
<pdfrwt beam="1">  1       21 0.49181289E-01 0.48254516E+03</pdfrwt>
<pdfrwt beam="2">  1       21 0.25597538E-01 0.48254516E+03</pdfrwt>
<totfact> 0.52277180E+04</totfact>
</mgrwt>
</event>
<event>
 6    0  0.1576925E-007  0.4523746E+03  0.7546771E-02  0.1027016E+00
         21   -1    0    0  502  501  0.00000000000E+00  0.00000000000E+00  0.41363795504E+03  0.41363795504E+03  0.00000000000E+00 0.  1.
         21   -1    0    0  501  502 -0.00000000000E+00 -0.00000000000E+00 -0.12368471308E+03  0.12368471308E+03  0.00000000000E+00 0.  1.
      99926    2    1    2    0    0  0.00000000000E+00 -0.71054273576E-14  0.28995324195E+03  0.53732266812E+03  0.45237458722E+03 0.  0.
         25    1    3    3    0    0 -0.18782350753E+02  0.29694757383E+02  0.60218793584E+02  0.14320742480E+03  0.12509000000E+03 0.  0.
         25    1    3    3    0    0  0.93715449358E+02 -0.61769279654E+02  0.14779639071E+03  0.22380641314E+03  0.12509000000E+03 0.  0.
         25    1    3    3    0    0 -0.74933098605E+02  0.32074522272E+02  0.81938057660E+02  0.17030883018E+03  0.12509000000E+03 0.  0.
<mgrwt>
<rscale>  2 0.45237459E+03</rscale>
<asrwt>0</asrwt>
<pdfrwt beam="1">  1       21 0.60829111E-01 0.45237459E+03</pdfrwt>
<pdfrwt beam="2">  1       21 0.18188928E-01 0.45237459E+03</pdfrwt>
<totfact> 0.64032260E+04</totfact>
</mgrwt>
</event>
<event>
 6    0  0.1576925E-007  0.4544746E+03  0.7546771E-02  0.1026396E+00
         21   -1    0    0  502  501  0.00000000000E+00  0.00000000000E+00  0.31503201942E+03  0.31503201942E+03  0.00000000000E+00 0. -1.
         21   -1    0    0  501  502 -0.00000000000E+00 -0.00000000000E+00 -0.16390965965E+03  0.16390965965E+03  0.00000000000E+00 0. -1.
      99926    2    1    2    0    0  0.00000000000E+00  0.00000000000E+00  0.15112235976E+03  0.47894167907E+03  0.45447460251E+03 0.  0.
         25    1    3    3    0    0 -0.14428614178E+02 -0.22262157144E+02  0.30297598719E+02  0.13141248470E+03  0.12509000000E+03 0.  0.
         25    1    3    3    0    0  0.50888631381E+02 -0.68162960191E+02  0.53885343019E+01  0.15136837962E+03  0.12509000000E+03 0.  0.
         25    1    3    3    0    0 -0.36460017203E+02  0.90425117335E+02  0.11543622674E+03  0.19616081475E+03  0.12509000000E+03 0.  0.
<mgrwt>
<rscale>  2 0.45447460E+03</rscale>
<asrwt>0</asrwt>
<pdfrwt beam="1">  1       21 0.46328238E-01 0.45447460E+03</pdfrwt>
<pdfrwt beam="2">  1       21 0.24104362E-01 0.45447460E+03</pdfrwt>
<totfact> 0.67056418E+04</totfact>
</mgrwt>
</event>
<event>
 6    0  0.1576925E-007  0.4518701E+03  0.7546771E-02  0.1027166E+00
         21   -1    0    0  502  501  0.00000000000E+00  0.00000000000E+00  0.49081694914E+03  0.49081694914E+03  0.00000000000E+00 0.  1.
         21   -1    0    0  501  502 -0.00000000000E+00 -0.00000000000E+00 -0.10400345090E+03  0.10400345090E+03  0.00000000000E+00 0.  1.
      99926    2    1    2    0    0 -0.35527136788E-14  0.00000000000E+00  0.38681349824E+03  0.59482040003E+03  0.45187014271E+03 0.  0.
         25    1    3    3    0    0 -0.33497091014E+02 -0.24936581210E+02  0.97982123667E+02  0.16429209612E+03  0.12509000000E+03 0.  0.
         25    1    3    3    0    0 -0.16393428628E+02  0.53653314209E+02  0.25377157058E+03  0.28843533203E+03  0.12509000000E+03 0.  0.
         25    1    3    3    0    0  0.49890519642E+02 -0.28716732999E+02  0.35059803997E+02  0.14209297189E+03  0.12509000000E+03 0.  0.
<mgrwt>
<rscale>  2 0.45187014E+03</rscale>
<asrwt>0</asrwt>
<pdfrwt beam="1">  1       21 0.72178962E-01 0.45187014E+03</pdfrwt>
<pdfrwt beam="2">  1       21 0.15294625E-01 0.45187014E+03</pdfrwt>
<totfact> 0.60480267E+04</totfact>
</mgrwt>
</event>
<event>
 6    0  0.1576925E-007  0.4577213E+03  0.7546771E-02  0.1025444E+00
         21   -1    0    0  502  501  0.00000000000E+00  0.00000000000E+00  0.76162532375E+03  0.76162532375E+03  0.00000000000E+00 0.  1.
         21   -1    0    0  501  502 -0.00000000000E+00 -0.00000000000E+00 -0.68770285057E+02  0.68770285057E+02  0.00000000000E+00 0.  1.
      99926    2    1    2    0    0  0.00000000000E+00  0.71054273576E-14  0.69285503870E+03  0.83039560881E+03  0.45772127161E+03 0.  0.
         25    1    3    3    0    0 -0.69417540851E+02  0.45637701959E+02  0.33691819771E+03  0.36886715070E+03  0.12509000000E+03 0.  0.
         25    1    3    3    0    0 -0.13077999642E+02 -0.56172110519E+02  0.12482688982E+03  0.18589136773E+03  0.12509000000E+03 0.  0.
         25    1    3    3    0    0  0.82495540493E+02  0.10534408560E+02  0.23110995116E+03  0.27563709037E+03  0.12509000000E+03 0.  0.
<mgrwt>
<rscale>  2 0.45772127E+03</rscale>
<asrwt>0</asrwt>
<pdfrwt beam="1">  1       21 0.11200372E+00 0.45772127E+03</pdfrwt>
<pdfrwt beam="2">  1       21 0.10113278E-01 0.45772127E+03</pdfrwt>
<totfact> 0.45353356E+04</totfact>
</mgrwt>
</event>
<event>
 6    0  0.1576925E-007  0.4542012E+03  0.7546771E-02  0.1026477E+00
         21   -1    0    0  502  501  0.00000000000E+00  0.00000000000E+00  0.47161878593E+03  0.47161878593E+03  0.00000000000E+00 0.  1.
         21   -1    0    0  501  502 -0.00000000000E+00 -0.00000000000E+00 -0.10935670460E+03  0.10935670460E+03  0.00000000000E+00 0.  1.
      99926    2    1    2    0    0  0.00000000000E+00 -0.71054273576E-14  0.36226208134E+03  0.58097549053E+03  0.45420117241E+03 0.  0.
         25    1    3    3    0    0  0.17301510517E+02 -0.12687808581E+02  0.24338993598E+03  0.27449315436E+03  0.12509000000E+03 0.  0.
         25    1    3    3    0    0  0.33934836865E+02 -0.29902833160E+02  0.22028647920E+02  0.13482774942E+03  0.12509000000E+03 0.  0.
         25    1    3    3    0    0 -0.51236347382E+02  0.42590641741E+02  0.96843497434E+02  0.17165458675E+03  0.12509000000E+03 0.  0.
<mgrwt>
<rscale>  2 0.45420117E+03</rscale>
<asrwt>0</asrwt>
<pdfrwt beam="1">  1       21 0.69355703E-01 0.45420117E+03</pdfrwt>
<pdfrwt beam="2">  1       21 0.16081868E-01 0.45420117E+03</pdfrwt>
<totfact> 0.60244375E+04</totfact>
</mgrwt>
</event>
<event>
 6    0  0.1576925E-007  0.4595772E+03  0.7546771E-02  0.1024904E+00
         21   -1    0    0  502  501  0.00000000000E+00  0.00000000000E+00  0.16213310193E+03  0.16213310193E+03  0.00000000000E+00 0.  1.
         21   -1    0    0  501  502 -0.00000000000E+00 -0.00000000000E+00 -0.32567564129E+03  0.32567564129E+03  0.00000000000E+00 0.  1.
      99926    2    1    2    0    0  0.00000000000E+00  0.00000000000E+00 -0.16354253935E+03  0.48780874322E+03  0.45957720546E+03 0.  0.
         25    1    3    3    0    0  0.10858384014E+03 -0.60612908368E+02 -0.54892500703E+02  0.18472972077E+03  0.12509000000E+03 0.  0.
         25    1    3    3    0    0 -0.64720632664E+02  0.48709738746E+02 -0.68867985385E+02  0.16416974889E+03  0.12509000000E+03 0.  0.
         25    1    3    3    0    0 -0.43863207481E+02  0.11903169623E+02 -0.39782053266E+02  0.13890927356E+03  0.12509000000E+03 0.  0.
<mgrwt>
<rscale>  2 0.45957721E+03</rscale>
<asrwt>0</asrwt>
<pdfrwt beam="1">  1       21 0.23843103E-01 0.45957721E+03</pdfrwt>
<pdfrwt beam="2">  1       21 0.47893476E-01 0.45957721E+03</pdfrwt>
<totfact> 0.63786513E+04</totfact>
</mgrwt>
</event>
<event>
 6    0  0.1576925E-007  0.4479761E+03  0.7546771E-02  0.1028327E+00
         21   -1    0    0  502  501  0.00000000000E+00  0.00000000000E+00  0.79420544742E+02  0.79420544742E+02  0.00000000000E+00 0. -1.
         21   -1    0    0  501  502 -0.00000000000E+00 -0.00000000000E+00 -0.63170854641E+03  0.63170854641E+03  0.00000000000E+00 0. -1.
      99926    2    1    2    0    0  0.00000000000E+00  0.00000000000E+00 -0.55228800167E+03  0.71112909116E+03  0.44797605684E+03 0.  0.
         25    1    3    3    0    0  0.40373062643E+02 -0.47199389320E+02 -0.29182595073E+03  0.32352381699E+03  0.12509000000E+03 0.  0.
         25    1    3    3    0    0 -0.54340845004E+01  0.67646265312E+02 -0.76741286265E+02  0.16168574335E+03  0.12509000000E+03 0.  0.
         25    1    3    3    0    0 -0.34938978143E+02 -0.20446875992E+02 -0.18372076467E+03  0.22591953081E+03  0.12509000000E+03 0.  0.
<mgrwt>
<rscale>  2 0.44797606E+03</rscale>
<asrwt>0</asrwt>
<pdfrwt beam="1">  1       21 0.11679492E-01 0.44797606E+03</pdfrwt>
<pdfrwt beam="2">  1       21 0.92898316E-01 0.44797606E+03</pdfrwt>
<totfact> 0.55295754E+04</totfact>
</mgrwt>
</event>
<event>
 6    0  0.1576925E-007  0.4617825E+03  0.7546771E-02  0.1024266E+00
         21   -1    0    0  502  501  0.00000000000E+00  0.00000000000E+00  0.73853495869E+02  0.73853495869E+02  0.00000000000E+00 0.  1.
         21   -1    0    0  501  502 -0.00000000000E+00 -0.00000000000E+00 -0.72184481922E+03  0.72184481922E+03  0.00000000000E+00 0.  1.
      99926    2    1    2    0    0  0.00000000000E+00 -0.71054273576E-14 -0.64799132335E+03  0.79569831509E+03  0.46178247422E+03 0.  0.
         25    1    3    3    0    0  0.55824834038E+02 -0.60583404177E+02 -0.11687351185E+03  0.18998338567E+03  0.12509000000E+03 0.  0.
         25    1    3    3    0    0  0.21577157513E+02  0.12587603758E+02 -0.16748124098E+03  0.21052671012E+03  0.12509000000E+03 0.  0.
         25    1    3    3    0    0 -0.77401991551E+02  0.47995800419E+02 -0.36363657052E+03  0.39518821930E+03  0.12509000000E+03 0.  0.
<mgrwt>
<rscale>  2 0.46178247E+03</rscale>
<asrwt>0</asrwt>
<pdfrwt beam="1">  1       21 0.10860809E-01 0.46178247E+03</pdfrwt>
<pdfrwt beam="2">  1       21 0.10615364E+00 0.46178247E+03</pdfrwt>
<totfact> 0.45502744E+04</totfact>
</mgrwt>
</event>
<event>
 6    0  0.1576925E-007  0.4548076E+03  0.7546771E-02  0.1026298E+00
         21   -1    0    0  502  501  0.00000000000E+00  0.00000000000E+00  0.17549207480E+03  0.17549207480E+03  0.00000000000E+00 0.  1.
         21   -1    0    0  501  502 -0.00000000000E+00 -0.00000000000E+00 -0.29467141685E+03  0.29467141685E+03  0.00000000000E+00 0.  1.
      99926    2    1    2    0    0  0.79936057773E-14  0.17763568394E-14 -0.11917934205E+03  0.47016349165E+03  0.45480764429E+03 0.  0.
         25    1    3    3    0    0  0.66796827922E+02 -0.20582961969E+02 -0.75113586297E+02  0.16178700037E+03  0.12509000000E+03 0.  0.
         25    1    3    3    0    0 -0.68290191065E+02  0.79463137746E+01  0.50114280960E+02  0.15128001638E+03  0.12509000000E+03 0.  0.
         25    1    3    3    0    0  0.14933631429E+01  0.12636648194E+02 -0.94180036710E+02  0.15709647490E+03  0.12509000000E+03 0.  0.
<mgrwt>
<rscale>  2 0.45480764E+03</rscale>
<asrwt>0</asrwt>
<pdfrwt beam="1">  1       21 0.25807658E-01 0.45480764E+03</pdfrwt>
<pdfrwt beam="2">  1       21 0.43334032E-01 0.45480764E+03</pdfrwt>
<totfact> 0.67526538E+04</totfact>
</mgrwt>
</event>
<event>
 6    0  0.1576925E-007  0.4736457E+03  0.7546771E-02  0.1020896E+00
         21   -1    0    0  502  501  0.00000000000E+00  0.00000000000E+00  0.43845014287E+03  0.43845014287E+03  0.00000000000E+00 0.  1.
         21   -1    0    0  501  502 -0.00000000000E+00 -0.00000000000E+00 -0.12791659802E+03  0.12791659802E+03  0.00000000000E+00 0.  1.
      99926    2    1    2    0    0  0.00000000000E+00 -0.71054273576E-14  0.31053354485E+03  0.56636674089E+03  0.47364565099E+03 0.  0.
         25    1    3    3    0    0 -0.66990913884E+02  0.67113654388E+02  0.12545642964E+03  0.20094489042E+03  0.12509000000E+03 0.  0.
         25    1    3    3    0    0 -0.72418492974E+01 -0.10182276721E+03  0.12531300920E+03  0.20437998600E+03  0.12509000000E+03 0.  0.
         25    1    3    3    0    0  0.74232763181E+02  0.34709112819E+02  0.59764106013E+02  0.16104186446E+03  0.12509000000E+03 0.  0.
<mgrwt>
<rscale>  2 0.47364565E+03</rscale>
<asrwt>0</asrwt>
<pdfrwt beam="1">  1       21 0.64477962E-01 0.47364565E+03</pdfrwt>
<pdfrwt beam="2">  1       21 0.18811265E-01 0.47364565E+03</pdfrwt>
<totfact> 0.52600494E+04</totfact>
</mgrwt>
</event>
<event>
 6    0  0.1576925E-007  0.4535880E+03  0.7546771E-02  0.1026657E+00
         21   -1    0    0  502  501  0.00000000000E+00  0.00000000000E+00  0.10763099497E+03  0.10763099497E+03  0.00000000000E+00 0. -1.
         21   -1    0    0  501  502 -0.00000000000E+00 -0.00000000000E+00 -0.47788756358E+03  0.47788756358E+03  0.00000000000E+00 0. -1.
      99926    2    1    2    0    0 -0.14210854715E-13 -0.14210854715E-13 -0.37025656860E+03  0.58551855855E+03  0.45358798024E+03 0.  0.
         25    1    3    3    0    0 -0.36891410029E+02  0.39269012171E+02 -0.17553360156E+03  0.22217692236E+03  0.12509000000E+03 0.  0.
         25    1    3    3    0    0 -0.38985476355E+02 -0.78948073491E+02 -0.76092215408E+02  0.17085139455E+03  0.12509000000E+03 0.  0.
         25    1    3    3    0    0  0.75876886385E+02  0.39679061320E+02 -0.11863075163E+03  0.19249024164E+03  0.12509000000E+03 0.  0.
<mgrwt>
<rscale>  2 0.45358798E+03</rscale>
<asrwt>0</asrwt>
<pdfrwt beam="1">  1       21 0.15828088E-01 0.45358798E+03</pdfrwt>
<pdfrwt beam="2">  1       21 0.70277582E-01 0.45358798E+03</pdfrwt>
<totfact> 0.60248245E+04</totfact>
</mgrwt>
</event>
<event>
 6    0  0.1576925E-007  0.4512959E+03  0.7546771E-02  0.1027336E+00
         21   -1    0    0  502  501  0.00000000000E+00  0.00000000000E+00  0.30834620290E+02  0.30834620290E+02  0.00000000000E+00 0.  1.
         21   -1    0    0  501  502 -0.00000000000E+00 -0.00000000000E+00 -0.16512929916E+04  0.16512929916E+04  0.00000000000E+00 0.  1.
      99926    2    1    2    0    0  0.00000000000E+00  0.13322676296E-13 -0.16204583713E+04  0.16821276119E+04  0.45129587804E+03 0.  0.
         25    1    3    3    0    0  0.58789977564E+01  0.78652449334E+01 -0.29452165647E+03  0.32013581324E+03  0.12509000000E+03 0.  0.
         25    1    3    3    0    0  0.65494873448E+01  0.72924407753E+02 -0.87547825006E+03  0.88739536818E+03  0.12509000000E+03 0.  0.
         25    1    3    3    0    0 -0.12428485101E+02 -0.80789652687E+02 -0.45045846481E+03  0.47459643050E+03  0.12509000000E+03 0.  0.
<mgrwt>
<rscale>  2 0.45129588E+03</rscale>
<asrwt>0</asrwt>
<pdfrwt beam="1">  1       21 0.45345030E-02 0.45129588E+03</pdfrwt>
<pdfrwt beam="2">  1       21 0.24283720E+00 0.45129588E+03</pdfrwt>
<totfact> 0.20211069E+04</totfact>
</mgrwt>
</event>
<event>
 6    0  0.1576925E-007  0.4512391E+03  0.7546771E-02  0.1027353E+00
         21   -1    0    0  502  501  0.00000000000E+00  0.00000000000E+00  0.52849660336E+02  0.52849660336E+02  0.00000000000E+00 0. -1.
         21   -1    0    0  501  502 -0.00000000000E+00 -0.00000000000E+00 -0.96318858060E+03  0.96318858060E+03  0.00000000000E+00 0. -1.
      99926    2    1    2    0    0  0.44408920985E-15  0.00000000000E+00 -0.91033892026E+03  0.10160382409E+04  0.45123913538E+03 0.  0.
         25    1    3    3    0    0  0.22546294974E+01 -0.51755476423E+02 -0.17908604738E+03  0.22450619849E+03  0.12509000000E+03 0.  0.
         25    1    3    3    0    0  0.29399917803E+01  0.99000956829E+02 -0.29720710851E+03  0.33732685404E+03  0.12509000000E+03 0.  0.
         25    1    3    3    0    0 -0.51946212778E+01 -0.47245480406E+02 -0.43404576436E+03  0.45420518840E+03  0.12509000000E+03 0.  0.
<mgrwt>
<rscale>  2 0.45123914E+03</rscale>
<asrwt>0</asrwt>
<pdfrwt beam="1">  1       21 0.77720089E-02 0.45123914E+03</pdfrwt>
<pdfrwt beam="2">  1       21 0.14164538E+00 0.45123914E+03</pdfrwt>
<totfact> 0.39701808E+04</totfact>
</mgrwt>
</event>
<event>
 6    0  0.1576925E-007  0.4783895E+03  0.7546771E-02  0.1019579E+00
         21   -1    0    0  502  501  0.00000000000E+00  0.00000000000E+00  0.57256857337E+03  0.57256857337E+03  0.00000000000E+00 0.  1.
         21   -1    0    0  501  502 -0.00000000000E+00 -0.00000000000E+00 -0.99925385443E+02  0.99925385443E+02  0.00000000000E+00 0.  1.
      99926    2    1    2    0    0  0.10658141036E-13  0.00000000000E+00  0.47264318793E+03  0.67249395882E+03  0.47838952910E+03 0.  0.
         25    1    3    3    0    0  0.43896731619E+02 -0.13556908152E+02  0.32152383737E+03  0.34804568508E+03  0.12509000000E+03 0.  0.
         25    1    3    3    0    0 -0.74511375030E+02 -0.15755549951E+02  0.39917292658E+02  0.15179288757E+03  0.12509000000E+03 0.  0.
         25    1    3    3    0    0  0.30614643411E+02  0.29312458103E+02  0.11120205790E+03  0.17265538617E+03  0.12509000000E+03 0.  0.
<mgrwt>
<rscale>  2 0.47838953E+03</rscale>
<asrwt>0</asrwt>
<pdfrwt beam="1">  1       21 0.84201259E-01 0.47838953E+03</pdfrwt>
<pdfrwt beam="2">  1       21 0.14694910E-01 0.47838953E+03</pdfrwt>
<totfact> 0.45444158E+04</totfact>
</mgrwt>
</event>
<event>
 6    0  0.1576925E-007  0.4762047E+03  0.7546771E-02  0.1020183E+00
         21   -1    0    0  502  501  0.00000000000E+00  0.00000000000E+00  0.11943229692E+03  0.11943229692E+03  0.00000000000E+00 0.  1.
         21   -1    0    0  501  502 -0.00000000000E+00 -0.00000000000E+00 -0.47468516810E+03  0.47468516810E+03  0.00000000000E+00 0.  1.
      99926    2    1    2    0    0 -0.71054273576E-14  0.00000000000E+00 -0.35525287118E+03  0.59411746502E+03  0.47620474563E+03 0.  0.
         25    1    3    3    0    0  0.79745322301E+02  0.42558001893E+02 -0.39827062447E+02  0.15938695981E+03  0.12509000000E+03 0.  0.
         25    1    3    3    0    0 -0.59329026075E+02 -0.83064320451E+02 -0.13445701406E+03  0.21010904644E+03  0.12509000000E+03 0.  0.
         25    1    3    3    0    0 -0.20416296226E+02  0.40506318557E+02 -0.18096879467E+03  0.22462145877E+03  0.12509000000E+03 0.  0.
<mgrwt>
<rscale>  2 0.47620475E+03</rscale>
<asrwt>0</asrwt>
<pdfrwt beam="1">  1       21 0.17563573E-01 0.47620475E+03</pdfrwt>
<pdfrwt beam="2">  1       21 0.69806642E-01 0.47620475E+03</pdfrwt>
<totfact> 0.50102266E+04</totfact>
</mgrwt>
</event>
<event>
 6    0  0.1576925E-007  0.4566301E+03  0.7546771E-02  0.1025763E+00
         21   -1    0    0  502  501  0.00000000000E+00  0.00000000000E+00  0.59982886193E+03  0.59982886193E+03  0.00000000000E+00 0.  1.
         21   -1    0    0  501  502 -0.00000000000E+00 -0.00000000000E+00 -0.86904383582E+02  0.86904383582E+02  0.00000000000E+00 0.  1.
      99926    2    1    2    0    0  0.00000000000E+00  0.00000000000E+00  0.51292447835E+03  0.68673324552E+03  0.45663008005E+03 0.  0.
         25    1    3    3    0    0 -0.17971905222E+02 -0.37536167309E+02  0.13683282485E+03  0.19000706116E+03  0.12509000000E+03 0.  0.
         25    1    3    3    0    0 -0.32642148623E+02 -0.73081509534E+02  0.19679615512E+03  0.24654137923E+03  0.12509000000E+03 0.  0.
         25    1    3    3    0    0  0.50614053845E+02  0.11061767684E+03  0.17929549837E+03  0.25018480512E+03  0.12509000000E+03 0.  0.
<mgrwt>
<rscale>  2 0.45663008E+03</rscale>
<asrwt>0</asrwt>
<pdfrwt beam="1">  1       21 0.88210125E-01 0.45663008E+03</pdfrwt>
<pdfrwt beam="2">  1       21 0.12780057E-01 0.45663008E+03</pdfrwt>
<totfact> 0.52946620E+04</totfact>
</mgrwt>
</event>
<event>
 6    0  0.1576925E-007  0.4556664E+03  0.7546771E-02  0.1026046E+00
         21   -1    0    0  502  501  0.00000000000E+00  0.00000000000E+00  0.57134121573E+03  0.57134121573E+03  0.00000000000E+00 0.  1.
         21   -1    0    0  501  502 -0.00000000000E+00 -0.00000000000E+00 -0.90852819420E+02  0.90852819420E+02  0.00000000000E+00 0.  1.
      99926    2    1    2    0    0 -0.35527136788E-14  0.00000000000E+00  0.48048839631E+03  0.66219403514E+03  0.45566637049E+03 0.  0.
         25    1    3    3    0    0 -0.20337686767E+02  0.91365306979E+02  0.14187633677E+03  0.21103943674E+03  0.12509000000E+03 0.  0.
         25    1    3    3    0    0  0.35591381345E+02 -0.67936138240E+02  0.91900895684E+02  0.17313390203E+03  0.12509000000E+03 0.  0.
         25    1    3    3    0    0 -0.15253694578E+02 -0.23429168739E+02  0.24671116385E+03  0.27802069638E+03  0.12509000000E+03 0.  0.
<mgrwt>
<rscale>  2 0.45566637E+03</rscale>
<asrwt>0</asrwt>
<pdfrwt beam="1">  1       21 0.84020766E-01 0.45566637E+03</pdfrwt>
<pdfrwt beam="2">  1       21 0.13360709E-01 0.45566637E+03</pdfrwt>
<totfact> 0.54715681E+04</totfact>
</mgrwt>
</event>
<event>
 6    0  0.1576925E-007  0.4423471E+03  0.7546771E-02  0.1030029E+00
         21   -1    0    0  502  501  0.00000000000E+00  0.00000000000E+00  0.65753907267E+02  0.65753907267E+02  0.00000000000E+00 0.  1.
         21   -1    0    0  501  502 -0.00000000000E+00 -0.00000000000E+00 -0.74395173703E+03  0.74395173703E+03  0.00000000000E+00 0.  1.
      99926    2    1    2    0    0  0.17763568394E-14  0.00000000000E+00 -0.67819782976E+03  0.80970564430E+03  0.44234707426E+03 0.  0.
         25    1    3    3    0    0 -0.77915032321E+02  0.12069941628E+02 -0.20826851551E+03  0.25542066950E+03  0.12509000000E+03 0.  0.
         25    1    3    3    0    0  0.12948512999E+02 -0.63996346841E+02 -0.19087473837E+03  0.23736863787E+03  0.12509000000E+03 0.  0.
         25    1    3    3    0    0  0.64966519322E+02  0.51926405214E+02 -0.27905457588E+03  0.31691633693E+03  0.12509000000E+03 0.  0.
<mgrwt>
<rscale>  2 0.44234707E+03</rscale>
<asrwt>0</asrwt>
<pdfrwt beam="1">  1       21 0.96696934E-02 0.44234707E+03</pdfrwt>
<pdfrwt beam="2">  1       21 0.10940465E+00 0.44234707E+03</pdfrwt>
<totfact> 0.52301893E+04</totfact>
</mgrwt>
</event>
<event>
 6    0  0.1576925E-007  0.4505442E+03  0.7546771E-02  0.1027560E+00
         21   -1    0    0  502  501  0.00000000000E+00  0.00000000000E+00  0.70295791589E+03  0.70295791589E+03  0.00000000000E+00 0. -1.
         21   -1    0    0  501  502 -0.00000000000E+00 -0.00000000000E+00 -0.72191404604E+02  0.72191404604E+02  0.00000000000E+00 0. -1.
      99926    2    1    2    0    0 -0.17763568394E-14  0.71054273576E-14  0.63076651129E+03  0.77514932049E+03  0.45054420128E+03 0.  0.
         25    1    3    3    0    0 -0.74642042617E+02  0.49780802302E+02  0.25154970111E+03  0.29491409433E+03  0.12509000000E+03 0.  0.
         25    1    3    3    0    0 -0.11362317168E+02 -0.63413022859E+02  0.20656467619E+03  0.24993356571E+03  0.12509000000E+03 0.  0.
         25    1    3    3    0    0  0.86004359785E+02  0.13632220557E+02  0.17265213398E+03  0.23030166046E+03  0.12509000000E+03 0.  0.
<mgrwt>
<rscale>  2 0.45054420E+03</rscale>
<asrwt>0</asrwt>
<pdfrwt beam="1">  1       21 0.10337616E+00 0.45054420E+03</pdfrwt>
<pdfrwt beam="2">  1       21 0.10616383E-01 0.45054420E+03</pdfrwt>
<totfact> 0.50741954E+04</totfact>
</mgrwt>
</event>
<event>
 6    0  0.1576925E-007  0.4711066E+03  0.7546771E-02  0.1021608E+00
         21   -1    0    0  502  501  0.00000000000E+00  0.00000000000E+00  0.43601677606E+03  0.43601677606E+03  0.00000000000E+00 0. -1.
         21   -1    0    0  501  502 -0.00000000000E+00 -0.00000000000E+00 -0.12725508802E+03  0.12725508802E+03  0.00000000000E+00 0. -1.
      99926    2    1    2    0    0  0.35527136788E-14  0.00000000000E+00  0.30876168804E+03  0.56327186408E+03  0.47110658333E+03 0.  0.
         25    1    3    3    0    0 -0.25850997762E+02  0.18093973013E+02  0.88255813802E+02  0.15630822984E+03  0.12509000000E+03 0.  0.
         25    1    3    3    0    0 -0.35843173060E+02 -0.61301301250E+02  0.21769161658E+03  0.26092092791E+03  0.12509000000E+03 0.  0.
         25    1    3    3    0    0  0.61694170822E+02  0.43207328238E+02  0.28142576518E+01  0.14604270633E+03  0.12509000000E+03 0.  0.
<mgrwt>
<rscale>  2 0.47110658E+03</rscale>
<asrwt>0</asrwt>
<pdfrwt beam="1">  1       21 0.64120114E-01 0.47110658E+03</pdfrwt>
<pdfrwt beam="2">  1       21 0.18713984E-01 0.47110658E+03</pdfrwt>
<totfact> 0.53808196E+04</totfact>
</mgrwt>
</event>
<event>
 6    0  0.1576925E-007  0.4638123E+03  0.7546771E-02  0.1023681E+00
         21   -1    0    0  502  501  0.00000000000E+00  0.00000000000E+00  0.41292811490E+02  0.41292811490E+02  0.00000000000E+00 0. -1.
         21   -1    0    0  501  502 -0.00000000000E+00 -0.00000000000E+00 -0.13024170821E+04  0.13024170821E+04  0.00000000000E+00 0. -1.
      99926    2    1    2    0    0 -0.71054273576E-14  0.35527136788E-14 -0.12611242706E+04  0.13437098936E+04  0.46381230277E+03 0.  0.
         25    1    3    3    0    0  0.86362212105E+02 -0.71254662499E+02 -0.35868574126E+03  0.39602856929E+03  0.12509000000E+03 0.  0.
         25    1    3    3    0    0 -0.17435773298E+02  0.14587209145E+02 -0.52477952840E+03  0.53996097488E+03  0.12509000000E+03 0.  0.
         25    1    3    3    0    0 -0.68926438807E+02  0.56667453354E+02 -0.37765900091E+03  0.40772034939E+03  0.12509000000E+03 0.  0.
<mgrwt>
<rscale>  2 0.46381230E+03</rscale>
<asrwt>0</asrwt>
<pdfrwt beam="1">  1       21 0.60724726E-02 0.46381230E+03</pdfrwt>
<pdfrwt beam="2">  1       21 0.19153191E+00 0.46381230E+03</pdfrwt>
<totfact> 0.26040874E+04</totfact>
</mgrwt>
</event>
<event>
 6    0  0.1576925E-007  0.4564933E+03  0.7546771E-02  0.1025803E+00
         21   -1    0    0  502  501  0.00000000000E+00  0.00000000000E+00  0.46464394226E+02  0.46464394226E+02  0.00000000000E+00 0.  1.
         21   -1    0    0  501  502 -0.00000000000E+00 -0.00000000000E+00 -0.11212139924E+04  0.11212139924E+04  0.00000000000E+00 0.  1.
      99926    2    1    2    0    0 -0.35527136788E-14  0.00000000000E+00 -0.10747495982E+04  0.11676783866E+04  0.45649328124E+03 0.  0.
         25    1    3    3    0    0 -0.28006060980E+02 -0.88067843974E+02 -0.35123980520E+03  0.38413173971E+03  0.12509000000E+03 0.  0.
         25    1    3    3    0    0 -0.13759188303E+01 -0.93087822401E+01 -0.43856877241E+03  0.45615635786E+03  0.12509000000E+03 0.  0.
         25    1    3    3    0    0  0.29381979810E+02  0.97376626214E+02 -0.28494102054E+03  0.32739028904E+03  0.12509000000E+03 0.  0.
<mgrwt>
<rscale>  2 0.45649328E+03</rscale>
<asrwt>0</asrwt>
<pdfrwt beam="1">  1       21 0.68329983E-02 0.45649328E+03</pdfrwt>
<pdfrwt beam="2">  1       21 0.16488443E+00 0.45649328E+03</pdfrwt>
<totfact> 0.32814077E+04</totfact>
</mgrwt>
</event>
<event>
 6    0  0.1576925E-007  0.4551850E+03  0.7546771E-02  0.1026187E+00
         21   -1    0    0  502  501  0.00000000000E+00  0.00000000000E+00  0.66541947706E+02  0.66541947706E+02  0.00000000000E+00 0. -1.
         21   -1    0    0  501  502 -0.00000000000E+00 -0.00000000000E+00 -0.77843152587E+03  0.77843152587E+03  0.00000000000E+00 0. -1.
      99926    2    1    2    0    0  0.00000000000E+00  0.00000000000E+00 -0.71188957816E+03  0.84497347357E+03  0.45518501683E+03 0.  0.
         25    1    3    3    0    0 -0.42651861143E+02  0.11214655530E+02 -0.21107259654E+03  0.24928718151E+03  0.12509000000E+03 0.  0.
         25    1    3    3    0    0 -0.78008031126E+02 -0.18494068589E+02 -0.23117614950E+03  0.27480393682E+03  0.12509000000E+03 0.  0.
         25    1    3    3    0    0  0.12065989227E+03  0.72794130595E+01 -0.26964083212E+03  0.32088235524E+03  0.12509000000E+03 0.  0.
<mgrwt>
<rscale>  2 0.45518502E+03</rscale>
<asrwt>0</asrwt>
<pdfrwt beam="1">  1       21 0.97855806E-02 0.45518502E+03</pdfrwt>
<pdfrwt beam="2">  1       21 0.11447522E+00 0.45518502E+03</pdfrwt>
<totfact> 0.45598854E+04</totfact>
</mgrwt>
</event>
<event>
 6    0  0.1576925E-007  0.4595129E+03  0.7546771E-02  0.1024923E+00
         21   -1    0    0  502  501  0.00000000000E+00  0.00000000000E+00  0.34918671168E+03  0.34918671168E+03  0.00000000000E+00 0.  1.
         21   -1    0    0  501  502 -0.00000000000E+00 -0.00000000000E+00 -0.15117422101E+03  0.15117422101E+03  0.00000000000E+00 0.  1.
      99926    2    1    2    0    0  0.00000000000E+00 -0.35527136788E-14  0.19801249067E+03  0.50036093269E+03  0.45951291222E+03 0.  0.
         25    1    3    3    0    0  0.35360090168E+02 -0.31031423515E+02  0.65166590917E+02  0.14868583622E+03  0.12509000000E+03 0.  0.
         25    1    3    3    0    0 -0.10392388569E+02  0.14961473535E+02  0.17544004865E+03  0.21623729142E+03  0.12509000000E+03 0.  0.
         25    1    3    3    0    0 -0.24967701599E+02  0.16069949979E+02 -0.42594148896E+02  0.13543780505E+03  0.12509000000E+03 0.  0.
<mgrwt>
<rscale>  2 0.45951291E+03</rscale>
<asrwt>0</asrwt>
<pdfrwt beam="1">  1       21 0.51350987E-01 0.45951291E+03</pdfrwt>
<pdfrwt beam="2">  1       21 0.22231503E-01 0.45951291E+03</pdfrwt>
<totfact> 0.62959391E+04</totfact>
</mgrwt>
</event>
<event>
 6    0  0.1576925E-007  0.4568548E+03  0.7546771E-02  0.1025697E+00
         21   -1    0    0  502  501  0.00000000000E+00  0.00000000000E+00  0.16192296634E+03  0.16192296634E+03  0.00000000000E+00 0.  1.
         21   -1    0    0  501  502 -0.00000000000E+00 -0.00000000000E+00 -0.32224636745E+03  0.32224636745E+03  0.00000000000E+00 0.  1.
      99926    2    1    2    0    0 -0.71054273576E-14 -0.71054273576E-14 -0.16032340111E+03  0.48416933379E+03  0.45685484657E+03 0.  0.
         25    1    3    3    0    0  0.70030852838E+02  0.99319825695E+02 -0.83879315065E+02  0.19352518110E+03  0.12509000000E+03 0.  0.
         25    1    3    3    0    0 -0.29844781566E+02 -0.58198692257E+02 -0.23277434758E+02  0.14306343291E+03  0.12509000000E+03 0.  0.
         25    1    3    3    0    0 -0.40186071272E+02 -0.41121133439E+02 -0.53166651288E+02  0.14758071977E+03  0.12509000000E+03 0.  0.
<mgrwt>
<rscale>  2 0.45685485E+03</rscale>
<asrwt>0</asrwt>
<pdfrwt beam="1">  1       21 0.23812201E-01 0.45685485E+03</pdfrwt>
<pdfrwt beam="2">  1       21 0.47389171E-01 0.45685485E+03</pdfrwt>
<totfact> 0.65429142E+04</totfact>
</mgrwt>
</event>
<event>
 6    0  0.1576925E-007  0.4728905E+03  0.7546771E-02  0.1021108E+00
         21   -1    0    0  502  501  0.00000000000E+00  0.00000000000E+00  0.12336964214E+04  0.12336964214E+04  0.00000000000E+00 0.  1.
         21   -1    0    0  501  502 -0.00000000000E+00 -0.00000000000E+00 -0.45316141354E+02  0.45316141354E+02  0.00000000000E+00 0.  1.
      99926    2    1    2    0    0  0.00000000000E+00 -0.71054273576E-14  0.11883802800E+04  0.12790125627E+04  0.47289052187E+03 0.  0.
         25    1    3    3    0    0  0.25526580014E+02  0.53867101992E+02  0.40346349492E+03  0.42659532440E+03  0.12509000000E+03 0.  0.
         25    1    3    3    0    0 -0.89314700093E+02 -0.97850082111E+02  0.49118765088E+03  0.52389366354E+03  0.12509000000E+03 0.  0.
         25    1    3    3    0    0  0.63788120080E+02  0.43982980119E+02  0.29372913423E+03  0.32852357480E+03  0.12509000000E+03 0.  0.
<mgrwt>
<rscale>  2 0.47289052E+03</rscale>
<asrwt>0</asrwt>
<pdfrwt beam="1">  1       21 0.18142592E+00 0.47289052E+03</pdfrwt>
<pdfrwt beam="2">  1       21 0.66641392E-02 0.47289052E+03</pdfrwt>
<totfact> 0.25927872E+04</totfact>
</mgrwt>
</event>
<event>
 6    0  0.1576925E-007  0.4555608E+03  0.7546771E-02  0.1026077E+00
         21   -1    0    0  502  501  0.00000000000E+00  0.00000000000E+00  0.35531859161E+03  0.35531859161E+03  0.00000000000E+00 0. -1.
         21   -1    0    0  501  502 -0.00000000000E+00 -0.00000000000E+00 -0.14602080684E+03  0.14602080684E+03  0.00000000000E+00 0. -1.
      99926    2    1    2    0    0  0.17763568394E-14 -0.53290705182E-14  0.20929778477E+03  0.50133939844E+03  0.45556078598E+03 0.  0.
         25    1    3    3    0    0 -0.33584727750E+02 -0.60199536072E+02 -0.22092435812E+02  0.14452509091E+03  0.12509000000E+03 0.  0.
         25    1    3    3    0    0  0.22092299763E+02  0.44486924252E+02  0.70028424945E+02  0.15171896565E+03  0.12509000000E+03 0.  0.
         25    1    3    3    0    0  0.11492427987E+02  0.15712611819E+02  0.16136179564E+03  0.20509534188E+03  0.12509000000E+03 0.  0.
<mgrwt>
<rscale>  2 0.45556079E+03</rscale>
<asrwt>0</asrwt>
<pdfrwt beam="1">  1       21 0.52252734E-01 0.45556079E+03</pdfrwt>
<pdfrwt beam="2">  1       21 0.21473648E-01 0.45556079E+03</pdfrwt>
<totfact> 0.64887342E+04</totfact>
</mgrwt>
</event>
<event>
 6    0  0.1576925E-007  0.4595105E+03  0.7546771E-02  0.1024923E+00
         21   -1    0    0  502  501  0.00000000000E+00  0.00000000000E+00  0.74679783280E+02  0.74679783280E+02  0.00000000000E+00 0. -1.
         21   -1    0    0  501  502 -0.00000000000E+00 -0.00000000000E+00 -0.70685085175E+03  0.70685085175E+03  0.00000000000E+00 0. -1.
      99926    2    1    2    0    0 -0.35527136788E-14 -0.17763568394E-14 -0.63217106847E+03  0.78153063503E+03  0.45951047178E+03 0.  0.
         25    1    3    3    0    0  0.21480304129E+02  0.86861139680E+02 -0.12128005526E+03  0.19586378163E+03  0.12509000000E+03 0.  0.
         25    1    3    3    0    0  0.81320820411E+01 -0.78921632005E+02 -0.19777406678E+03  0.24709683192E+03  0.12509000000E+03 0.  0.
         25    1    3    3    0    0 -0.29612386171E+02 -0.79395076746E+01 -0.31311694643E+03  0.33857002147E+03  0.12509000000E+03 0.  0.
<mgrwt>
<rscale>  2 0.45951047E+03</rscale>
<asrwt>0</asrwt>
<pdfrwt beam="1">  1       21 0.10982321E-01 0.45951047E+03</pdfrwt>
<pdfrwt beam="2">  1       21 0.10394866E+00 0.45951047E+03</pdfrwt>
<totfact> 0.46985529E+04</totfact>
</mgrwt>
</event>
<event>
 6    0  0.1576925E-007  0.4542050E+03  0.7546771E-02  0.1026475E+00
         21   -1    0    0  502  501  0.00000000000E+00  0.00000000000E+00  0.13389973181E+04  0.13389973181E+04  0.00000000000E+00 0.  1.
         21   -1    0    0  501  502 -0.00000000000E+00 -0.00000000000E+00 -0.38518038870E+02  0.38518038870E+02  0.00000000000E+00 0.  1.
      99926    2    1    2    0    0  0.17763568394E-14  0.00000000000E+00  0.13004792792E+04  0.13775153569E+04  0.45420502306E+03 0.  0.
         25    1    3    3    0    0  0.13732408190E+02  0.85761777641E+01  0.41205534500E+03  0.43092835286E+03  0.12509000000E+03 0.  0.
         25    1    3    3    0    0 -0.14581083924E+01  0.46160935215E+02  0.17447542727E+03  0.21959540260E+03  0.12509000000E+03 0.  0.
         25    1    3    3    0    0 -0.12274299798E+02 -0.54737112980E+02  0.71394850692E+03  0.72699160147E+03  0.12509000000E+03 0.  0.
<mgrwt>
<rscale>  2 0.45420502E+03</rscale>
<asrwt>0</asrwt>
<pdfrwt beam="1">  1       21 0.19691134E+00 0.45420502E+03</pdfrwt>
<pdfrwt beam="2">  1       21 0.56644184E-02 0.45420502E+03</pdfrwt>
<totfact> 0.27104480E+04</totfact>
</mgrwt>
</event>
<event>
 6    0  0.1576925E-007  0.4460089E+03  0.7546771E-02  0.1028919E+00
         21   -1    0    0  502  501  0.00000000000E+00  0.00000000000E+00  0.17386612175E+03  0.17386612175E+03  0.00000000000E+00 0.  1.
         21   -1    0    0  501  502 -0.00000000000E+00 -0.00000000000E+00 -0.28603038526E+03  0.28603038526E+03  0.00000000000E+00 0.  1.
      99926    2    1    2    0    0  0.00000000000E+00 -0.35527136788E-14 -0.11216426351E+03  0.45989650701E+03  0.44600894066E+03 0.  0.
         25    1    3    3    0    0 -0.38184540388E+02  0.22742214120E+02 -0.98032061413E+02  0.16502442423E+03  0.12509000000E+03 0.  0.
         25    1    3    3    0    0  0.87425167839E+02 -0.29921058444E+02 -0.32858644493E+02  0.15895165406E+03  0.12509000000E+03 0.  0.
         25    1    3    3    0    0 -0.49240627452E+02  0.71788443241E+01  0.18726442394E+02  0.13592042872E+03  0.12509000000E+03 0.  0.
<mgrwt>
<rscale>  2 0.44600894E+03</rscale>
<asrwt>0</asrwt>
<pdfrwt beam="1">  1       21 0.25568548E-01 0.44600894E+03</pdfrwt>
<pdfrwt beam="2">  1       21 0.42063292E-01 0.44600894E+03</pdfrwt>
<totfact> 0.73283399E+04</totfact>
</mgrwt>
</event>
<event>
 6    0  0.1576925E-007  0.4571359E+03  0.7546771E-02  0.1025615E+00
         21   -1    0    0  502  501  0.00000000000E+00  0.00000000000E+00  0.42841573291E+03  0.42841573291E+03  0.00000000000E+00 0. -1.
         21   -1    0    0  501  502 -0.00000000000E+00 -0.00000000000E+00 -0.12194536374E+03  0.12194536374E+03  0.00000000000E+00 0. -1.
      99926    2    1    2    0    0 -0.71054273576E-14 -0.71054273576E-14  0.30647036916E+03  0.55036109665E+03  0.45713592020E+03 0.  0.
         25    1    3    3    0    0  0.43460168705E+02 -0.32820181770E+02  0.10417103867E+03  0.17165390759E+03  0.12509000000E+03 0.  0.
         25    1    3    3    0    0 -0.74007753938E+02  0.64148226746E+02  0.30560646183E+02  0.16178258198E+03  0.12509000000E+03 0.  0.
         25    1    3    3    0    0  0.30547585233E+02 -0.31328044976E+02  0.17173868431E+03  0.21692460708E+03  0.12509000000E+03 0.  0.
<mgrwt>
<rscale>  2 0.45713592E+03</rscale>
<asrwt>0</asrwt>
<pdfrwt beam="1">  1       21 0.63002313E-01 0.45713592E+03</pdfrwt>
<pdfrwt beam="2">  1       21 0.17933142E-01 0.45713592E+03</pdfrwt>
<totfact> 0.60808513E+04</totfact>
</mgrwt>
</event>
<event>
 6    0  0.1576925E-007  0.4563650E+03  0.7546771E-02  0.1025841E+00
         21   -1    0    0  502  501  0.00000000000E+00  0.00000000000E+00  0.25496340788E+03  0.25496340788E+03  0.00000000000E+00 0. -1.
         21   -1    0    0  501  502 -0.00000000000E+00 -0.00000000000E+00 -0.20421463811E+03  0.20421463811E+03  0.00000000000E+00 0. -1.
      99926    2    1    2    0    0 -0.14210854715E-13  0.00000000000E+00  0.50748769770E+02  0.45917804599E+03  0.45636502965E+03 0.  0.
         25    1    3    3    0    0 -0.72968426611E+02 -0.97851174137E+01 -0.20192063208E+02  0.14654476218E+03  0.12509000000E+03 0.  0.
         25    1    3    3    0    0 -0.21958969552E+02  0.40312177116E+02 -0.94830460480E+01  0.13358407177E+03  0.12509000000E+03 0.  0.
         25    1    3    3    0    0  0.94927396163E+02 -0.30527059702E+02  0.80423879026E+02  0.17904921205E+03  0.12509000000E+03 0.  0.
<mgrwt>
<rscale>  2 0.45636503E+03</rscale>
<asrwt>0</asrwt>
<pdfrwt beam="1">  1       21 0.37494619E-01 0.45636503E+03</pdfrwt>
<pdfrwt beam="2">  1       21 0.30031565E-01 0.45636503E+03</pdfrwt>
<totfact> 0.67502568E+04</totfact>
</mgrwt>
</event>
<event>
 6    0  0.1576925E-007  0.4358594E+03  0.7546771E-02  0.1032025E+00
         21   -1    0    0  502  501  0.00000000000E+00  0.00000000000E+00  0.38961167217E+03  0.38961167217E+03  0.00000000000E+00 0. -1.
         21   -1    0    0  501  502 -0.00000000000E+00 -0.00000000000E+00 -0.12189921075E+03  0.12189921075E+03  0.00000000000E+00 0. -1.
      99926    2    1    2    0    0  0.00000000000E+00  0.00000000000E+00  0.26771246142E+03  0.51151088292E+03  0.43585940549E+03 0.  0.
         25    1    3    3    0    0  0.54972270540E+02  0.53993643902E+02  0.11620167349E+03  0.18731684690E+03  0.12509000000E+03 0.  0.
         25    1    3    3    0    0 -0.21720013681E+02  0.26212056941E+02  0.40720906625E+02  0.13588425685E+03  0.12509000000E+03 0.  0.
         25    1    3    3    0    0 -0.33252256860E+02 -0.80205700843E+02  0.11078988131E+03  0.18830977918E+03  0.12509000000E+03 0.  0.
<mgrwt>
<rscale>  2 0.43585941E+03</rscale>
<asrwt>0</asrwt>
<pdfrwt beam="1">  1       21 0.57295834E-01 0.43585941E+03</pdfrwt>
<pdfrwt beam="2">  1       21 0.17926355E-01 0.43585941E+03</pdfrwt>
<totfact> 0.75259509E+04</totfact>
</mgrwt>
</event>
<event>
 6    0  0.1576925E-007  0.4520406E+03  0.7546771E-02  0.1027115E+00
         21   -1    0    0  502  501  0.00000000000E+00  0.00000000000E+00  0.27382468267E+03  0.27382468267E+03  0.00000000000E+00 0. -1.
         21   -1    0    0  501  502 -0.00000000000E+00 -0.00000000000E+00 -0.18656159440E+03  0.18656159440E+03  0.00000000000E+00 0. -1.
      99926    2    1    2    0    0  0.71054273576E-14 -0.44408920985E-15  0.87263088275E+02  0.46038627707E+03  0.45204057068E+03 0.  0.
         25    1    3    3    0    0  0.27803421117E+02  0.59865906552E+01  0.11216717314E+03  0.17040496567E+03  0.12509000000E+03 0.  0.
         25    1    3    3    0    0  0.56426378871E+02  0.30228435692E+01 -0.20990366780E+02  0.13885667940E+03  0.12509000000E+03 0.  0.
         25    1    3    3    0    0 -0.84229799988E+02 -0.90094342244E+01 -0.39137180834E+01  0.15112463201E+03  0.12509000000E+03 0.  0.
<mgrwt>
<rscale>  2 0.45204057E+03</rscale>
<asrwt>0</asrwt>
<pdfrwt beam="1">  1       21 0.40268336E-01 0.45204057E+03</pdfrwt>
<pdfrwt beam="2">  1       21 0.27435528E-01 0.45204057E+03</pdfrwt>
<totfact> 0.69781286E+04</totfact>
</mgrwt>
</event>
<event>
 6    0  0.1576925E-007  0.4563042E+03  0.7546771E-02  0.1025859E+00
         21   -1    0    0  502  501  0.00000000000E+00  0.00000000000E+00  0.22938605100E+03  0.22938605100E+03  0.00000000000E+00 0. -1.
         21   -1    0    0  501  502 -0.00000000000E+00 -0.00000000000E+00 -0.22692476572E+03  0.22692476572E+03  0.00000000000E+00 0. -1.
      99926    2    1    2    0    0  0.35527136788E-14  0.00000000000E+00  0.24612852779E+01  0.45631081672E+03  0.45630417873E+03 0.  0.
         25    1    3    3    0    0  0.35835130764E+02  0.44621520896E+01 -0.74767559396E+02  0.15013914691E+03  0.12509000000E+03 0.  0.
         25    1    3    3    0    0 -0.10274425218E+02  0.43240305321E+02 -0.25903524941E+02  0.13525453235E+03  0.12509000000E+03 0.  0.
         25    1    3    3    0    0 -0.25560705546E+02 -0.47702457411E+02  0.10313236961E+03  0.17091713745E+03  0.12509000000E+03 0.  0.
<mgrwt>
<rscale>  2 0.45630418E+03</rscale>
<asrwt>0</asrwt>
<pdfrwt beam="1">  1       21 0.33733243E-01 0.45630418E+03</pdfrwt>
<pdfrwt beam="2">  1       21 0.33371289E-01 0.45630418E+03</pdfrwt>
<totfact> 0.67742193E+04</totfact>
</mgrwt>
</event>
<event>
 6    0  0.1576925E-007  0.4536809E+03  0.7546771E-02  0.1026630E+00
         21   -1    0    0  502  501  0.00000000000E+00  0.00000000000E+00  0.27694622888E+03  0.27694622888E+03  0.00000000000E+00 0. -1.
         21   -1    0    0  501  502 -0.00000000000E+00 -0.00000000000E+00 -0.18579989989E+03  0.18579989989E+03  0.00000000000E+00 0. -1.
      99926    2    1    2    0    0 -0.71054273576E-14  0.00000000000E+00  0.91146328998E+02  0.46274612877E+03  0.45368086405E+03 0.  0.
         25    1    3    3    0    0 -0.51805051340E+02 -0.67629709791E+02  0.35185536071E+01  0.15138503661E+03  0.12509000000E+03 0.  0.
         25    1    3    3    0    0  0.85678187604E+02  0.18665545933E+01  0.27581232222E+02  0.15411835818E+03  0.12509000000E+03 0.  0.
         25    1    3    3    0    0 -0.33873136265E+02  0.65763155197E+02  0.60046543169E+02  0.15724273398E+03  0.12509000000E+03 0.  0.
<mgrwt>
<rscale>  2 0.45368086E+03</rscale>
<asrwt>0</asrwt>
<pdfrwt beam="1">  1       21 0.40727387E-01 0.45368086E+03</pdfrwt>
<pdfrwt beam="2">  1       21 0.27323515E-01 0.45368086E+03</pdfrwt>
<totfact> 0.68695403E+04</totfact>
</mgrwt>
</event>
<event>
 6    0  0.1576925E-007  0.4473625E+03  0.7546771E-02  0.1028512E+00
         21   -1    0    0  502  501  0.00000000000E+00  0.00000000000E+00  0.76915732730E+03  0.76915732730E+03  0.00000000000E+00 0. -1.
         21   -1    0    0  501  502 -0.00000000000E+00 -0.00000000000E+00 -0.65049498130E+02  0.65049498130E+02  0.00000000000E+00 0. -1.
      99926    2    1    2    0    0  0.71054273576E-14  0.00000000000E+00  0.70410782917E+03  0.83420682543E+03  0.44736248445E+03 0.  0.
         25    1    3    3    0    0 -0.42995479138E+02  0.75111081959E+02  0.31729645128E+03  0.35187331805E+03  0.12509000000E+03 0.  0.
         25    1    3    3    0    0  0.60563828668E+02 -0.13970406722E+02  0.24982517831E+03  0.28622242649E+03  0.12509000000E+03 0.  0.
         25    1    3    3    0    0 -0.17568349529E+02 -0.61140675237E+02  0.13698619957E+03  0.19611108089E+03  0.12509000000E+03 0.  0.
<mgrwt>
<rscale>  2 0.44736248E+03</rscale>
<asrwt>0</asrwt>
<pdfrwt beam="1">  1       21 0.11311137E+00 0.44736248E+03</pdfrwt>
<pdfrwt beam="2">  1       21 0.95661031E-02 0.44736248E+03</pdfrwt>
<totfact> 0.49026745E+04</totfact>
</mgrwt>
</event>
<event>
 6    0  0.1576925E-007  0.4513740E+03  0.7546771E-02  0.1027313E+00
         21   -1    0    0  502  501  0.00000000000E+00  0.00000000000E+00  0.42012917327E+02  0.42012917327E+02  0.00000000000E+00 0. -1.
         21   -1    0    0  501  502 -0.00000000000E+00 -0.00000000000E+00 -0.12123563979E+04  0.12123563979E+04  0.00000000000E+00 0. -1.
      99926    2    1    2    0    0  0.00000000000E+00  0.00000000000E+00 -0.11703434805E+04  0.12543693152E+04  0.45137403166E+03 0.  0.
         25    1    3    3    0    0  0.46608695008E+02 -0.21728188299E+02 -0.30212393222E+03  0.33101489866E+03  0.12509000000E+03 0.  0.
         25    1    3    3    0    0  0.55329216436E+02  0.10213489184E+02 -0.25967612481E+03  0.29367471026E+03  0.12509000000E+03 0.  0.
         25    1    3    3    0    0 -0.10193791144E+03  0.11514699115E+02 -0.60854342351E+03  0.62967970626E+03  0.12509000000E+03 0.  0.
<mgrwt>
<rscale>  2 0.45137403E+03</rscale>
<asrwt>0</asrwt>
<pdfrwt beam="1">  1       21 0.61783698E-02 0.45137403E+03</pdfrwt>
<pdfrwt beam="2">  1       21 0.17828772E+00 0.45137403E+03</pdfrwt>
<totfact> 0.31344604E+04</totfact>
</mgrwt>
</event>
<event>
 6    0  0.1576925E-007  0.4616630E+03  0.7546771E-02  0.1024300E+00
         21   -1    0    0  502  501  0.00000000000E+00  0.00000000000E+00  0.20994688293E+03  0.20994688293E+03  0.00000000000E+00 0. -1.
         21   -1    0    0  501  502 -0.00000000000E+00 -0.00000000000E+00 -0.25379362380E+03  0.25379362380E+03  0.00000000000E+00 0. -1.
      99926    2    1    2    0    0  0.00000000000E+00 -0.71054273576E-14 -0.43846740873E+02  0.46374050673E+03  0.46166299494E+03 0.  0.
         25    1    3    3    0    0  0.35726056983E+02  0.52350950188E+02  0.66914449486E+02  0.15537704072E+03  0.12509000000E+03 0.  0.
         25    1    3    3    0    0  0.41026013356E+02 -0.36706131634E+02 -0.29259983361E+02  0.13976454700E+03  0.12509000000E+03 0.  0.
         25    1    3    3    0    0 -0.76752070339E+02 -0.15644818555E+02 -0.81501206999E+02  0.16859891901E+03  0.12509000000E+03 0.  0.
<mgrwt>
<rscale>  2 0.46166299E+03</rscale>
<asrwt>0</asrwt>
<pdfrwt beam="1">  1       21 0.30874542E-01 0.46166299E+03</pdfrwt>
<pdfrwt beam="2">  1       21 0.37322592E-01 0.46166299E+03</pdfrwt>
<totfact> 0.64416947E+04</totfact>
</mgrwt>
</event>
<event>
 6    0  0.1576925E-007  0.4620058E+03  0.7546771E-02  0.1024201E+00
         21   -1    0    0  502  501  0.00000000000E+00  0.00000000000E+00  0.18454115110E+03  0.18454115110E+03  0.00000000000E+00 0.  1.
         21   -1    0    0  501  502 -0.00000000000E+00 -0.00000000000E+00 -0.28916231348E+03  0.28916231348E+03  0.00000000000E+00 0.  1.
      99926    2    1    2    0    0 -0.71054273576E-14  0.00000000000E+00 -0.10462116238E+03  0.47370346458E+03  0.46200582760E+03 0.  0.
         25    1    3    3    0    0 -0.52475180681E+02 -0.75723821360E+02  0.11600280498E+02  0.15578772839E+03  0.12509000000E+03 0.  0.
         25    1    3    3    0    0  0.75283008945E+02  0.75234105773E+02 -0.92729421718E+02  0.18861059318E+03  0.12509000000E+03 0.  0.
         25    1    3    3    0    0 -0.22807828264E+02  0.48971558729E+00 -0.23492021160E+02  0.12930514301E+03  0.12509000000E+03 0.  0.
<mgrwt>
<rscale>  2 0.46200583E+03</rscale>
<asrwt>0</asrwt>
<pdfrwt beam="1">  1       21 0.27138405E-01 0.46200583E+03</pdfrwt>
<pdfrwt beam="2">  1       21 0.42523869E-01 0.46200583E+03</pdfrwt>
<totfact> 0.63555261E+04</totfact>
</mgrwt>
</event>
<event>
 6    0  0.1576925E-007  0.4490341E+03  0.7546771E-02  0.1028010E+00
         21   -1    0    0  502  501  0.00000000000E+00  0.00000000000E+00  0.15691124266E+03  0.15691124266E+03  0.00000000000E+00 0.  1.
         21   -1    0    0  501  502 -0.00000000000E+00 -0.00000000000E+00 -0.32125109876E+03  0.32125109876E+03  0.00000000000E+00 0.  1.
      99926    2    1    2    0    0  0.71054273576E-14  0.71054273576E-14 -0.16433985610E+03  0.47816234142E+03  0.44903411502E+03 0.  0.
         25    1    3    3    0    0  0.20056236900E+01  0.10258645480E+03 -0.67928864982E+02  0.17547034517E+03  0.12509000000E+03 0.  0.
         25    1    3    3    0    0 -0.45749800458E+02 -0.33568674303E+02 -0.51148726209E+02  0.14657285025E+03  0.12509000000E+03 0.  0.
         25    1    3    3    0    0  0.43744176768E+02 -0.69017780497E+02 -0.45262264912E+02  0.15611914601E+03  0.12509000000E+03 0.  0.
<mgrwt>
<rscale>  2 0.44903412E+03</rscale>
<asrwt>0</asrwt>
<pdfrwt beam="1">  1       21 0.23075183E-01 0.44903412E+03</pdfrwt>
<pdfrwt beam="2">  1       21 0.47242808E-01 0.44903412E+03</pdfrwt>
<totfact> 0.70095182E+04</totfact>
</mgrwt>
</event>
<event>
 6    0  0.1576925E-007  0.4574262E+03  0.7546771E-02  0.1025530E+00
         21   -1    0    0  502  501  0.00000000000E+00  0.00000000000E+00  0.34800742462E+03  0.34800742462E+03  0.00000000000E+00 0.  1.
         21   -1    0    0  501  502 -0.00000000000E+00 -0.00000000000E+00 -0.15031194692E+03  0.15031194692E+03  0.00000000000E+00 0.  1.
      99926    2    1    2    0    0  0.71054273576E-14 -0.39968028887E-14  0.19769547770E+03  0.49831937153E+03  0.45742616250E+03 0.  0.
         25    1    3    3    0    0  0.54785887098E+02  0.59221898731E+00  0.76613109577E+02  0.15658518706E+03  0.12509000000E+03 0.  0.
         25    1    3    3    0    0 -0.96513615457E+02 -0.34915065027E+02  0.36415578942E+01  0.16184779510E+03  0.12509000000E+03 0.  0.
         25    1    3    3    0    0  0.41727728359E+02  0.34322846039E+02  0.11744081023E+03  0.17988638937E+03  0.12509000000E+03 0.  0.
<mgrwt>
<rscale>  2 0.45742616E+03</rscale>
<asrwt>0</asrwt>
<pdfrwt beam="1">  1       21 0.51177562E-01 0.45742616E+03</pdfrwt>
<pdfrwt beam="2">  1       21 0.22104698E-01 0.45742616E+03</pdfrwt>
<totfact> 0.64144548E+04</totfact>
</mgrwt>
</event>
<event>
 6    0  0.1576925E-007  0.4833753E+03  0.7546771E-02  0.1018212E+00
         21   -1    0    0  502  501  0.00000000000E+00  0.00000000000E+00  0.92520122467E+02  0.92520122467E+02  0.00000000000E+00 0.  1.
         21   -1    0    0  501  502 -0.00000000000E+00 -0.00000000000E+00 -0.63135371064E+03  0.63135371064E+03  0.00000000000E+00 0.  1.
      99926    2    1    2    0    0  0.00000000000E+00  0.35527136788E-14 -0.53883358817E+03  0.72387383311E+03  0.48337531020E+03 0.  0.
         25    1    3    3    0    0  0.43538800936E+02 -0.29790576905E+02 -0.12043981636E+03  0.18148378199E+03  0.12509000000E+03 0.  0.
         25    1    3    3    0    0 -0.33936338694E+02  0.20658475273E+00 -0.38921660206E+03  0.41023016610E+03  0.12509000000E+03 0.  0.
         25    1    3    3    0    0 -0.96024622420E+01  0.29583992152E+02 -0.29177169750E+02  0.13215988502E+03  0.12509000000E+03 0.  0.
<mgrwt>
<rscale>  2 0.48337531E+03</rscale>
<asrwt>0</asrwt>
<pdfrwt beam="1">  1       21 0.13605900E-01 0.48337531E+03</pdfrwt>
<pdfrwt beam="2">  1       21 0.92846137E-01 0.48337531E+03</pdfrwt>
<totfact> 0.41544103E+04</totfact>
</mgrwt>
</event>
<event>
 6    0  0.1576925E-007  0.4633408E+03  0.7546771E-02  0.1023817E+00
         21   -1    0    0  502  501  0.00000000000E+00  0.00000000000E+00  0.17805389996E+04  0.17805389996E+04  0.00000000000E+00 0. -1.
         21   -1    0    0  501  502 -0.00000000000E+00 -0.00000000000E+00 -0.30143212597E+02  0.30143212597E+02  0.00000000000E+00 0. -1.
      99926    2    1    2    0    0  0.71054273576E-14  0.35527136788E-14  0.17503957870E+04  0.18106822122E+04  0.46334076274E+03 0.  0.
         25    1    3    3    0    0  0.81209758714E+01  0.83988477673E+02  0.41456671371E+03  0.44117239584E+03  0.12509000000E+03 0.  0.
         25    1    3    3    0    0 -0.39348353082E+02 -0.10487386174E+03  0.85028470348E+03  0.86670548910E+03  0.12509000000E+03 0.  0.
         25    1    3    3    0    0  0.31227377211E+02  0.20885384071E+02  0.48554436983E+03  0.50280432727E+03  0.12509000000E+03 0.  0.
<mgrwt>
<rscale>  2 0.46334076E+03</rscale>
<asrwt>0</asrwt>
<pdfrwt beam="1">  1       21 0.26184390E+00 0.46334076E+03</pdfrwt>
<pdfrwt beam="2">  1       21 0.44328266E-02 0.46334076E+03</pdfrwt>
<totfact> 0.15994104E+04</totfact>
</mgrwt>
</event>
<event>
 6    0  0.1576925E-007  0.4591985E+03  0.7546771E-02  0.1025014E+00
         21   -1    0    0  502  501  0.00000000000E+00  0.00000000000E+00  0.85813218651E+02  0.85813218651E+02  0.00000000000E+00 0. -1.
         21   -1    0    0  501  502 -0.00000000000E+00 -0.00000000000E+00 -0.61430885423E+03  0.61430885423E+03  0.00000000000E+00 0. -1.
      99926    2    1    2    0    0  0.71054273576E-14  0.22204460493E-15 -0.52849563558E+03  0.70012207288E+03  0.45919851928E+03 0.  0.
         25    1    3    3    0    0 -0.55928204402E+02  0.30370167796E+01 -0.32470695543E+03  0.35244758834E+03  0.12509000000E+03 0.  0.
         25    1    3    3    0    0 -0.30730678520E+02 -0.12468141723E+01 -0.10554507645E+03  0.16653288087E+03  0.12509000000E+03 0.  0.
         25    1    3    3    0    0  0.86658882923E+02 -0.17902026074E+01 -0.98243603699E+02  0.18114160368E+03  0.12509000000E+03 0.  0.
<mgrwt>
<rscale>  2 0.45919852E+03</rscale>
<asrwt>0</asrwt>
<pdfrwt beam="1">  1       21 0.12619591E-01 0.45919852E+03</pdfrwt>
<pdfrwt beam="2">  1       21 0.90339540E-01 0.45919852E+03</pdfrwt>
<totfact> 0.51184031E+04</totfact>
</mgrwt>
</event>
<event>
 6    0  0.1371476E-006  0.4702410E+03  0.7546771E-02  0.1021852E+00
         21   -1    0    0  502  501  0.00000000000E+00  0.00000000000E+00  0.25168317594E+03  0.25168317594E+03  0.00000000000E+00 0. -1.
         21   -1    0    0  501  502 -0.00000000000E+00 -0.00000000000E+00 -0.21964774495E+03  0.21964774495E+03  0.00000000000E+00 0.  1.
      99926    2    1    2    0    0  0.14210854715E-13  0.00000000000E+00  0.32035430990E+02  0.47133092089E+03  0.47024096817E+03 0.  0.
         25    1    3    3    0    0 -0.51256865909E+02 -0.54100289509E+02  0.35785592187E+02  0.14994073608E+03  0.12509000000E+03 0.  0.
         25    1    3    3    0    0  0.87910557913E+02  0.79420598804E+02 -0.52229073002E+02  0.18003133581E+03  0.12509000000E+03 0.  0.
         25    1    3    3    0    0 -0.36653692003E+02 -0.25320309295E+02  0.48478911805E+02  0.14135884900E+03  0.12509000000E+03 0.  0.
<mgrwt>
<rscale>  2 0.47024097E+03</rscale>
<asrwt>0</asrwt>
<pdfrwt beam="1">  1       21 0.37012232E-01 0.47024097E+03</pdfrwt>
<pdfrwt beam="2">  1       21 0.32301139E-01 0.47024097E+03</pdfrwt>
<totfact> 0.59761032E+04</totfact>
</mgrwt>
</event>
<event>
 6    0  0.1576925E-007  0.4584567E+03  0.7546771E-02  0.1025230E+00
         21   -1    0    0  502  501  0.00000000000E+00  0.00000000000E+00  0.66348219870E+02  0.66348219870E+02  0.00000000000E+00 0. -1.
         21   -1    0    0  501  502 -0.00000000000E+00 -0.00000000000E+00 -0.79196750711E+03  0.79196750711E+03  0.00000000000E+00 0. -1.
      99926    2    1    2    0    0  0.00000000000E+00 -0.71054273576E-14 -0.72561928724E+03  0.85831572698E+03  0.45845669061E+03 0.  0.
         25    1    3    3    0    0  0.21043129871E+02 -0.33703431981E+02 -0.17370239061E+03  0.21771257025E+03  0.12509000000E+03 0.  0.
         25    1    3    3    0    0 -0.57539613460E+01  0.10961119072E+03 -0.20685566098E+03  0.26548915945E+03  0.12509000000E+03 0.  0.
         25    1    3    3    0    0 -0.15289168525E+02 -0.75907758740E+02 -0.34506123564E+03  0.37511399728E+03  0.12509000000E+03 0.  0.
<mgrwt>
<rscale>  2 0.45845669E+03</rscale>
<asrwt>0</asrwt>
<pdfrwt beam="1">  1       21 0.97570911E-02 0.45845669E+03</pdfrwt>
<pdfrwt beam="2">  1       21 0.11646581E+00 0.45845669E+03</pdfrwt>
<totfact> 0.43868053E+04</totfact>
</mgrwt>
</event>
<event>
 6    0  0.1576925E-007  0.4623583E+03  0.7546771E-02  0.1024099E+00
         21   -1    0    0  502  501  0.00000000000E+00  0.00000000000E+00  0.11024561618E+04  0.11024561618E+04  0.00000000000E+00 0.  1.
         21   -1    0    0  501  502 -0.00000000000E+00 -0.00000000000E+00 -0.48477021450E+02  0.48477021450E+02  0.00000000000E+00 0.  1.
      99926    2    1    2    0    0  0.00000000000E+00  0.62172489379E-14  0.10539791403E+04  0.11509331832E+04  0.46235826370E+03 0.  0.
         25    1    3    3    0    0  0.46296628050E+02  0.72323108802E+02  0.21394227453E+03  0.26228384390E+03  0.12509000000E+03 0.  0.
         25    1    3    3    0    0 -0.16093954343E+02 -0.78240944919E+02  0.57670059554E+03  0.59549285960E+03  0.12509000000E+03 0.  0.
         25    1    3    3    0    0 -0.30202673707E+02  0.59178361161E+01  0.26333627027E+03  0.29315647975E+03  0.12509000000E+03 0.  0.
<mgrwt>
<rscale>  2 0.46235826E+03</rscale>
<asrwt>0</asrwt>
<pdfrwt beam="1">  1       21 0.16212589E+00 0.46235826E+03</pdfrwt>
<pdfrwt beam="2">  1       21 0.71289745E-02 0.46235826E+03</pdfrwt>
<totfact> 0.31883182E+04</totfact>
</mgrwt>
</event>
<event>
 6    0  0.1576925E-007  0.4481005E+03  0.7546771E-02  0.1028290E+00
         21   -1    0    0  502  501  0.00000000000E+00  0.00000000000E+00  0.13180193676E+04  0.13180193676E+04  0.00000000000E+00 0.  1.
         21   -1    0    0  501  502 -0.00000000000E+00 -0.00000000000E+00 -0.38086329814E+02  0.38086329814E+02  0.00000000000E+00 0.  1.
      99926    2    1    2    0    0  0.00000000000E+00  0.00000000000E+00  0.12799330378E+04  0.13561056974E+04  0.44810052593E+03 0.  0.
         25    1    3    3    0    0 -0.68835255504E+02  0.48374303684E+02  0.37672863444E+03  0.40577128750E+03  0.12509000000E+03 0.  0.
         25    1    3    3    0    0  0.73953490984E+02  0.17262339528E+02  0.56790189475E+03  0.58645304787E+03  0.12509000000E+03 0.  0.
         25    1    3    3    0    0 -0.51182354795E+01 -0.65636643212E+02  0.33530250857E+03  0.36388136201E+03  0.12509000000E+03 0.  0.
<mgrwt>
<rscale>  2 0.44810053E+03</rscale>
<asrwt>0</asrwt>
<pdfrwt beam="1">  1       21 0.19382635E+00 0.44810053E+03</pdfrwt>
<pdfrwt beam="2">  1       21 0.56009317E-02 0.44810053E+03</pdfrwt>
<totfact> 0.29052692E+04</totfact>
</mgrwt>
</event>
<event>
 6    0  0.1576925E-007  0.4450004E+03  0.7546771E-02  0.1029224E+00
         21   -1    0    0  502  501  0.00000000000E+00  0.00000000000E+00  0.63632306497E+02  0.63632306497E+02  0.00000000000E+00 0.  1.
         21   -1    0    0  501  502 -0.00000000000E+00 -0.00000000000E+00 -0.77800621192E+03  0.77800621192E+03  0.00000000000E+00 0.  1.
      99926    2    1    2    0    0  0.00000000000E+00 -0.35527136788E-14 -0.71437390542E+03  0.84163851842E+03  0.44500035835E+03 0.  0.
         25    1    3    3    0    0 -0.14507709810E+01  0.20806976734E+02 -0.18537723045E+03  0.22460467646E+03  0.12509000000E+03 0.  0.
         25    1    3    3    0    0 -0.87667892301E+02  0.28890040112E+02 -0.28069167127E+03  0.32086697583E+03  0.12509000000E+03 0.  0.
         25    1    3    3    0    0  0.89118663282E+02 -0.49697016846E+02 -0.24830500370E+03  0.29616686613E+03  0.12509000000E+03 0.  0.
<mgrwt>
<rscale>  2 0.44500036E+03</rscale>
<asrwt>0</asrwt>
<pdfrwt beam="1">  1       21 0.93576924E-02 0.44500036E+03</pdfrwt>
<pdfrwt beam="2">  1       21 0.11441267E+00 0.44500036E+03</pdfrwt>
<totfact> 0.49593299E+04</totfact>
</mgrwt>
</event>
<event>
 6    0  0.1576925E-007  0.4546417E+03  0.7546771E-02  0.1026347E+00
         21   -1    0    0  502  501  0.00000000000E+00  0.00000000000E+00  0.40240027199E+03  0.40240027199E+03  0.00000000000E+00 0. -1.
         21   -1    0    0  501  502 -0.00000000000E+00 -0.00000000000E+00 -0.12841634209E+03  0.12841634209E+03  0.00000000000E+00 0. -1.
      99926    2    1    2    0    0  0.00000000000E+00  0.71054273576E-14  0.27398392990E+03  0.53081661408E+03  0.45464170942E+03 0.  0.
         25    1    3    3    0    0  0.46636802785E+02  0.37543309999E+02  0.15495495638E+03  0.20794960473E+03  0.12509000000E+03 0.  0.
         25    1    3    3    0    0 -0.63060212083E+02  0.45608845521E+02  0.41609906018E+02  0.15308706515E+03  0.12509000000E+03 0.  0.
         25    1    3    3    0    0  0.16423409298E+02 -0.83152155521E+02  0.77419067504E+02  0.16977994420E+03  0.12509000000E+03 0.  0.
<mgrwt>
<rscale>  2 0.45464171E+03</rscale>
<asrwt>0</asrwt>
<pdfrwt beam="1">  1       21 0.59176510E-01 0.45464171E+03</pdfrwt>
<pdfrwt beam="2">  1       21 0.18884756E-01 0.45464171E+03</pdfrwt>
<totfact> 0.63330921E+04</totfact>
</mgrwt>
</event>
<event>
 6    0  0.1576925E-007  0.4567218E+03  0.7546771E-02  0.1025736E+00
         21   -1    0    0  502  501  0.00000000000E+00  0.00000000000E+00  0.24473524885E+04  0.24473524885E+04  0.00000000000E+00 0. -1.
         21   -1    0    0  501  502 -0.00000000000E+00 -0.00000000000E+00 -0.21308213737E+02  0.21308213737E+02  0.00000000000E+00 0. -1.
      99926    2    1    2    0    0  0.00000000000E+00 -0.35527136788E-14  0.24260442748E+04  0.24686607022E+04  0.45672184058E+03 0.  0.
         25    1    3    3    0    0  0.20990413458E+02  0.24769447713E+02  0.11936889601E+04  0.12006643847E+04  0.12509000000E+03 0.  0.
         25    1    3    3    0    0 -0.40493867676E+02 -0.53563119047E+02  0.90092160919E+03  0.91203948108E+03  0.12509000000E+03 0.  0.
         25    1    3    3    0    0  0.19503454218E+02  0.28793671334E+02  0.33143370547E+03  0.35595683651E+03  0.12509000000E+03 0.  0.
<mgrwt>
<rscale>  2 0.45672184E+03</rscale>
<asrwt>0</asrwt>
<pdfrwt beam="1">  1       21 0.35990459E+00 0.45672184E+03</pdfrwt>
<pdfrwt beam="2">  1       21 0.31335625E-02 0.45672184E+03</pdfrwt>
<totfact> 0.73588418E+03</totfact>
</mgrwt>
</event>
<event>
 6    0  0.1576925E-007  0.4843680E+03  0.7546771E-02  0.1017942E+00
         21   -1    0    0  502  501  0.00000000000E+00  0.00000000000E+00  0.32357841679E+03  0.32357841679E+03  0.00000000000E+00 0. -1.
         21   -1    0    0  501  502 -0.00000000000E+00 -0.00000000000E+00 -0.18126392335E+03  0.18126392335E+03  0.00000000000E+00 0. -1.
      99926    2    1    2    0    0  0.00000000000E+00  0.17763568394E-14  0.14231449344E+03  0.50484234013E+03  0.48436801437E+03 0.  0.
         25    1    3    3    0    0  0.54421956666E+02  0.11260755045E+03  0.42018704865E+02  0.18181113674E+03  0.12509000000E+03 0.  0.
         25    1    3    3    0    0 -0.16906923771E+02 -0.10350048270E+03  0.91039122110E+01  0.16348878649E+03  0.12509000000E+03 0.  0.
         25    1    3    3    0    0 -0.37515032895E+02 -0.91070677525E+01  0.91191876367E+02  0.15954241690E+03  0.12509000000E+03 0.  0.
<mgrwt>
<rscale>  2 0.48436801E+03</rscale>
<asrwt>0</asrwt>
<pdfrwt beam="1">  1       21 0.47585061E-01 0.48436801E+03</pdfrwt>
<pdfrwt beam="2">  1       21 0.26656459E-01 0.48436801E+03</pdfrwt>
<totfact> 0.51768994E+04</totfact>
</mgrwt>
</event>
<event>
 6    0  0.1576925E-007  0.4543107E+03  0.7546771E-02  0.1026444E+00
         21   -1    0    0  502  501  0.00000000000E+00  0.00000000000E+00  0.12753317698E+04  0.12753317698E+04  0.00000000000E+00 0. -1.
         21   -1    0    0  501  502 -0.00000000000E+00 -0.00000000000E+00 -0.40459717962E+02  0.40459717962E+02  0.00000000000E+00 0. -1.
      99926    2    1    2    0    0  0.71054273576E-14  0.14210854715E-13  0.12348720519E+04  0.13157914878E+04  0.45431074702E+03 0.  0.
         25    1    3    3    0    0 -0.84428624948E+01 -0.10753240942E+02  0.29532279348E+03  0.32101397877E+03  0.12509000000E+03 0.  0.
         25    1    3    3    0    0  0.63288593355E+02  0.90242829874E+02  0.53835436775E+03  0.56357976167E+03  0.12509000000E+03 0.  0.
         25    1    3    3    0    0 -0.54845730860E+02 -0.79489588932E+02  0.40119489063E+03  0.43119774733E+03  0.12509000000E+03 0.  0.
<mgrwt>
<rscale>  2 0.45431075E+03</rscale>
<asrwt>0</asrwt>
<pdfrwt beam="1">  1       21 0.18754876E+00 0.45431075E+03</pdfrwt>
<pdfrwt beam="2">  1       21 0.59499594E-02 0.45431075E+03</pdfrwt>
<totfact> 0.28813635E+04</totfact>
</mgrwt>
</event>
<event>
 6    0  0.1576925E-007  0.4581389E+03  0.7546771E-02  0.1025322E+00
         21   -1    0    0  502  501  0.00000000000E+00  0.00000000000E+00  0.38575198052E+03  0.38575198052E+03  0.00000000000E+00 0.  1.
         21   -1    0    0  501  502 -0.00000000000E+00 -0.00000000000E+00 -0.13602732158E+03  0.13602732158E+03  0.00000000000E+00 0.  1.
      99926    2    1    2    0    0  0.00000000000E+00  0.00000000000E+00  0.24972465893E+03  0.52177930210E+03  0.45813888159E+03 0.  0.
         25    1    3    3    0    0 -0.46925176179E+02  0.64662476208E+02  0.14937725239E+03  0.21058081494E+03  0.12509000000E+03 0.  0.
         25    1    3    3    0    0  0.33356834851E+02 -0.20689855812E+02  0.11845074097E+03  0.17668852453E+03  0.12509000000E+03 0.  0.
         25    1    3    3    0    0  0.13568341328E+02 -0.43972620396E+02 -0.18103334422E+02  0.13450996264E+03  0.12509000000E+03 0.  0.
<mgrwt>
<rscale>  2 0.45813888E+03</rscale>
<asrwt>0</asrwt>
<pdfrwt beam="1">  1       21 0.56728232E-01 0.45813888E+03</pdfrwt>
<pdfrwt beam="2">  1       21 0.20004018E-01 0.45813888E+03</pdfrwt>
<totfact> 0.62202651E+04</totfact>
</mgrwt>
</event>
<event>
 6    0  0.1576925E-007  0.4836822E+03  0.7546771E-02  0.1018128E+00
         21   -1    0    0  502  501  0.00000000000E+00  0.00000000000E+00  0.59803728920E+02  0.59803728920E+02  0.00000000000E+00 0. -1.
         21   -1    0    0  501  502 -0.00000000000E+00 -0.00000000000E+00 -0.97798440154E+03  0.97798440154E+03  0.00000000000E+00 0. -1.
      99926    2    1    2    0    0  0.00000000000E+00  0.71054273576E-14 -0.91818067262E+03  0.10377881305E+04  0.48368218507E+03 0.  0.
         25    1    3    3    0    0 -0.10833839177E+03  0.46313287949E+02 -0.40585576844E+03  0.44073636184E+03  0.12509000000E+03 0.  0.
         25    1    3    3    0    0 -0.40131905082E+00 -0.62873829861E+02 -0.23637187599E+03  0.27472249889E+03  0.12509000000E+03 0.  0.
         25    1    3    3    0    0  0.10873971082E+03  0.16560541912E+02 -0.27595302820E+03  0.32232926974E+03  0.12509000000E+03 0.  0.
<mgrwt>
<rscale>  2 0.48368219E+03</rscale>
<asrwt>0</asrwt>
<pdfrwt beam="1">  1       21 0.87946662E-02 0.48368219E+03</pdfrwt>
<pdfrwt beam="2">  1       21 0.14382123E+00 0.48368219E+03</pdfrwt>
<totfact> 0.30343290E+04</totfact>
</mgrwt>
</event>
<event>
 6    0  0.1576925E-007  0.4528204E+03  0.7546771E-02  0.1026884E+00
         21   -1    0    0  502  501  0.00000000000E+00  0.00000000000E+00  0.50899828351E+03  0.50899828351E+03  0.00000000000E+00 0.  1.
         21   -1    0    0  501  502 -0.00000000000E+00 -0.00000000000E+00 -0.10071072383E+03  0.10071072383E+03  0.00000000000E+00 0.  1.
      99926    2    1    2    0    0  0.17763568394E-14  0.26645352591E-14  0.40828755969E+03  0.60970900734E+03  0.45282043046E+03 0.  0.
         25    1    3    3    0    0  0.15755097479E+02 -0.73289472896E+01  0.14487080574E+03  0.19218999720E+03  0.12509000000E+03 0.  0.
         25    1    3    3    0    0 -0.55372724690E+02 -0.34160329380E+02  0.23937959306E+03  0.27781858184E+03  0.12509000000E+03 0.  0.
         25    1    3    3    0    0  0.39617627211E+02  0.41489276670E+02  0.24037160880E+02  0.13970042830E+03  0.12509000000E+03 0.  0.
<mgrwt>
<rscale>  2 0.45282043E+03</rscale>
<asrwt>0</asrwt>
<pdfrwt beam="1">  1       21 0.74852688E-01 0.45282043E+03</pdfrwt>
<pdfrwt beam="2">  1       21 0.14810401E-01 0.45282043E+03</pdfrwt>
<totfact> 0.59095446E+04</totfact>
</mgrwt>
</event>
<event>
 6    0  0.1576925E-007  0.4731742E+03  0.7546771E-02  0.1021028E+00
         21   -1    0    0  502  501  0.00000000000E+00  0.00000000000E+00  0.20421657568E+03  0.20421657568E+03  0.00000000000E+00 0.  1.
         21   -1    0    0  501  502 -0.00000000000E+00 -0.00000000000E+00 -0.27408867052E+03  0.27408867052E+03  0.00000000000E+00 0.  1.
      99926    2    1    2    0    0  0.00000000000E+00 -0.71054273576E-14 -0.69872094835E+02  0.47830524620E+03  0.47317417396E+03 0.  0.
         25    1    3    3    0    0 -0.99755673844E+01 -0.51818576197E+02  0.94477684802E+02  0.16540319770E+03  0.12509000000E+03 0.  0.
         25    1    3    3    0    0 -0.23987991708E+01  0.61281907188E+02 -0.73465824431E+02  0.15749908522E+03  0.12509000000E+03 0.  0.
         25    1    3    3    0    0  0.12374366555E+02 -0.94633309907E+01 -0.90883955206E+02  0.15540296328E+03  0.12509000000E+03 0.  0.
<mgrwt>
<rscale>  2 0.47317417E+03</rscale>
<asrwt>0</asrwt>
<pdfrwt beam="1">  1       21 0.30031850E-01 0.47317417E+03</pdfrwt>
<pdfrwt beam="2">  1       21 0.40307157E-01 0.47317417E+03</pdfrwt>
<totfact> 0.57991653E+04</totfact>
</mgrwt>
</event>
<event>
 6    0  0.1576925E-007  0.4709094E+03  0.7546771E-02  0.1021664E+00
         21   -1    0    0  502  501  0.00000000000E+00  0.00000000000E+00  0.36641384134E+02  0.36641384134E+02  0.00000000000E+00 0.  1.
         21   -1    0    0  501  502 -0.00000000000E+00 -0.00000000000E+00 -0.15130135960E+04  0.15130135960E+04  0.00000000000E+00 0.  1.
      99926    2    1    2    0    0  0.00000000000E+00  0.71054273576E-14 -0.14763722118E+04  0.15496549801E+04  0.47090938563E+03 0.  0.
         25    1    3    3    0    0  0.76460323304E+00  0.81544618432E+02 -0.71317137458E+03  0.72863641621E+03  0.12509000000E+03 0.  0.
         25    1    3    3    0    0 -0.15634597646E+02 -0.95046637670E+02 -0.27956984418E+03  0.32106869958E+03  0.12509000000E+03 0.  0.
         25    1    3    3    0    0  0.14869994413E+02  0.13502019238E+02 -0.48363099307E+03  0.49994986431E+03  0.12509000000E+03 0.  0.
<mgrwt>
<rscale>  2 0.47090939E+03</rscale>
<asrwt>0</asrwt>
<pdfrwt beam="1">  1       21 0.53884387E-02 0.47090939E+03</pdfrwt>
<pdfrwt beam="2">  1       21 0.22250201E+00 0.47090939E+03</pdfrwt>
<totfact> 0.20000363E+04</totfact>
</mgrwt>
</event>
<event>
 6    0  0.1576925E-007  0.4558683E+03  0.7546771E-02  0.1025986E+00
         21   -1    0    0  502  501  0.00000000000E+00  0.00000000000E+00  0.13484168660E+03  0.13484168660E+03  0.00000000000E+00 0. -1.
         21   -1    0    0  501  502 -0.00000000000E+00 -0.00000000000E+00 -0.38529608037E+03  0.38529608037E+03  0.00000000000E+00 0. -1.
      99926    2    1    2    0    0  0.00000000000E+00 -0.53290705182E-14 -0.25045439377E+03  0.52013776697E+03  0.45586828501E+03 0.  0.
         25    1    3    3    0    0 -0.34860443470E+02 -0.56298709889E+02 -0.10522346272E+02  0.14192611854E+03  0.12509000000E+03 0.  0.
         25    1    3    3    0    0 -0.79145285763E+01  0.48801361459E+02 -0.19790816119E+03  0.23928928310E+03  0.12509000000E+03 0.  0.
         25    1    3    3    0    0  0.42774972046E+02  0.74973484300E+01 -0.42023886308E+02  0.13892236532E+03  0.12509000000E+03 0.  0.
<mgrwt>
<rscale>  2 0.45586829E+03</rscale>
<asrwt>0</asrwt>
<pdfrwt beam="1">  1       21 0.19829660E-01 0.45586829E+03</pdfrwt>
<pdfrwt beam="2">  1       21 0.56661187E-01 0.45586829E+03</pdfrwt>
<totfact> 0.63439727E+04</totfact>
</mgrwt>
</event>
<event>
 6    0  0.1576925E-007  0.4576546E+03  0.7546771E-02  0.1025464E+00
         21   -1    0    0  502  501  0.00000000000E+00  0.00000000000E+00  0.28278976660E+03  0.28278976660E+03  0.00000000000E+00 0. -1.
         21   -1    0    0  501  502 -0.00000000000E+00 -0.00000000000E+00 -0.18516204783E+03  0.18516204783E+03  0.00000000000E+00 0. -1.
      99926    2    1    2    0    0  0.71054273576E-14  0.00000000000E+00  0.97627718771E+02  0.46795181442E+03  0.45765459590E+03 0.  0.
         25    1    3    3    0    0  0.78952461523E+02  0.12597623302E+02  0.70733606046E+02  0.16444738495E+03  0.12509000000E+03 0.  0.
         25    1    3    3    0    0 -0.31220880017E+02 -0.50345260484E+02 -0.46770021621E+02  0.14609699389E+03  0.12509000000E+03 0.  0.
         25    1    3    3    0    0 -0.47731581506E+02  0.37747637182E+02  0.73664134346E+02  0.15740743558E+03  0.12509000000E+03 0.  0.
<mgrwt>
<rscale>  2 0.45765460E+03</rscale>
<asrwt>0</asrwt>
<pdfrwt beam="1">  1       21 0.41586731E-01 0.45765460E+03</pdfrwt>
<pdfrwt beam="2">  1       21 0.27229713E-01 0.45765460E+03</pdfrwt>
<totfact> 0.66184122E+04</totfact>
</mgrwt>
</event>
<event>
 6    0  0.1576925E-007  0.4424414E+03  0.7546771E-02  0.1030000E+00
         21   -1    0    0  502  501  0.00000000000E+00  0.00000000000E+00  0.11951094855E+04  0.11951094855E+04  0.00000000000E+00 0.  1.
         21   -1    0    0  501  502 -0.00000000000E+00 -0.00000000000E+00 -0.40949055200E+02  0.40949055200E+02  0.00000000000E+00 0.  1.
      99926    2    1    2    0    0  0.00000000000E+00  0.00000000000E+00  0.11541604303E+04  0.12360585407E+04  0.44244142794E+03 0.  0.
         25    1    3    3    0    0 -0.40092124310E+02 -0.67637282985E+02  0.32609576951E+03  0.35800578134E+03  0.12509000000E+03 0.  0.
         25    1    3    3    0    0  0.31289910020E+02  0.51497799968E+02  0.24660995465E+03  0.28301070599E+03  0.12509000000E+03 0.  0.
         25    1    3    3    0    0  0.88022142898E+01  0.16139483018E+02  0.58145470610E+03  0.59504205334E+03  0.12509000000E+03 0.  0.
<mgrwt>
<rscale>  2 0.44244143E+03</rscale>
<asrwt>0</asrwt>
<pdfrwt beam="1">  1       21 0.17575137E+00 0.44244143E+03</pdfrwt>
<pdfrwt beam="2">  1       21 0.60219207E-02 0.44244143E+03</pdfrwt>
<totfact> 0.34258123E+04</totfact>
</mgrwt>
</event>
<event>
 6    0  0.1576925E-007  0.4853933E+03  0.7546771E-02  0.1017663E+00
         21   -1    0    0  502  501  0.00000000000E+00  0.00000000000E+00  0.17197201181E+03  0.17197201181E+03  0.00000000000E+00 0. -1.
         21   -1    0    0  501  502 -0.00000000000E+00 -0.00000000000E+00 -0.34250728556E+03  0.34250728556E+03  0.00000000000E+00 0. -1.
      99926    2    1    2    0    0  0.13322676296E-14  0.00000000000E+00 -0.17053527375E+03  0.51447929738E+03  0.48539331252E+03 0.  0.
         25    1    3    3    0    0  0.37678015487E+02 -0.12217479116E+03 -0.13373988251E+03  0.22333870404E+03  0.12509000000E+03 0.  0.
         25    1    3    3    0    0  0.29954615443E+01  0.68220112738E+02  0.60786447014E+01  0.14264436404E+03  0.12509000000E+03 0.  0.
         25    1    3    3    0    0 -0.40673477031E+02  0.53954678424E+02 -0.42874035939E+02  0.14849622930E+03  0.12509000000E+03 0.  0.
<mgrwt>
<rscale>  2 0.48539331E+03</rscale>
<asrwt>0</asrwt>
<pdfrwt beam="1">  1       21 0.25290002E-01 0.48539331E+03</pdfrwt>
<pdfrwt beam="2">  1       21 0.50368717E-01 0.48539331E+03</pdfrwt>
<totfact> 0.50845435E+04</totfact>
</mgrwt>
</event>
<event>
 6    0  0.1576925E-007  0.4577814E+03  0.7546771E-02  0.1025427E+00
         21   -1    0    0  502  501  0.00000000000E+00  0.00000000000E+00  0.93200332204E+02  0.93200332204E+02  0.00000000000E+00 0.  1.
         21   -1    0    0  501  502 -0.00000000000E+00 -0.00000000000E+00 -0.56213274702E+03  0.56213274702E+03  0.00000000000E+00 0.  1.
      99926    2    1    2    0    0  0.00000000000E+00  0.35527136788E-14 -0.46893241481E+03  0.65533307922E+03  0.45778142717E+03 0.  0.
         25    1    3    3    0    0  0.75483572257E+02  0.46112373196E+02 -0.10820064685E+03  0.18756068010E+03  0.12509000000E+03 0.  0.
         25    1    3    3    0    0 -0.10121360820E+03 -0.25653221853E+02 -0.15580550121E+03  0.22544432701E+03  0.12509000000E+03 0.  0.
         25    1    3    3    0    0  0.25730035942E+02 -0.20459151342E+02 -0.20492626676E+03  0.24232807211E+03  0.12509000000E+03 0.  0.
<mgrwt>
<rscale>  2 0.45778143E+03</rscale>
<asrwt>0</asrwt>
<pdfrwt beam="1">  1       21 0.13705931E-01 0.45778143E+03</pdfrwt>
<pdfrwt beam="2">  1       21 0.82666580E-01 0.45778143E+03</pdfrwt>
<totfact> 0.54196447E+04</totfact>
</mgrwt>
</event>
<event>
 6    0  0.1576925E-007  0.4660759E+03  0.7546771E-02  0.1023034E+00
         21   -1    0    0  502  501  0.00000000000E+00  0.00000000000E+00  0.20356654805E+03  0.20356654805E+03  0.00000000000E+00 0.  1.
         21   -1    0    0  501  502 -0.00000000000E+00 -0.00000000000E+00 -0.26677608166E+03  0.26677608166E+03  0.00000000000E+00 0.  1.
      99926    2    1    2    0    0  0.00000000000E+00  0.71054273576E-14 -0.63209533610E+02  0.47034262971E+03  0.46607589960E+03 0.  0.
         25    1    3    3    0    0  0.64281994199E+02 -0.59328863788E+02  0.37530571170E+02  0.15718823343E+03  0.12509000000E+03 0.  0.
         25    1    3    3    0    0 -0.81360552032E+02  0.59966655690E+02 -0.17135861644E+02  0.16173028497E+03  0.12509000000E+03 0.  0.
         25    1    3    3    0    0  0.17078557833E+02 -0.63779190218E+00 -0.83604243136E+02  0.15142411131E+03  0.12509000000E+03 0.  0.
<mgrwt>
<rscale>  2 0.46607590E+03</rscale>
<asrwt>0</asrwt>
<pdfrwt beam="1">  1       21 0.29936257E-01 0.46607590E+03</pdfrwt>
<pdfrwt beam="2">  1       21 0.39231777E-01 0.46607590E+03</pdfrwt>
<totfact> 0.61792251E+04</totfact>
</mgrwt>
</event>
<event>
 6    0  0.1576925E-007  0.4532041E+03  0.7546771E-02  0.1026771E+00
         21   -1    0    0  502  501  0.00000000000E+00  0.00000000000E+00  0.19238598608E+03  0.19238598608E+03  0.00000000000E+00 0.  1.
         21   -1    0    0  501  502 -0.00000000000E+00 -0.00000000000E+00 -0.26690342440E+03  0.26690342440E+03  0.00000000000E+00 0.  1.
      99926    2    1    2    0    0  0.00000000000E+00  0.00000000000E+00 -0.74517438315E+02  0.45928941048E+03  0.45320405335E+03 0.  0.
         25    1    3    3    0    0 -0.50347795724E+02 -0.31268792081E+02  0.44482039305E+02  0.14539187671E+03  0.12509000000E+03 0.  0.
         25    1    3    3    0    0  0.13707574993E+02  0.58157858326E+02 -0.11602359510E+03  0.18077393844E+03  0.12509000000E+03 0.  0.
         25    1    3    3    0    0  0.36640220731E+02 -0.26889066245E+02 -0.29758825187E+01  0.13312359534E+03  0.12509000000E+03 0.  0.
<mgrwt>
<rscale>  2 0.45320405E+03</rscale>
<asrwt>0</asrwt>
<pdfrwt beam="1">  1       21 0.28292057E-01 0.45320405E+03</pdfrwt>
<pdfrwt beam="2">  1       21 0.39250503E-01 0.45320405E+03</pdfrwt>
<totfact> 0.69218349E+04</totfact>
</mgrwt>
</event>
<event>
 6    0  0.1576925E-007  0.4423669E+03  0.7546771E-02  0.1030023E+00
         21   -1    0    0  502  501  0.00000000000E+00  0.00000000000E+00  0.80085084283E+03  0.80085084283E+03  0.00000000000E+00 0.  1.
         21   -1    0    0  501  502 -0.00000000000E+00 -0.00000000000E+00 -0.61087673144E+02  0.61087673144E+02  0.00000000000E+00 0.  1.
      99926    2    1    2    0    0  0.00000000000E+00  0.71054273576E-14  0.73976316969E+03  0.86193851597E+03  0.44236688178E+03 0.  0.
         25    1    3    3    0    0  0.30805750125E+02 -0.48614877396E+02  0.18215109433E+03  0.22833950558E+03  0.12509000000E+03 0.  0.
         25    1    3    3    0    0 -0.53999237363E+02  0.92823443913E+02  0.27723531401E+03  0.32255082826E+03  0.12509000000E+03 0.  0.
         25    1    3    3    0    0  0.23193487237E+02 -0.44208566517E+02  0.28037676135E+03  0.31104818213E+03  0.12509000000E+03 0.  0.
<mgrwt>
<rscale>  2 0.44236688E+03</rscale>
<asrwt>0</asrwt>
<pdfrwt beam="1">  1       21 0.11777218E+00 0.44236688E+03</pdfrwt>
<pdfrwt beam="2">  1       21 0.89834818E-02 0.44236688E+03</pdfrwt>
<totfact> 0.49649444E+04</totfact>
</mgrwt>
</event>
<event>
 6    0  0.1576925E-007  0.4480527E+03  0.7546771E-02  0.1028304E+00
         21   -1    0    0  502  501  0.00000000000E+00  0.00000000000E+00  0.29283231457E+03  0.29283231457E+03  0.00000000000E+00 0. -1.
         21   -1    0    0  501  502 -0.00000000000E+00 -0.00000000000E+00 -0.17138753859E+03  0.17138753859E+03  0.00000000000E+00 0. -1.
      99926    2    1    2    0    0  0.26645352591E-14  0.88817841970E-15  0.12144477599E+03  0.46421985316E+03  0.44805271839E+03 0.  0.
         25    1    3    3    0    0  0.42825948052E+01  0.69292680489E+01  0.37758757694E+02  0.13091824646E+03  0.12509000000E+03 0.  0.
         25    1    3    3    0    0  0.27336760642E+02 -0.98663298589E+02  0.63658372422E+02  0.17372864315E+03  0.12509000000E+03 0.  0.
         25    1    3    3    0    0 -0.31619355448E+02  0.91734030540E+02  0.20027645871E+02  0.15957296355E+03  0.12509000000E+03 0.  0.
<mgrwt>
<rscale>  2 0.44805272E+03</rscale>
<asrwt>0</asrwt>
<pdfrwt beam="1">  1       21 0.43063576E-01 0.44805272E+03</pdfrwt>
<pdfrwt beam="2">  1       21 0.25204050E-01 0.44805272E+03</pdfrwt>
<totfact> 0.71741055E+04</totfact>
</mgrwt>
</event>
<event>
 6    0  0.1576925E-007  0.4555252E+03  0.7546771E-02  0.1026087E+00
         21   -1    0    0  502  501  0.00000000000E+00  0.00000000000E+00  0.33118417035E+03  0.33118417035E+03  0.00000000000E+00 0.  1.
         21   -1    0    0  501  502 -0.00000000000E+00 -0.00000000000E+00 -0.15663731840E+03  0.15663731840E+03  0.00000000000E+00 0.  1.
      99926    2    1    2    0    0 -0.35527136788E-14  0.00000000000E+00  0.17454685195E+03  0.48782148874E+03  0.45552519288E+03 0.  0.
         25    1    3    3    0    0 -0.66416041539E+02  0.80881122583E+02  0.66281671290E+02  0.17605003440E+03  0.12509000000E+03 0.  0.
         25    1    3    3    0    0  0.74605392374E+02 -0.59564349549E+02  0.23874513847E+02  0.15915833883E+03  0.12509000000E+03 0.  0.
         25    1    3    3    0    0 -0.81893508344E+01 -0.21316773034E+02  0.84390666812E+02  0.15261311551E+03  0.12509000000E+03 0.  0.
<mgrwt>
<rscale>  2 0.45552519E+03</rscale>
<asrwt>0</asrwt>
<pdfrwt beam="1">  1       21 0.48703554E-01 0.45552519E+03</pdfrwt>
<pdfrwt beam="2">  1       21 0.23034900E-01 0.45552519E+03</pdfrwt>
<totfact> 0.65859994E+04</totfact>
</mgrwt>
</event>
<event>
 6    0  0.1576925E-007  0.4510950E+03  0.7546771E-02  0.1027396E+00
         21   -1    0    0  502  501  0.00000000000E+00  0.00000000000E+00  0.29998079867E+03  0.29998079867E+03  0.00000000000E+00 0.  1.
         21   -1    0    0  501  502 -0.00000000000E+00 -0.00000000000E+00 -0.16958308931E+03  0.16958308931E+03  0.00000000000E+00 0.  1.
      99926    2    1    2    0    0  0.00000000000E+00  0.00000000000E+00  0.13039770936E+03  0.46956388798E+03  0.45109498145E+03 0.  0.
         25    1    3    3    0    0  0.37383087741E+02 -0.25020503708E+02  0.49998812055E+02  0.14202432947E+03  0.12509000000E+03 0.  0.
         25    1    3    3    0    0 -0.17020434927E+02 -0.38172652714E+02 -0.44010519706E+02  0.13903697553E+03  0.12509000000E+03 0.  0.
         25    1    3    3    0    0 -0.20362652814E+02  0.63193156422E+02  0.12440941701E+03  0.18850258297E+03  0.12509000000E+03 0.  0.
<mgrwt>
<rscale>  2 0.45109498E+03</rscale>
<asrwt>0</asrwt>
<pdfrwt beam="1">  1       21 0.44114823E-01 0.45109498E+03</pdfrwt>
<pdfrwt beam="2">  1       21 0.24938690E-01 0.45109498E+03</pdfrwt>
<totfact> 0.69599661E+04</totfact>
</mgrwt>
</event>
<event>
 6    0  0.1576925E-007  0.4482344E+03  0.7546771E-02  0.1028250E+00
         21   -1    0    0  502  501  0.00000000000E+00  0.00000000000E+00  0.14324953488E+03  0.14324953488E+03  0.00000000000E+00 0.  1.
         21   -1    0    0  501  502 -0.00000000000E+00 -0.00000000000E+00 -0.35063658590E+03  0.35063658590E+03  0.00000000000E+00 0.  1.
      99926    2    1    2    0    0  0.00000000000E+00 -0.35527136788E-14 -0.20738705102E+03  0.49388612078E+03  0.44823443796E+03 0.  0.
         25    1    3    3    0    0  0.45240318600E+02 -0.58702231360E+02  0.46105878932E+01  0.14546959825E+03  0.12509000000E+03 0.  0.
         25    1    3    3    0    0  0.23269733795E+02  0.29580004365E+02 -0.10842764840E+03  0.16976607496E+03  0.12509000000E+03 0.  0.
         25    1    3    3    0    0 -0.68510052395E+02  0.29122226994E+02 -0.10356999051E+03  0.17865044757E+03  0.12509000000E+03 0.  0.
<mgrwt>
<rscale>  2 0.44823444E+03</rscale>
<asrwt>0</asrwt>
<pdfrwt beam="1">  1       21 0.21066108E-01 0.44823444E+03</pdfrwt>
<pdfrwt beam="2">  1       21 0.51564204E-01 0.44823444E+03</pdfrwt>
<totfact> 0.69352907E+04</totfact>
</mgrwt>
</event>
<event>
 6    0  0.1821276E-007  0.4355450E+03  0.7546771E-02  0.1032123E+00
         21   -1    0    0  502  501  0.00000000000E+00  0.00000000000E+00  0.29152298776E+03  0.29152298776E+03  0.00000000000E+00 0.  1.
         21   -1    0    0  501  502 -0.00000000000E+00 -0.00000000000E+00 -0.16267967736E+03  0.16267967736E+03  0.00000000000E+00 0.  1.
      99926    2    1    2    0    0  0.00000000000E+00  0.71054273576E-14  0.12884331040E+03  0.45420266512E+03  0.43554501762E+03 0.  0.
         25    1    3    3    0    0  0.21982701759E+02 -0.71503222995E+02  0.18863942467E+02  0.14696702522E+03  0.12509000000E+03 0.  0.
         25    1    3    3    0    0 -0.11063510734E+02  0.41065429856E+02 -0.78742105609E+01  0.13235664732E+03  0.12509000000E+03 0.  0.
         25    1    3    3    0    0 -0.10919191026E+02  0.30437793140E+02  0.11785357849E+03  0.17487899258E+03  0.12509000000E+03 0.  0.
<mgrwt>
<rscale>  2 0.43554502E+03</rscale>
<asrwt>0</asrwt>
<pdfrwt beam="1">  1       21 0.42871027E-01 0.43554502E+03</pdfrwt>
<pdfrwt beam="2">  1       21 0.23923482E-01 0.43554502E+03</pdfrwt>
<totfact> 0.80328834E+04</totfact>
</mgrwt>
</event>
<event>
 6    0  0.1576925E-007  0.4542198E+03  0.7546771E-02  0.1026471E+00
         21   -1    0    0  502  501  0.00000000000E+00  0.00000000000E+00  0.66492553984E+02  0.66492553984E+02  0.00000000000E+00 0. -1.
         21   -1    0    0  501  502 -0.00000000000E+00 -0.00000000000E+00 -0.77570965599E+03  0.77570965599E+03  0.00000000000E+00 0. -1.
      99926    2    1    2    0    0  0.00000000000E+00  0.00000000000E+00 -0.70921710201E+03  0.84220220998E+03  0.45421984183E+03 0.  0.
         25    1    3    3    0    0  0.25022457495E+01 -0.10492072014E+03 -0.24990140152E+03  0.29851773369E+03  0.12509000000E+03 0.  0.
         25    1    3    3    0    0 -0.19940412611E+02  0.89312144810E+02 -0.31639133508E+03  0.35231415566E+03  0.12509000000E+03 0.  0.
         25    1    3    3    0    0  0.17438166862E+02  0.15608575329E+02 -0.14292436541E+03  0.19137032062E+03  0.12509000000E+03 0.  0.
<mgrwt>
<rscale>  2 0.45421984E+03</rscale>
<asrwt>0</asrwt>
<pdfrwt beam="1">  1       21 0.97783176E-02 0.45421984E+03</pdfrwt>
<pdfrwt beam="2">  1       21 0.11407494E+00 0.45421984E+03</pdfrwt>
<totfact> 0.46071576E+04</totfact>
</mgrwt>
</event>
<event>
 6    0  0.1576925E-007  0.4577581E+03  0.7546771E-02  0.1025433E+00
         21   -1    0    0  502  501  0.00000000000E+00  0.00000000000E+00  0.21169009380E+03  0.21169009380E+03  0.00000000000E+00 0.  1.
         21   -1    0    0  501  502 -0.00000000000E+00 -0.00000000000E+00 -0.24746370855E+03  0.24746370855E+03  0.00000000000E+00 0.  1.
      99926    2    1    2    0    0  0.00000000000E+00  0.35527136788E-14 -0.35773614747E+02  0.45915380234E+03  0.45775808316E+03 0.  0.
         25    1    3    3    0    0 -0.31983586024E+02 -0.32757946007E+02  0.97344091438E+02  0.16498306895E+03  0.12509000000E+03 0.  0.
         25    1    3    3    0    0  0.15961674363E+02  0.18305805722E+02 -0.10264826941E+03  0.16362778763E+03  0.12509000000E+03 0.  0.
         25    1    3    3    0    0  0.16021911661E+02  0.14452140285E+02 -0.30469436777E+02  0.13054294577E+03  0.12509000000E+03 0.  0.
<mgrwt>
<rscale>  2 0.45775808E+03</rscale>
<asrwt>0</asrwt>
<pdfrwt beam="1">  1       21 0.31130896E-01 0.45775808E+03</pdfrwt>
<pdfrwt beam="2">  1       21 0.36391722E-01 0.45775808E+03</pdfrwt>
<totfact> 0.66761300E+04</totfact>
</mgrwt>
</event>
<event>
 6    0  0.1576925E-007  0.4551433E+03  0.7546771E-02  0.1026199E+00
         21   -1    0    0  502  501  0.00000000000E+00  0.00000000000E+00  0.98247442754E+02  0.98247442754E+02  0.00000000000E+00 0.  1.
         21   -1    0    0  501  502 -0.00000000000E+00 -0.00000000000E+00 -0.52712664327E+03  0.52712664327E+03  0.00000000000E+00 0.  1.
      99926    2    1    2    0    0  0.00000000000E+00 -0.35527136788E-14 -0.42887920052E+03  0.62537408603E+03  0.45514325090E+03 0.  0.
         25    1    3    3    0    0 -0.96919934108E+02  0.19500608256E+02 -0.12978345181E+03  0.20558453204E+03  0.12509000000E+03 0.  0.
         25    1    3    3    0    0 -0.11264703998E+02 -0.28144969892E+02 -0.13922607567E+03  0.18960601555E+03  0.12509000000E+03 0.  0.
         25    1    3    3    0    0  0.10818463811E+03  0.86443616356E+01 -0.15986967304E+03  0.23018353844E+03  0.12509000000E+03 0.  0.
<mgrwt>
<rscale>  2 0.45514325E+03</rscale>
<asrwt>0</asrwt>
<pdfrwt beam="1">  1       21 0.14448153E-01 0.45514325E+03</pdfrwt>
<pdfrwt beam="2">  1       21 0.77518624E-01 0.45514325E+03</pdfrwt>
<totfact> 0.57078406E+04</totfact>
</mgrwt>
</event>
<event>
 6    0  0.1576925E-007  0.4531440E+03  0.7546771E-02  0.1026789E+00
         21   -1    0    0  502  501  0.00000000000E+00  0.00000000000E+00  0.46749503538E+03  0.46749503538E+03  0.00000000000E+00 0. -1.
         21   -1    0    0  501  502 -0.00000000000E+00 -0.00000000000E+00 -0.10980839553E+03  0.10980839553E+03  0.00000000000E+00 0. -1.
      99926    2    1    2    0    0  0.00000000000E+00  0.00000000000E+00  0.35768663985E+03  0.57730343091E+03  0.45314403781E+03 0.  0.
         25    1    3    3    0    0 -0.16103042943E+02  0.84594578435E+01  0.18119113614E+02  0.12769761469E+03  0.12509000000E+03 0.  0.
         25    1    3    3    0    0 -0.34003584725E+02  0.74733082118E+01  0.26421470527E+03  0.29439601338E+03  0.12509000000E+03 0.  0.
         25    1    3    3    0    0  0.50106627669E+02 -0.15932766055E+02  0.75352820969E+02  0.15520980284E+03  0.12509000000E+03 0.  0.
<mgrwt>
<rscale>  2 0.45314404E+03</rscale>
<asrwt>0</asrwt>
<pdfrwt beam="1">  1       21 0.68749269E-01 0.45314404E+03</pdfrwt>
<pdfrwt beam="2">  1       21 0.16148294E-01 0.45314404E+03</pdfrwt>
<totfact> 0.60987508E+04</totfact>
</mgrwt>
</event>
<event>
 6    0  0.1576925E-007  0.4641746E+03  0.7546771E-02  0.1023577E+00
         21   -1    0    0  502  501  0.00000000000E+00  0.00000000000E+00  0.60275905778E+02  0.60275905778E+02  0.00000000000E+00 0.  1.
         21   -1    0    0  501  502 -0.00000000000E+00 -0.00000000000E+00 -0.89363255228E+03  0.89363255228E+03  0.00000000000E+00 0.  1.
      99926    2    1    2    0    0  0.71054273576E-14  0.00000000000E+00 -0.83335664650E+03  0.95390845806E+03  0.46417458578E+03 0.  0.
         25    1    3    3    0    0 -0.51760420529E+02  0.34745809295E+02 -0.14123186875E+03  0.19869665636E+03  0.12509000000E+03 0.  0.
         25    1    3    3    0    0  0.37430798380E+02 -0.90479692184E+01 -0.15470786572E+03  0.20264491662E+03  0.12509000000E+03 0.  0.
         25    1    3    3    0    0  0.14329622149E+02 -0.25697840077E+02 -0.53741691203E+03  0.55256688508E+03  0.12509000000E+03 0.  0.
<mgrwt>
<rscale>  2 0.46417459E+03</rscale>
<asrwt>0</asrwt>
<pdfrwt beam="1">  1       21 0.88641050E-02 0.46417459E+03</pdfrwt>
<pdfrwt beam="2">  1       21 0.13141653E+00 0.46417459E+03</pdfrwt>
<totfact> 0.38170100E+04</totfact>
</mgrwt>
</event>
<event>
 6    0  0.1576925E-007  0.4528073E+03  0.7546771E-02  0.1026888E+00
         21   -1    0    0  502  501  0.00000000000E+00  0.00000000000E+00  0.34260152927E+03  0.34260152927E+03  0.00000000000E+00 0. -1.
         21   -1    0    0  501  502 -0.00000000000E+00 -0.00000000000E+00 -0.14961584686E+03  0.14961584686E+03  0.00000000000E+00 0. -1.
      99926    2    1    2    0    0 -0.71054273576E-14  0.00000000000E+00  0.19298568241E+03  0.49221737613E+03  0.45280732298E+03 0.  0.
         25    1    3    3    0    0 -0.42997239256E+02  0.77338661180E+02  0.11926959277E+03  0.19417202413E+03  0.12509000000E+03 0.  0.
         25    1    3    3    0    0 -0.13806814724E+02 -0.75028493903E+02  0.10777150373E+02  0.14691343744E+03  0.12509000000E+03 0.  0.
         25    1    3    3    0    0  0.56804053980E+02 -0.23101672771E+01  0.62938939264E+02  0.15113191455E+03  0.12509000000E+03 0.  0.
<mgrwt>
<rscale>  2 0.45280732E+03</rscale>
<asrwt>0</asrwt>
<pdfrwt beam="1">  1       21 0.50382578E-01 0.45280732E+03</pdfrwt>
<pdfrwt beam="2">  1       21 0.22002330E-01 0.45280732E+03</pdfrwt>
<totfact> 0.66979268E+04</totfact>
</mgrwt>
</event>
<event>
 6    0  0.1576925E-007  0.4596211E+03  0.7546771E-02  0.1024891E+00
         21   -1    0    0  502  501  0.00000000000E+00  0.00000000000E+00  0.49194014493E+03  0.49194014493E+03  0.00000000000E+00 0. -1.
         21   -1    0    0  501  502 -0.00000000000E+00 -0.00000000000E+00 -0.10735630827E+03  0.10735630827E+03  0.00000000000E+00 0. -1.
      99926    2    1    2    0    0  0.00000000000E+00 -0.88817841970E-15  0.38458383666E+03  0.59929645320E+03  0.45962105195E+03 0.  0.
         25    1    3    3    0    0  0.73519239018E+02  0.37927490121E+02  0.69478077842E+02  0.16528243831E+03  0.12509000000E+03 0.  0.
         25    1    3    3    0    0 -0.93884222856E+02  0.77422498313E+01  0.12174290245E+03  0.19835078052E+03  0.12509000000E+03 0.  0.
         25    1    3    3    0    0  0.20364983838E+02 -0.45669739952E+02  0.19336285636E+03  0.23566323437E+03  0.12509000000E+03 0.  0.
<mgrwt>
<rscale>  2 0.45962105E+03</rscale>
<asrwt>0</asrwt>
<pdfrwt beam="1">  1       21 0.72344138E-01 0.45962105E+03</pdfrwt>
<pdfrwt beam="2">  1       21 0.15787693E-01 0.45962105E+03</pdfrwt>
<totfact> 0.56625490E+04</totfact>
</mgrwt>
</event>
<event>
 6    0  0.1576925E-007  0.4555414E+03  0.7546771E-02  0.1026082E+00
         21   -1    0    0  502  501  0.00000000000E+00  0.00000000000E+00  0.10667396373E+03  0.10667396373E+03  0.00000000000E+00 0.  1.
         21   -1    0    0  501  502 -0.00000000000E+00 -0.00000000000E+00 -0.48633702949E+03  0.48633702949E+03  0.00000000000E+00 0.  1.
      99926    2    1    2    0    0 -0.77715611724E-15  0.00000000000E+00 -0.37966306576E+03  0.59301099322E+03  0.45554143014E+03 0.  0.
         25    1    3    3    0    0 -0.75232216785E+02 -0.37301964751E+02 -0.73135417766E+02  0.16747423816E+03  0.12509000000E+03 0.  0.
         25    1    3    3    0    0  0.98385246901E+00  0.44624355031E+02 -0.21746249291E+03  0.25481315694E+03  0.12509000000E+03 0.  0.
         25    1    3    3    0    0  0.74248364316E+02 -0.73223902794E+01 -0.89065155085E+02  0.17072359812E+03  0.12509000000E+03 0.  0.
<mgrwt>
<rscale>  2 0.45554143E+03</rscale>
<asrwt>0</asrwt>
<pdfrwt beam="1">  1       21 0.15687348E-01 0.45554143E+03</pdfrwt>
<pdfrwt beam="2">  1       21 0.71520151E-01 0.45554143E+03</pdfrwt>
<totfact> 0.58858282E+04</totfact>
</mgrwt>
</event>
<event>
 6    0  0.1576925E-007  0.4575628E+03  0.7546771E-02  0.1025490E+00
         21   -1    0    0  502  501  0.00000000000E+00  0.00000000000E+00  0.37275374413E+03  0.37275374413E+03  0.00000000000E+00 0.  1.
         21   -1    0    0  501  502 -0.00000000000E+00 -0.00000000000E+00 -0.14041691856E+03  0.14041691856E+03  0.00000000000E+00 0.  1.
      99926    2    1    2    0    0  0.00000000000E+00  0.17763568394E-14  0.23233682557E+03  0.51317066268E+03  0.45756281374E+03 0.  0.
         25    1    3    3    0    0 -0.50689358526E+02  0.15482233554E+02  0.83528861490E+02  0.15947943261E+03  0.12509000000E+03 0.  0.
         25    1    3    3    0    0  0.97069363710E+02  0.52622717809E+02  0.49748390311E+02  0.17410922503E+03  0.12509000000E+03 0.  0.
         25    1    3    3    0    0 -0.46380005184E+02 -0.68104951363E+02  0.99059573769E+02  0.17958200505E+03  0.12509000000E+03 0.  0.
<mgrwt>
<rscale>  2 0.45756281E+03</rscale>
<asrwt>0</asrwt>
<pdfrwt beam="1">  1       21 0.54816727E-01 0.45756281E+03</pdfrwt>
<pdfrwt beam="2">  1       21 0.20649547E-01 0.45756281E+03</pdfrwt>
<totfact> 0.63062563E+04</totfact>
</mgrwt>
</event>
<event>
 6    0  0.1576925E-007  0.4515639E+03  0.7546771E-02  0.1027257E+00
         21   -1    0    0  502  501  0.00000000000E+00  0.00000000000E+00  0.39720181194E+02  0.39720181194E+02  0.00000000000E+00 0. -1.
         21   -1    0    0  501  502 -0.00000000000E+00 -0.00000000000E+00 -0.12834151469E+04  0.12834151469E+04  0.00000000000E+00 0. -1.
      99926    2    1    2    0    0  0.71054273576E-14  0.14210854715E-13 -0.12436949657E+04  0.13231353281E+04  0.45156387005E+03 0.  0.
         25    1    3    3    0    0  0.89728416605E+01  0.39026645632E+02 -0.17301693918E+03  0.21722329595E+03  0.12509000000E+03 0.  0.
         25    1    3    3    0    0 -0.32464006453E+02 -0.64780779309E+02 -0.63771440756E+03  0.65389420764E+03  0.12509000000E+03 0.  0.
         25    1    3    3    0    0  0.23491164792E+02  0.25754133677E+02 -0.43296361901E+03  0.45201782455E+03  0.12509000000E+03 0.  0.
<mgrwt>
<rscale>  2 0.45156387E+03</rscale>
<asrwt>0</asrwt>
<pdfrwt beam="1">  1       21 0.58412041E-02 0.45156387E+03</pdfrwt>
<pdfrwt beam="2">  1       21 0.18873749E+00 0.45156387E+03</pdfrwt>
<totfact> 0.29223204E+04</totfact>
</mgrwt>
</event>
<event>
 6    0  0.1576925E-007  0.4530426E+03  0.7546771E-02  0.1026819E+00
         21   -1    0    0  502  501  0.00000000000E+00  0.00000000000E+00  0.15934648097E+04  0.15934648097E+04  0.00000000000E+00 0.  1.
         21   -1    0    0  501  502 -0.00000000000E+00 -0.00000000000E+00 -0.32201468890E+02  0.32201468890E+02  0.00000000000E+00 0.  1.
      99926    2    1    2    0    0  0.00000000000E+00  0.00000000000E+00  0.15612633408E+04  0.16256662786E+04  0.45304263595E+03 0.  0.
         25    1    3    3    0    0  0.53192363150E+02 -0.83504577357E+02  0.45153901414E+03  0.47889187853E+03  0.12509000000E+03 0.  0.
         25    1    3    3    0    0 -0.65372263886E+02  0.69506940911E+02  0.72222213196E+03  0.73915970109E+03  0.12509000000E+03 0.  0.
         25    1    3    3    0    0  0.12179900737E+02  0.13997636446E+02  0.38750219473E+03  0.40761469899E+03  0.12509000000E+03 0.  0.
<mgrwt>
<rscale>  2 0.45304264E+03</rscale>
<asrwt>0</asrwt>
<pdfrwt beam="1">  1       21 0.23433301E+00 0.45304264E+03</pdfrwt>
<pdfrwt beam="2">  1       21 0.47355112E-02 0.45304264E+03</pdfrwt>
<totfact> 0.21175967E+04</totfact>
</mgrwt>
</event>
<event>
 6    0  0.1576925E-007  0.4514728E+03  0.7546771E-02  0.1027284E+00
         21   -1    0    0  502  501  0.00000000000E+00  0.00000000000E+00  0.99558300036E+02  0.99558300036E+02  0.00000000000E+00 0. -1.
         21   -1    0    0  501  502 -0.00000000000E+00 -0.00000000000E+00 -0.51183002767E+03  0.51183002767E+03  0.00000000000E+00 0. -1.
      99926    2    1    2    0    0  0.00000000000E+00 -0.35527136788E-14 -0.41227172764E+03  0.61138832771E+03  0.45147282294E+03 0.  0.
         25    1    3    3    0    0  0.80655571292E+02  0.82759473917E+01 -0.20851256953E+03  0.25631779540E+03  0.12509000000E+03 0.  0.
         25    1    3    3    0    0 -0.39394933023E+02  0.52294060755E+02 -0.69051533812E+02  0.15716950073E+03  0.12509000000E+03 0.  0.
         25    1    3    3    0    0 -0.41260638269E+02 -0.60570008147E+02 -0.13470762430E+03  0.19790103158E+03  0.12509000000E+03 0.  0.
<mgrwt>
<rscale>  2 0.45147282E+03</rscale>
<asrwt>0</asrwt>
<pdfrwt beam="1">  1       21 0.14640926E-01 0.45147282E+03</pdfrwt>
<pdfrwt beam="2">  1       21 0.75269122E-01 0.45147282E+03</pdfrwt>
<totfact> 0.59626574E+04</totfact>
</mgrwt>
</event>
<event>
 6    0  0.1576925E-007  0.4579356E+03  0.7546771E-02  0.1025382E+00
         21   -1    0    0  502  501  0.00000000000E+00  0.00000000000E+00  0.14506205236E+03  0.14506205236E+03  0.00000000000E+00 0.  1.
         21   -1    0    0  501  502 -0.00000000000E+00 -0.00000000000E+00 -0.36140568997E+03  0.36140568997E+03  0.00000000000E+00 0.  1.
      99926    2    1    2    0    0  0.00000000000E+00  0.26645352591E-14 -0.21634363762E+03  0.50646774233E+03  0.45793558988E+03 0.  0.
         25    1    3    3    0    0  0.83130274335E+02 -0.60669542184E+01 -0.17768335507E+02  0.15136271764E+03  0.12509000000E+03 0.  0.
         25    1    3    3    0    0  0.17361787242E+01 -0.47566378478E+02 -0.84522515422E+02  0.15829446734E+03  0.12509000000E+03 0.  0.
         25    1    3    3    0    0 -0.84866453059E+02  0.53633332697E+02 -0.11405278669E+03  0.19681055734E+03  0.12509000000E+03 0.  0.
<mgrwt>
<rscale>  2 0.45793559E+03</rscale>
<asrwt>0</asrwt>
<pdfrwt beam="1">  1       21 0.21332655E-01 0.45793559E+03</pdfrwt>
<pdfrwt beam="2">  1       21 0.53147894E-01 0.45793559E+03</pdfrwt>
<totfact> 0.63330080E+04</totfact>
</mgrwt>
</event>
<event>
 6    0  0.1576925E-007  0.4748187E+03  0.7546771E-02  0.1020569E+00
         21   -1    0    0  502  501  0.00000000000E+00  0.00000000000E+00  0.17180965074E+03  0.17180965074E+03  0.00000000000E+00 0. -1.
         21   -1    0    0  501  502 -0.00000000000E+00 -0.00000000000E+00 -0.32805613215E+03  0.32805613215E+03  0.00000000000E+00 0. -1.
      99926    2    1    2    0    0  0.00000000000E+00 -0.14210854715E-13 -0.15624648141E+03  0.49986578289E+03  0.47481874221E+03 0.  0.
         25    1    3    3    0    0 -0.22450871343E+02 -0.27826996358E+02 -0.32350003153E+02  0.13406123285E+03  0.12509000000E+03 0.  0.
         25    1    3    3    0    0 -0.68535816975E+02  0.89932627978E+02 -0.21006186259E+02  0.16992293472E+03  0.12509000000E+03 0.  0.
         25    1    3    3    0    0  0.90986688317E+02 -0.62105631620E+02 -0.10289029200E+03  0.19588161531E+03  0.12509000000E+03 0.  0.
<mgrwt>
<rscale>  2 0.47481874E+03</rscale>
<asrwt>0</asrwt>
<pdfrwt beam="1">  1       21 0.25266125E-01 0.47481874E+03</pdfrwt>
<pdfrwt beam="2">  1       21 0.48243549E-01 0.47481874E+03</pdfrwt>
<totfact> 0.55946334E+04</totfact>
</mgrwt>
</event>
<event>
 6    0  0.1576925E-007  0.4567388E+03  0.7546771E-02  0.1025731E+00
         21   -1    0    0  502  501  0.00000000000E+00  0.00000000000E+00  0.87254565843E+02  0.87254565843E+02  0.00000000000E+00 0.  1.
         21   -1    0    0  501  502 -0.00000000000E+00 -0.00000000000E+00 -0.59770596236E+03  0.59770596236E+03  0.00000000000E+00 0.  1.
      99926    2    1    2    0    0  0.00000000000E+00  0.00000000000E+00 -0.51045139652E+03  0.68496052820E+03  0.45673876230E+03 0.  0.
         25    1    3    3    0    0 -0.33663087570E+02  0.45424787897E+01 -0.31961463489E+03  0.34489833359E+03  0.12509000000E+03 0.  0.
         25    1    3    3    0    0 -0.35561689479E+02 -0.30216231890E+02 -0.67992758391E+02  0.14982715949E+03  0.12509000000E+03 0.  0.
         25    1    3    3    0    0  0.69224777049E+02  0.25673753100E+02 -0.12284400324E+03  0.19023503512E+03  0.12509000000E+03 0.  0.
<mgrwt>
<rscale>  2 0.45673876E+03</rscale>
<asrwt>0</asrwt>
<pdfrwt beam="1">  1       21 0.12831554E-01 0.45673876E+03</pdfrwt>
<pdfrwt beam="2">  1       21 0.87897937E-01 0.45673876E+03</pdfrwt>
<totfact> 0.52998113E+04</totfact>
</mgrwt>
</event>
<event>
 6    0  0.1576925E-007  0.4510942E+03  0.7546771E-02  0.1027396E+00
         21   -1    0    0  502  501  0.00000000000E+00  0.00000000000E+00  0.26900720527E+02  0.26900720527E+02  0.00000000000E+00 0. -1.
         21   -1    0    0  501  502 -0.00000000000E+00 -0.00000000000E+00 -0.18910832517E+04  0.18910832517E+04  0.00000000000E+00 0. -1.
      99926    2    1    2    0    0  0.00000000000E+00  0.44408920985E-14 -0.18641825311E+04  0.19179839722E+04  0.45109423426E+03 0.  0.
         25    1    3    3    0    0  0.12729714884E+02  0.67728951717E+02 -0.96175221386E+03  0.97229835210E+03  0.12509000000E+03 0.  0.
         25    1    3    3    0    0  0.33044975310E+02  0.21995208592E+01 -0.48529593465E+03  0.50225139181E+03  0.12509000000E+03 0.  0.
         25    1    3    3    0    0 -0.45774690194E+02 -0.69928472576E+02 -0.41713438264E+03  0.44343422829E+03  0.12509000000E+03 0.  0.
<mgrwt>
<rscale>  2 0.45109423E+03</rscale>
<asrwt>0</asrwt>
<pdfrwt beam="1">  1       21 0.39559874E-02 0.45109423E+03</pdfrwt>
<pdfrwt beam="2">  1       21 0.27810054E+00 0.45109423E+03</pdfrwt>
<totfact> 0.15561732E+04</totfact>
</mgrwt>
</event>
<event>
 6    0  0.1576925E-007  0.4591861E+03  0.7546771E-02  0.1025018E+00
         21   -1    0    0  502  501  0.00000000000E+00  0.00000000000E+00  0.12483959226E+03  0.12483959226E+03  0.00000000000E+00 0.  1.
         21   -1    0    0  501  502 -0.00000000000E+00 -0.00000000000E+00 -0.42224562559E+03  0.42224562559E+03  0.00000000000E+00 0.  1.
      99926    2    1    2    0    0  0.00000000000E+00  0.71054273576E-14 -0.29740603333E+03  0.54708521785E+03  0.45918611361E+03 0.  0.
         25    1    3    3    0    0 -0.56521368422E+02  0.36841824949E+02 -0.10635001592E+03  0.17751005363E+03  0.12509000000E+03 0.  0.
         25    1    3    3    0    0 -0.19646396205E+02 -0.17138808938E+01 -0.17793335955E+03  0.21839575732E+03  0.12509000000E+03 0.  0.
         25    1    3    3    0    0  0.76167764627E+02 -0.35127944055E+02 -0.13122657848E+02  0.15117940690E+03  0.12509000000E+03 0.  0.
<mgrwt>
<rscale>  2 0.45918611E+03</rscale>
<asrwt>0</asrwt>
<pdfrwt beam="1">  1       21 0.18358763E-01 0.45918611E+03</pdfrwt>
<pdfrwt beam="2">  1       21 0.62094946E-01 0.45918611E+03</pdfrwt>
<totfact> 0.60045788E+04</totfact>
</mgrwt>
</event>
<event>
 6    0  0.1576925E-007  0.4574171E+03  0.7546771E-02  0.1025533E+00
         21   -1    0    0  502  501  0.00000000000E+00  0.00000000000E+00  0.21514311301E+03  0.21514311301E+03  0.00000000000E+00 0.  1.
         21   -1    0    0  501  502 -0.00000000000E+00 -0.00000000000E+00 -0.24312933312E+03  0.24312933312E+03  0.00000000000E+00 0.  1.
      99926    2    1    2    0    0 -0.31086244690E-14  0.00000000000E+00 -0.27986220109E+02  0.45827244613E+03  0.45741710327E+03 0.  0.
         25    1    3    3    0    0 -0.31761834674E+01 -0.80963103639E+02  0.13083076328E+02  0.14961212277E+03  0.12509000000E+03 0.  0.
         25    1    3    3    0    0 -0.60293921859E+02  0.19850811499E+02  0.24143802091E+02  0.14233707532E+03  0.12509000000E+03 0.  0.
         25    1    3    3    0    0  0.63470105327E+02  0.61112292141E+02 -0.65213098527E+02  0.16632324805E+03  0.12509000000E+03 0.  0.
<mgrwt>
<rscale>  2 0.45741710E+03</rscale>
<asrwt>0</asrwt>
<pdfrwt beam="1">  1       21 0.31638693E-01 0.45741710E+03</pdfrwt>
<pdfrwt beam="2">  1       21 0.35754314E-01 0.45741710E+03</pdfrwt>
<totfact> 0.67005163E+04</totfact>
</mgrwt>
</event>
<event>
 6    0  0.1576925E-007  0.4573071E+03  0.7546771E-02  0.1025565E+00
         21   -1    0    0  502  501  0.00000000000E+00  0.00000000000E+00  0.44827128617E+03  0.44827128617E+03  0.00000000000E+00 0. -1.
         21   -1    0    0  501  502 -0.00000000000E+00 -0.00000000000E+00 -0.11663124257E+03  0.11663124257E+03  0.00000000000E+00 0. -1.
      99926    2    1    2    0    0  0.53290705182E-14  0.00000000000E+00  0.33164004360E+03  0.56490252874E+03  0.45730706145E+03 0.  0.
         25    1    3    3    0    0  0.49004648518E+02  0.31379972617E+02  0.18731585515E+03  0.23263898201E+03  0.12509000000E+03 0.  0.
         25    1    3    3    0    0 -0.62215946751E+02  0.23561209935E+02  0.12962099478E+02  0.14227255099E+03  0.12509000000E+03 0.  0.
         25    1    3    3    0    0  0.13211298233E+02 -0.54941182552E+02  0.13136208897E+03  0.18999099573E+03  0.12509000000E+03 0.  0.
<mgrwt>
<rscale>  2 0.45730706E+03</rscale>
<asrwt>0</asrwt>
<pdfrwt beam="1">  1       21 0.65922247E-01 0.45730706E+03</pdfrwt>
<pdfrwt beam="2">  1       21 0.17151653E-01 0.45730706E+03</pdfrwt>
<totfact> 0.59793838E+04</totfact>
</mgrwt>
</event>
<event>
 6    0  0.1576925E-007  0.4547790E+03  0.7546771E-02  0.1026306E+00
         21   -1    0    0  502  501  0.00000000000E+00  0.00000000000E+00  0.12073337916E+03  0.12073337916E+03  0.00000000000E+00 0.  1.
         21   -1    0    0  501  502 -0.00000000000E+00 -0.00000000000E+00 -0.42826594782E+03  0.42826594782E+03  0.00000000000E+00 0.  1.
      99926    2    1    2    0    0  0.00000000000E+00 -0.88817841970E-15 -0.30753256866E+03  0.54899932698E+03  0.45477904552E+03 0.  0.
         25    1    3    3    0    0  0.32606863886E+02  0.52362693656E+02 -0.80197010765E+02  0.16088544961E+03  0.12509000000E+03 0.  0.
         25    1    3    3    0    0 -0.91013991372E+02 -0.32369544963E+01 -0.60692187139E+02  0.16620792454E+03  0.12509000000E+03 0.  0.
         25    1    3    3    0    0  0.58407127486E+02 -0.49125739160E+02 -0.16664337075E+03  0.22190595284E+03  0.12509000000E+03 0.  0.
<mgrwt>
<rscale>  2 0.45477905E+03</rscale>
<asrwt>0</asrwt>
<pdfrwt beam="1">  1       21 0.17754909E-01 0.45477905E+03</pdfrwt>
<pdfrwt beam="2">  1       21 0.62980287E-01 0.45477905E+03</pdfrwt>
<totfact> 0.62041075E+04</totfact>
</mgrwt>
</event>
<event>
 6    0  0.1576925E-007  0.4619350E+03  0.7546771E-02  0.1024222E+00
         21   -1    0    0  502  501  0.00000000000E+00  0.00000000000E+00  0.18430402939E+04  0.18430402939E+04  0.00000000000E+00 0. -1.
         21   -1    0    0  501  502 -0.00000000000E+00 -0.00000000000E+00 -0.28944554312E+02  0.28944554312E+02  0.00000000000E+00 0. -1.
      99926    2    1    2    0    0 -0.71054273576E-14  0.00000000000E+00  0.18140957396E+04  0.18719848483E+04  0.46193497329E+03 0.  0.
         25    1    3    3    0    0  0.73373036037E+02  0.80512235711E+02  0.61187223907E+03  0.63395659754E+03  0.12509000000E+03 0.  0.
         25    1    3    3    0    0 -0.12432263490E+02 -0.46963561172E+02  0.79817460083E+03  0.80937651236E+03  0.12509000000E+03 0.  0.
         25    1    3    3    0    0 -0.60940772546E+02 -0.33548674539E+02  0.40404889974E+03  0.42865173836E+03  0.12509000000E+03 0.  0.
<mgrwt>
<rscale>  2 0.46193497E+03</rscale>
<asrwt>0</asrwt>
<pdfrwt beam="1">  1       21 0.27103526E+00 0.46193497E+03</pdfrwt>
<pdfrwt beam="2">  1       21 0.42565533E-02 0.46193497E+03</pdfrwt>
<totfact> 0.15086169E+04</totfact>
</mgrwt>
</event>
<event>
 6    0  0.1735608E-007  0.4332679E+03  0.7546771E-02  0.1032833E+00
         21   -1    0    0  502  501  0.00000000000E+00  0.00000000000E+00  0.22589297422E+03  0.22589297422E+03  0.00000000000E+00 0. -1.
         21   -1    0    0  501  502 -0.00000000000E+00 -0.00000000000E+00 -0.20775448194E+03  0.20775448194E+03  0.00000000000E+00 0. -1.
      99926    2    1    2    0    0  0.11102230246E-14  0.00000000000E+00  0.18138492278E+02  0.43364745617E+03  0.43326794404E+03 0.  0.
         25    1    3    3    0    0 -0.64399862884E+02 -0.28199917937E+02  0.30789977635E+02  0.14675867448E+03  0.12509000000E+03 0.  0.
         25    1    3    3    0    0  0.63191312955E+02 -0.11647528810E+02  0.38792573638E+02  0.14588070068E+03  0.12509000000E+03 0.  0.
         25    1    3    3    0    0  0.12085499291E+01  0.39847446747E+02 -0.51444058995E+02  0.14100808101E+03  0.12509000000E+03 0.  0.
<mgrwt>
<rscale>  2 0.43326794E+03</rscale>
<asrwt>0</asrwt>
<pdfrwt beam="1">  1       21 0.33219555E-01 0.43326794E+03</pdfrwt>
<pdfrwt beam="2">  1       21 0.30552130E-01 0.43326794E+03</pdfrwt>
<totfact> 0.83745438E+04</totfact>
</mgrwt>
</event>
<event>
 6    0  0.1576925E-007  0.4529621E+03  0.7546771E-02  0.1026842E+00
         21   -1    0    0  502  501  0.00000000000E+00  0.00000000000E+00  0.13615769588E+03  0.13615769588E+03  0.00000000000E+00 0. -1.
         21   -1    0    0  501  502 -0.00000000000E+00 -0.00000000000E+00 -0.37672257112E+03  0.37672257112E+03  0.00000000000E+00 0. -1.
      99926    2    1    2    0    0 -0.14210854715E-13  0.00000000000E+00 -0.24056487524E+03  0.51288026700E+03  0.45296214972E+03 0.  0.
         25    1    3    3    0    0 -0.65743515055E+02  0.39929889276E+02 -0.37406305763E+02  0.15153661485E+03  0.12509000000E+03 0.  0.
         25    1    3    3    0    0  0.67108296220E+02  0.11522600514E+02 -0.17056344060E+03  0.22220641106E+03  0.12509000000E+03 0.  0.
         25    1    3    3    0    0 -0.13647811643E+01 -0.51452489789E+02 -0.32595128878E+02  0.13913724110E+03  0.12509000000E+03 0.  0.
<mgrwt>
<rscale>  2 0.45296215E+03</rscale>
<asrwt>0</asrwt>
<pdfrwt beam="1">  1       21 0.20023191E-01 0.45296215E+03</pdfrwt>
<pdfrwt beam="2">  1       21 0.55400377E-01 0.45296215E+03</pdfrwt>
<totfact> 0.65426559E+04</totfact>
</mgrwt>
</event>
<event>
 6    0  0.1576925E-007  0.4630526E+03  0.7546771E-02  0.1023900E+00
         21   -1    0    0  502  501  0.00000000000E+00  0.00000000000E+00  0.16888948302E+03  0.16888948302E+03  0.00000000000E+00 0.  1.
         21   -1    0    0  501  502 -0.00000000000E+00 -0.00000000000E+00 -0.31739353702E+03  0.31739353702E+03  0.00000000000E+00 0.  1.
      99926    2    1    2    0    0  0.14210854715E-13  0.00000000000E+00 -0.14850405400E+03  0.48628302004E+03  0.46305261205E+03 0.  0.
         25    1    3    3    0    0 -0.78299664874E+02  0.93531952245E+02 -0.78358436067E+02  0.19148528981E+03  0.12509000000E+03 0.  0.
         25    1    3    3    0    0  0.15650595673E+02 -0.62767465808E+02 -0.16297606024E+02  0.14176676610E+03  0.12509000000E+03 0.  0.
         25    1    3    3    0    0  0.62649069201E+02 -0.30764486436E+02 -0.53848011906E+02  0.15303096413E+03  0.12509000000E+03 0.  0.
<mgrwt>
<rscale>  2 0.46305261E+03</rscale>
<asrwt>0</asrwt>
<pdfrwt beam="1">  1       21 0.24836689E-01 0.46305261E+03</pdfrwt>
<pdfrwt beam="2">  1       21 0.46675519E-01 0.46305261E+03</pdfrwt>
<totfact> 0.62175228E+04</totfact>
</mgrwt>
</event>
<event>
 6    0  0.1576925E-007  0.4526909E+03  0.7546771E-02  0.1026923E+00
         21   -1    0    0  502  501  0.00000000000E+00  0.00000000000E+00  0.12269493407E+03  0.12269493407E+03  0.00000000000E+00 0.  1.
         21   -1    0    0  501  502 -0.00000000000E+00 -0.00000000000E+00 -0.41755805030E+03  0.41755805030E+03  0.00000000000E+00 0.  1.
      99926    2    1    2    0    0  0.71054273576E-14  0.14210854715E-13 -0.29486311622E+03  0.54025298437E+03  0.45269087666E+03 0.  0.
         25    1    3    3    0    0  0.47903211864E+02 -0.11519035719E+02 -0.10857735151E+03  0.17281190714E+03  0.12509000000E+03 0.  0.
         25    1    3    3    0    0 -0.58520038468E+02  0.89898962374E+02 -0.12684858435E+03  0.20795309517E+03  0.12509000000E+03 0.  0.
         25    1    3    3    0    0  0.10616826603E+02 -0.78379926655E+02 -0.59437180364E+02  0.15948798205E+03  0.12509000000E+03 0.  0.
<mgrwt>
<rscale>  2 0.45269088E+03</rscale>
<asrwt>0</asrwt>
<pdfrwt beam="1">  1       21 0.18043372E-01 0.45269088E+03</pdfrwt>
<pdfrwt beam="2">  1       21 0.61405597E-01 0.45269088E+03</pdfrwt>
<totfact> 0.63670802E+04</totfact>
</mgrwt>
</event>
<event>
 6    0  0.1576925E-007  0.4537035E+03  0.7546771E-02  0.1026623E+00
         21   -1    0    0  502  501  0.00000000000E+00  0.00000000000E+00  0.73480321874E+02  0.73480321874E+02  0.00000000000E+00 0. -1.
         21   -1    0    0  501  502 -0.00000000000E+00 -0.00000000000E+00 -0.70034687653E+03  0.70034687653E+03  0.00000000000E+00 0. -1.
      99926    2    1    2    0    0 -0.10658141036E-13  0.00000000000E+00 -0.62686655466E+03  0.77382719841E+03  0.45370348869E+03 0.  0.
         25    1    3    3    0    0 -0.67895133985E+02  0.14762197812E+02 -0.26837999650E+03  0.30414306227E+03  0.12509000000E+03 0.  0.
         25    1    3    3    0    0  0.23179533974E+02  0.42342605188E+02 -0.80635059367E+02  0.15645992429E+03  0.12509000000E+03 0.  0.
         25    1    3    3    0    0  0.44715600011E+02 -0.57104803000E+02 -0.27785149879E+03  0.31322421185E+03  0.12509000000E+03 0.  0.
<mgrwt>
<rscale>  2 0.45370349E+03</rscale>
<asrwt>0</asrwt>
<pdfrwt beam="1">  1       21 0.10805929E-01 0.45370349E+03</pdfrwt>
<pdfrwt beam="2">  1       21 0.10299219E+00 0.45370349E+03</pdfrwt>
<totfact> 0.49559272E+04</totfact>
</mgrwt>
</event>
<event>
 6    0  0.1576925E-007  0.4529647E+03  0.7546771E-02  0.1026842E+00
         21   -1    0    0  502  501  0.00000000000E+00  0.00000000000E+00  0.42695315557E+03  0.42695315557E+03  0.00000000000E+00 0. -1.
         21   -1    0    0  501  502 -0.00000000000E+00 -0.00000000000E+00 -0.12014022805E+03  0.12014022805E+03  0.00000000000E+00 0. -1.
      99926    2    1    2    0    0  0.00000000000E+00  0.00000000000E+00  0.30681292752E+03  0.54709338362E+03  0.45296467622E+03 0.  0.
         25    1    3    3    0    0 -0.59823293389E+02  0.26106021029E+02  0.11857704255E+03  0.18430511085E+03  0.12509000000E+03 0.  0.
         25    1    3    3    0    0  0.32578715063E+02 -0.23464595129E+02 -0.44312915847E+01  0.13145000702E+03  0.12509000000E+03 0.  0.
         25    1    3    3    0    0  0.27244578326E+02 -0.26414258997E+01  0.19266717656E+03  0.23133826575E+03  0.12509000000E+03 0.  0.
<mgrwt>
<rscale>  2 0.45296468E+03</rscale>
<asrwt>0</asrwt>
<pdfrwt beam="1">  1       21 0.62787228E-01 0.45296468E+03</pdfrwt>
<pdfrwt beam="2">  1       21 0.17667681E-01 0.45296468E+03</pdfrwt>
<totfact> 0.63068555E+04</totfact>
</mgrwt>
</event>
<event>
 6    0  0.1576925E-007  0.4671739E+03  0.7546771E-02  0.1022721E+00
         21   -1    0    0  502  501  0.00000000000E+00  0.00000000000E+00  0.10982003847E+03  0.10982003847E+03  0.00000000000E+00 0. -1.
         21   -1    0    0  501  502 -0.00000000000E+00 -0.00000000000E+00 -0.49683879757E+03  0.49683879757E+03  0.00000000000E+00 0. -1.
      99926    2    1    2    0    0  0.00000000000E+00  0.00000000000E+00 -0.38701875909E+03  0.60665883604E+03  0.46717386855E+03 0.  0.
         25    1    3    3    0    0 -0.63950094991E+02  0.84639514805E+01 -0.20941615730E+03  0.25231703898E+03  0.12509000000E+03 0.  0.
         25    1    3    3    0    0  0.64402739072E+02  0.41405919701E+02 -0.16239738905E+03  0.21882089264E+03  0.12509000000E+03 0.  0.
         25    1    3    3    0    0 -0.45264408077E+00 -0.49869871181E+02 -0.15205212746E+02  0.13552090441E+03  0.12509000000E+03 0.  0.
<mgrwt>
<rscale>  2 0.46717387E+03</rscale>
<asrwt>0</asrwt>
<pdfrwt beam="1">  1       21 0.16150006E-01 0.46717387E+03</pdfrwt>
<pdfrwt beam="2">  1       21 0.73064527E-01 0.46717387E+03</pdfrwt>
<totfact> 0.52987267E+04</totfact>
</mgrwt>
</event>
<event>
 6    0  0.1576925E-007  0.4529772E+03  0.7546771E-02  0.1026838E+00
         21   -1    0    0  502  501  0.00000000000E+00  0.00000000000E+00  0.26018146975E+03  0.26018146975E+03  0.00000000000E+00 0.  1.
         21   -1    0    0  501  502 -0.00000000000E+00 -0.00000000000E+00 -0.19715885180E+03  0.19715885180E+03  0.00000000000E+00 0.  1.
      99926    2    1    2    0    0 -0.31086244690E-14  0.00000000000E+00  0.63022617950E+02  0.45734032155E+03  0.45297717309E+03 0.  0.
         25    1    3    3    0    0  0.88587065883E+02  0.25437950656E+02  0.17461268560E+02  0.15635588117E+03  0.12509000000E+03 0.  0.
         25    1    3    3    0    0 -0.29786542819E+01 -0.37824534003E+02  0.67846057672E+02  0.14727580723E+03  0.12509000000E+03 0.  0.
         25    1    3    3    0    0 -0.85608411601E+02  0.12386583347E+02 -0.22284708282E+02  0.15370863316E+03  0.12509000000E+03 0.  0.
<mgrwt>
<rscale>  2 0.45297717E+03</rscale>
<asrwt>0</asrwt>
<pdfrwt beam="1">  1       21 0.38261981E-01 0.45297717E+03</pdfrwt>
<pdfrwt beam="2">  1       21 0.28993949E-01 0.45297717E+03</pdfrwt>
<totfact> 0.69489059E+04</totfact>
</mgrwt>
</event>
<event>
 6    0  0.1576925E-007  0.4517092E+03  0.7546771E-02  0.1027214E+00
         21   -1    0    0  502  501  0.00000000000E+00  0.00000000000E+00  0.54474381178E+02  0.54474381178E+02  0.00000000000E+00 0.  1.
         21   -1    0    0  501  502 -0.00000000000E+00 -0.00000000000E+00 -0.93640914086E+03  0.93640914086E+03  0.00000000000E+00 0.  1.
      99926    2    1    2    0    0 -0.17763568394E-14  0.71054273576E-14 -0.88193475968E+03  0.99088352204E+03  0.45170923602E+03 0.  0.
         25    1    3    3    0    0  0.23763004814E+02  0.95693415522E+02 -0.32170918707E+03  0.35897941350E+03  0.12509000000E+03 0.  0.
         25    1    3    3    0    0  0.55345055855E+01 -0.60548529746E+02 -0.40031312187E+03  0.42378633631E+03  0.12509000000E+03 0.  0.
         25    1    3    3    0    0 -0.29297510400E+02 -0.35144885776E+02 -0.15991245074E+03  0.20811777222E+03  0.12509000000E+03 0.  0.
<mgrwt>
<rscale>  2 0.45170924E+03</rscale>
<asrwt>0</asrwt>
<pdfrwt beam="1">  1       21 0.80109384E-02 0.45170924E+03</pdfrwt>
<pdfrwt beam="2">  1       21 0.13770723E+00 0.45170924E+03</pdfrwt>
<totfact> 0.40555647E+04</totfact>
</mgrwt>
</event>
<event>
 6    0  0.1576925E-007  0.4669093E+03  0.7546771E-02  0.1022796E+00
         21   -1    0    0  502  501  0.00000000000E+00  0.00000000000E+00  0.46960912412E+02  0.46960912412E+02  0.00000000000E+00 0.  1.
         21   -1    0    0  501  502 -0.00000000000E+00 -0.00000000000E+00 -0.11605623915E+04  0.11605623915E+04  0.00000000000E+00 0.  1.
      99926    2    1    2    0    0  0.35527136788E-14  0.35527136788E-14 -0.11136014790E+04  0.12075233039E+04  0.46690927947E+03 0.  0.
         25    1    3    3    0    0  0.23655424273E+02  0.83734854538E+02 -0.65580402609E+03  0.67327374350E+03  0.12509000000E+03 0.  0.
         25    1    3    3    0    0  0.53073259845E+01 -0.25452561955E+02 -0.15997594910E+03  0.20473351706E+03  0.12509000000E+03 0.  0.
         25    1    3    3    0    0 -0.28962750258E+02 -0.58282292583E+02 -0.29782150386E+03  0.32951604330E+03  0.12509000000E+03 0.  0.
<mgrwt>
<rscale>  2 0.46690928E+03</rscale>
<asrwt>0</asrwt>
<pdfrwt beam="1">  1       21 0.69060171E-02 0.46690928E+03</pdfrwt>
<pdfrwt beam="2">  1       21 0.17067093E+00 0.46690928E+03</pdfrwt>
<totfact> 0.29121628E+04</totfact>
</mgrwt>
</event>
<event>
 6    0  0.1576925E-007  0.4572585E+03  0.7546771E-02  0.1025579E+00
         21   -1    0    0  502  501  0.00000000000E+00  0.00000000000E+00  0.49359049170E+03  0.49359049170E+03  0.00000000000E+00 0.  1.
         21   -1    0    0  501  502 -0.00000000000E+00 -0.00000000000E+00 -0.10590019756E+03  0.10590019756E+03  0.00000000000E+00 0.  1.
      99926    2    1    2    0    0  0.00000000000E+00 -0.14210854715E-13  0.38769029413E+03  0.59949068926E+03  0.45725848526E+03 0.  0.
         25    1    3    3    0    0  0.68321597249E+02  0.90823695187E+02  0.15114332932E+03  0.22673464304E+03  0.12509000000E+03 0.  0.
         25    1    3    3    0    0  0.79050311078E+01 -0.28607201261E+02  0.96328096131E+02  0.16064704070E+03  0.12509000000E+03 0.  0.
         25    1    3    3    0    0 -0.76226628357E+02 -0.62216493926E+02  0.14021886869E+03  0.21210900552E+03  0.12509000000E+03 0.  0.
<mgrwt>
<rscale>  2 0.45725849E+03</rscale>
<asrwt>0</asrwt>
<pdfrwt beam="1">  1       21 0.72586836E-01 0.45725849E+03</pdfrwt>
<pdfrwt beam="2">  1       21 0.15573559E-01 0.45725849E+03</pdfrwt>
<totfact> 0.57673513E+04</totfact>
</mgrwt>
</event>
<event>
 6    0  0.1576925E-007  0.4610578E+03  0.7546771E-02  0.1024475E+00
         21   -1    0    0  502  501  0.00000000000E+00  0.00000000000E+00  0.49460285164E+03  0.49460285164E+03  0.00000000000E+00 0. -1.
         21   -1    0    0  501  502 -0.00000000000E+00 -0.00000000000E+00 -0.10744696251E+03  0.10744696251E+03  0.00000000000E+00 0. -1.
      99926    2    1    2    0    0  0.00000000000E+00  0.00000000000E+00  0.38715588913E+03  0.60204981415E+03  0.46105780140E+03 0.  0.
         25    1    3    3    0    0 -0.15598931879E+02 -0.25458152738E+02  0.12776460594E+03  0.18128085075E+03  0.12509000000E+03 0.  0.
         25    1    3    3    0    0 -0.77333885225E+02  0.76019102311E+02  0.10772709076E+03  0.19751472832E+03  0.12509000000E+03 0.  0.
         25    1    3    3    0    0  0.92932817103E+02 -0.50560949573E+02  0.15166419243E+03  0.22325423508E+03  0.12509000000E+03 0.  0.
<mgrwt>
<rscale>  2 0.46105780E+03</rscale>
<asrwt>0</asrwt>
<pdfrwt beam="1">  1       21 0.72735712E-01 0.46105780E+03</pdfrwt>
<pdfrwt beam="2">  1       21 0.15801024E-01 0.46105780E+03</pdfrwt>
<totfact> 0.55831640E+04</totfact>
</mgrwt>
</event>
<event>
 6    0  0.1576925E-007  0.4887703E+03  0.7546771E-02  0.1016752E+00
         21   -1    0    0  502  501  0.00000000000E+00  0.00000000000E+00  0.95454606120E+02  0.95454606120E+02  0.00000000000E+00 0. -1.
         21   -1    0    0  501  502 -0.00000000000E+00 -0.00000000000E+00 -0.62568077759E+03  0.62568077759E+03  0.00000000000E+00 0. -1.
      99926    2    1    2    0    0  0.00000000000E+00  0.00000000000E+00 -0.53022617147E+03  0.72113538371E+03  0.48877034354E+03 0.  0.
         25    1    3    3    0    0 -0.37609023673E+02  0.40350235485E+02 -0.33487207184E+03  0.36170345970E+03  0.12509000000E+03 0.  0.
         25    1    3    3    0    0  0.84160608338E+02  0.15240091412E+02 -0.13430691864E+03  0.20248734498E+03  0.12509000000E+03 0.  0.
         25    1    3    3    0    0 -0.46551584665E+02 -0.55590326897E+02 -0.61047180997E+02  0.15694457903E+03  0.12509000000E+03 0.  0.
<mgrwt>
<rscale>  2 0.48877034E+03</rscale>
<asrwt>0</asrwt>
<pdfrwt beam="1">  1       21 0.14037442E-01 0.48877034E+03</pdfrwt>
<pdfrwt beam="2">  1       21 0.92011879E-01 0.48877034E+03</pdfrwt>
<totfact> 0.40024164E+04</totfact>
</mgrwt>
</event>
<event>
 6    0  0.1576925E-007  0.4619838E+03  0.7546771E-02  0.1024207E+00
         21   -1    0    0  502  501  0.00000000000E+00  0.00000000000E+00  0.90493343670E+02  0.90493343670E+02  0.00000000000E+00 0.  1.
         21   -1    0    0  501  502 -0.00000000000E+00 -0.00000000000E+00 -0.58962634511E+03  0.58962634511E+03  0.00000000000E+00 0.  1.
      99926    2    1    2    0    0  0.00000000000E+00 -0.35527136788E-14 -0.49913300144E+03  0.68011968878E+03  0.46198380701E+03 0.  0.
         25    1    3    3    0    0 -0.60295001980E+02  0.16609274617E+02 -0.36612724607E+02  0.14456609205E+03  0.12509000000E+03 0.  0.
         25    1    3    3    0    0  0.46842639019E+02  0.14797358194E+02 -0.17943392002E+03  0.22418125344E+03  0.12509000000E+03 0.  0.
         25    1    3    3    0    0  0.13452362961E+02 -0.31406632811E+02 -0.28308635681E+03  0.31137234329E+03  0.12509000000E+03 0.  0.
<mgrwt>
<rscale>  2 0.46198381E+03</rscale>
<asrwt>0</asrwt>
<pdfrwt beam="1">  1       21 0.13307845E-01 0.46198381E+03</pdfrwt>
<pdfrwt beam="2">  1       21 0.86709757E-01 0.46198381E+03</pdfrwt>
<totfact> 0.51124019E+04</totfact>
</mgrwt>
</event>
<event>
 6    0  0.1576925E-007  0.4556603E+03  0.7546771E-02  0.1026047E+00
         21   -1    0    0  502  501  0.00000000000E+00  0.00000000000E+00  0.91108282313E+02  0.91108282313E+02  0.00000000000E+00 0.  1.
         21   -1    0    0  501  502 -0.00000000000E+00 -0.00000000000E+00 -0.56972399826E+03  0.56972399826E+03  0.00000000000E+00 0.  1.
      99926    2    1    2    0    0  0.00000000000E+00 -0.70776717820E-15 -0.47861571595E+03  0.66083228058E+03  0.45566028958E+03 0.  0.
         25    1    3    3    0    0 -0.16492274259E+01 -0.53608395289E+02 -0.20569593003E+03  0.24664732662E+03  0.12509000000E+03 0.  0.
         25    1    3    3    0    0 -0.66082817122E+02  0.53673643414E+02 -0.20952148242E+03  0.25844643238E+03  0.12509000000E+03 0.  0.
         25    1    3    3    0    0  0.67732044548E+02 -0.65248124903E-01 -0.63398303499E+02  0.15573852158E+03  0.12509000000E+03 0.  0.
<mgrwt>
<rscale>  2 0.45566029E+03</rscale>
<asrwt>0</asrwt>
<pdfrwt beam="1">  1       21 0.13398277E-01 0.45566029E+03</pdfrwt>
<pdfrwt beam="2">  1       21 0.83782940E-01 0.45566029E+03</pdfrwt>
<totfact> 0.54795349E+04</totfact>
</mgrwt>
</event>
<event>
 6    0  0.1660871E-007  0.4866895E+03  0.7546771E-02  0.1017313E+00
         21   -1    0    0  502  501  0.00000000000E+00  0.00000000000E+00  0.69270237870E+03  0.69270237870E+03  0.00000000000E+00 0.  1.
         21   -1    0    0  501  502 -0.00000000000E+00 -0.00000000000E+00 -0.85486440695E+02  0.85486440695E+02  0.00000000000E+00 0.  1.
      99926    2    1    2    0    0 -0.71054273576E-14  0.14210854715E-13  0.60721593801E+03  0.77818881940E+03  0.48668947314E+03 0.  0.
         25    1    3    3    0    0  0.17804077238E+02 -0.10305673109E+03  0.24610463064E+03  0.29521631444E+03  0.12509000000E+03 0.  0.
         25    1    3    3    0    0  0.65335910520E+02  0.71728500742E+02  0.12648434641E+03  0.20263157950E+03  0.12509000000E+03 0.  0.
         25    1    3    3    0    0 -0.83139987758E+02  0.31328230348E+02  0.23462696095E+03  0.28034092546E+03  0.12509000000E+03 0.  0.
<mgrwt>
<rscale>  2 0.48668947E+03</rscale>
<asrwt>0</asrwt>
<pdfrwt beam="1">  1       21 0.10186799E+00 0.48668947E+03</pdfrwt>
<pdfrwt beam="2">  1       21 0.12571536E-01 0.48668947E+03</pdfrwt>
<totfact> 0.38366691E+04</totfact>
</mgrwt>
</event>
<event>
 6    0  0.1576925E-007  0.4546274E+03  0.7546771E-02  0.1026351E+00
         21   -1    0    0  502  501  0.00000000000E+00  0.00000000000E+00  0.23253734865E+03  0.23253734865E+03  0.00000000000E+00 0. -1.
         21   -1    0    0  501  502 -0.00000000000E+00 -0.00000000000E+00 -0.22220740488E+03  0.22220740488E+03  0.00000000000E+00 0. -1.
      99926    2    1    2    0    0  0.00000000000E+00  0.88817841970E-15  0.10329943768E+02  0.45474475352E+03  0.45462741131E+03 0.  0.
         25    1    3    3    0    0  0.47968915828E+02 -0.16024368790E+02 -0.22474048063E+02  0.13678592112E+03  0.12509000000E+03 0.  0.
         25    1    3    3    0    0  0.72389881725E+01  0.13203178192E+02  0.10436805314E+03  0.16360600686E+03  0.12509000000E+03 0.  0.
         25    1    3    3    0    0 -0.55207904000E+02  0.28211905985E+01 -0.71564061313E+02  0.15435282554E+03  0.12509000000E+03 0.  0.
<mgrwt>
<rscale>  2 0.45462741E+03</rscale>
<asrwt>0</asrwt>
<pdfrwt beam="1">  1       21 0.34196669E-01 0.45462741E+03</pdfrwt>
<pdfrwt beam="2">  1       21 0.32677559E-01 0.45462741E+03</pdfrwt>
<totfact> 0.68768713E+04</totfact>
</mgrwt>
</event>
<event>
 6    0  0.1576925E-007  0.4576888E+03  0.7546771E-02  0.1025454E+00
         21   -1    0    0  502  501  0.00000000000E+00  0.00000000000E+00  0.24512393033E+03  0.24512393033E+03  0.00000000000E+00 0. -1.
         21   -1    0    0  501  502 -0.00000000000E+00 -0.00000000000E+00 -0.21364601869E+03  0.21364601869E+03  0.00000000000E+00 0. -1.
      99926    2    1    2    0    0 -0.17763568394E-14  0.00000000000E+00  0.31477911639E+02  0.45876994901E+03  0.45768876673E+03 0.  0.
         25    1    3    3    0    0 -0.26308602581E+02 -0.49102460646E+02 -0.19838873331E+02  0.13836286787E+03  0.12509000000E+03 0.  0.
         25    1    3    3    0    0  0.15030575847E+02  0.11614773503E+03  0.48170656152E+02  0.17800037859E+03  0.12509000000E+03 0.  0.
         25    1    3    3    0    0  0.11278026733E+02 -0.67045274386E+02  0.31461288175E+01  0.14240670255E+03  0.12509000000E+03 0.  0.
<mgrwt>
<rscale>  2 0.45768877E+03</rscale>
<asrwt>0</asrwt>
<pdfrwt beam="1">  1       21 0.36047637E-01 0.45768877E+03</pdfrwt>
<pdfrwt beam="2">  1       21 0.31418532E-01 0.45768877E+03</pdfrwt>
<totfact> 0.66825368E+04</totfact>
</mgrwt>
</event>
<event>
 6    0  0.1576925E-007  0.4476430E+03  0.7546771E-02  0.1028427E+00
         21   -1    0    0  502  501  0.00000000000E+00  0.00000000000E+00  0.15222532938E+04  0.15222532938E+04  0.00000000000E+00 0. -1.
         21   -1    0    0  501  502 -0.00000000000E+00 -0.00000000000E+00 -0.32909153938E+02  0.32909153938E+02  0.00000000000E+00 0. -1.
      99926    2    1    2    0    0 -0.35527136788E-14 -0.88817841970E-15  0.14893441399E+04  0.15551624477E+04  0.44764301839E+03 0.  0.
         25    1    3    3    0    0  0.22710041846E+02 -0.57800339225E+01  0.25684600474E+03  0.28664705308E+03  0.12509000000E+03 0.  0.
         25    1    3    3    0    0 -0.46810609705E+02  0.71838513042E+02  0.74770855479E+03  0.76293354635E+03  0.12509000000E+03 0.  0.
         25    1    3    3    0    0  0.24100567859E+02 -0.66058479119E+02  0.48478958034E+03  0.50558184831E+03  0.12509000000E+03 0.  0.
<mgrwt>
<rscale>  2 0.44764302E+03</rscale>
<asrwt>0</asrwt>
<pdfrwt beam="1">  1       21 0.22386073E+00 0.44764302E+03</pdfrwt>
<pdfrwt beam="2">  1       21 0.48395825E-02 0.44764302E+03</pdfrwt>
<totfact> 0.23789534E+04</totfact>
</mgrwt>
</event>
<event>
 6    0  0.1576925E-007  0.4572584E+03  0.7546771E-02  0.1025579E+00
         21   -1    0    0  502  501  0.00000000000E+00  0.00000000000E+00  0.50090658086E+03  0.50090658086E+03  0.00000000000E+00 0.  1.
         21   -1    0    0  501  502 -0.00000000000E+00 -0.00000000000E+00 -0.10435339762E+03  0.10435339762E+03  0.00000000000E+00 0.  1.
      99926    2    1    2    0    0  0.35527136788E-14  0.71054273576E-14  0.39655318324E+03  0.60525997848E+03  0.45725836724E+03 0.  0.
         25    1    3    3    0    0  0.27386698243E+02 -0.25609544363E+02  0.87286426702E+02  0.15707421300E+03  0.12509000000E+03 0.  0.
         25    1    3    3    0    0  0.27277563576E+02  0.73231769263E+02  0.25337464287E+03  0.29317771958E+03  0.12509000000E+03 0.  0.
         25    1    3    3    0    0 -0.54664261819E+02 -0.47622224900E+02  0.55892113661E+02  0.15500804590E+03  0.12509000000E+03 0.  0.
<mgrwt>
<rscale>  2 0.45725837E+03</rscale>
<asrwt>0</asrwt>
<pdfrwt beam="1">  1       21 0.73662732E-01 0.45725837E+03</pdfrwt>
<pdfrwt beam="2">  1       21 0.15346088E-01 0.45725837E+03</pdfrwt>
<totfact> 0.57326023E+04</totfact>
</mgrwt>
</event>
<event>
 6    0  0.1576925E-007  0.4499517E+03  0.7546771E-02  0.1027736E+00
         21   -1    0    0  502  501  0.00000000000E+00  0.00000000000E+00  0.76423772706E+02  0.76423772706E+02  0.00000000000E+00 0.  1.
         21   -1    0    0  501  502 -0.00000000000E+00 -0.00000000000E+00 -0.66228252255E+03  0.66228252255E+03  0.00000000000E+00 0.  1.
      99926    2    1    2    0    0  0.00000000000E+00  0.00000000000E+00 -0.58585874985E+03  0.73870629526E+03  0.44995168172E+03 0.  0.
         25    1    3    3    0    0  0.32977875747E+02  0.80605277769E+02 -0.34214874404E+03  0.37456377593E+03  0.12509000000E+03 0.  0.
         25    1    3    3    0    0 -0.16878926799E+02 -0.12114120739E+02 -0.12201652315E+03  0.17597497013E+03  0.12509000000E+03 0.  0.
         25    1    3    3    0    0 -0.16098948949E+02 -0.68491157030E+02 -0.12169348266E+03  0.18816754920E+03  0.12509000000E+03 0.  0.
<mgrwt>
<rscale>  2 0.44995168E+03</rscale>
<asrwt>0</asrwt>
<pdfrwt beam="1">  1       21 0.11238791E-01 0.44995168E+03</pdfrwt>
<pdfrwt beam="2">  1       21 0.97394485E-01 0.44995168E+03</pdfrwt>
<totfact> 0.52920599E+04</totfact>
</mgrwt>
</event>
<event>
 6    0  0.1576925E-007  0.4565589E+03  0.7546771E-02  0.1025784E+00
         21   -1    0    0  502  501  0.00000000000E+00  0.00000000000E+00  0.81393191305E+03  0.81393191305E+03  0.00000000000E+00 0. -1.
         21   -1    0    0  501  502 -0.00000000000E+00 -0.00000000000E+00 -0.64024415320E+02  0.64024415320E+02  0.00000000000E+00 0. -1.
      99926    2    1    2    0    0  0.26645352591E-14  0.00000000000E+00  0.74990749773E+03  0.87795632837E+03  0.45655893308E+03 0.  0.
         25    1    3    3    0    0  0.38230095876E+02 -0.46072041142E+02  0.92127014527E+02  0.16649044450E+03  0.12509000000E+03 0.  0.
         25    1    3    3    0    0 -0.45814340238E+02 -0.74738041026E+01  0.36179702899E+03  0.38561562443E+03  0.12509000000E+03 0.  0.
         25    1    3    3    0    0  0.75842443622E+01  0.53545845244E+02  0.29598345421E+03  0.32585025943E+03  0.12509000000E+03 0.  0.
<mgrwt>
<rscale>  2 0.45655893E+03</rscale>
<asrwt>0</asrwt>
<pdfrwt beam="1">  1       21 0.11969586E+00 0.45655893E+03</pdfrwt>
<pdfrwt beam="2">  1       21 0.94153557E-02 0.45655893E+03</pdfrwt>
<totfact> 0.43664949E+04</totfact>
</mgrwt>
</event>
<event>
 6    0  0.1576925E-007  0.4525019E+03  0.7546771E-02  0.1026979E+00
         21   -1    0    0  502  501  0.00000000000E+00  0.00000000000E+00  0.24782860242E+03  0.24782860242E+03  0.00000000000E+00 0.  1.
         21   -1    0    0  501  502 -0.00000000000E+00 -0.00000000000E+00 -0.20655203210E+03  0.20655203210E+03  0.00000000000E+00 0.  1.
      99926    2    1    2    0    0  0.35527136788E-14  0.00000000000E+00  0.41276570317E+02  0.45438063452E+03  0.45250194007E+03 0.  0.
         25    1    3    3    0    0  0.41229358137E+02  0.38480270513E+02 -0.33831349505E+02  0.14132465992E+03  0.12509000000E+03 0.  0.
         25    1    3    3    0    0  0.97864883904E+01 -0.94902496662E+02  0.44430010498E+02  0.16347413606E+03  0.12509000000E+03 0.  0.
         25    1    3    3    0    0 -0.51015846528E+02  0.56422226149E+02  0.30677909324E+02  0.14958183854E+03  0.12509000000E+03 0.  0.
<mgrwt>
<rscale>  2 0.45250194E+03</rscale>
<asrwt>0</asrwt>
<pdfrwt beam="1">  1       21 0.36445383E-01 0.45250194E+03</pdfrwt>
<pdfrwt beam="2">  1       21 0.30375299E-01 0.45250194E+03</pdfrwt>
<totfact> 0.69975528E+04</totfact>
</mgrwt>
</event>
<event>
 6    0  0.1576925E-007  0.4558367E+03  0.7546771E-02  0.1025996E+00
         21   -1    0    0  502  501  0.00000000000E+00  0.00000000000E+00  0.43588222116E+02  0.43588222116E+02  0.00000000000E+00 0. -1.
         21   -1    0    0  501  502 -0.00000000000E+00 -0.00000000000E+00 -0.11917617613E+04  0.11917617613E+04  0.00000000000E+00 0. -1.
      99926    2    1    2    0    0  0.00000000000E+00  0.00000000000E+00 -0.11481735392E+04  0.12353499834E+04  0.45583670919E+03 0.  0.
         25    1    3    3    0    0 -0.55373821356E+02  0.75729007949E+02 -0.22587236680E+03  0.27471253507E+03  0.12509000000E+03 0.  0.
         25    1    3    3    0    0  0.18851960295E+02 -0.43125045004E+02 -0.42554520964E+03  0.44603968373E+03  0.12509000000E+03 0.  0.
         25    1    3    3    0    0  0.36521861061E+02 -0.32603962946E+02 -0.49675596275E+03  0.51459776463E+03  0.12509000000E+03 0.  0.
<mgrwt>
<rscale>  2 0.45583671E+03</rscale>
<asrwt>0</asrwt>
<pdfrwt beam="1">  1       21 0.64100329E-02 0.45583671E+03</pdfrwt>
<pdfrwt beam="2">  1       21 0.17525908E+00 0.45583671E+03</pdfrwt>
<totfact> 0.30850130E+04</totfact>
</mgrwt>
</event>
<event>
 6    0  0.1576925E-007  0.4443902E+03  0.7546771E-02  0.1029408E+00
         21   -1    0    0  502  501  0.00000000000E+00  0.00000000000E+00  0.10345583613E+04  0.10345583613E+04  0.00000000000E+00 0. -1.
         21   -1    0    0  501  502 -0.00000000000E+00 -0.00000000000E+00 -0.47721490118E+02  0.47721490118E+02  0.00000000000E+00 0. -1.
      99926    2    1    2    0    0  0.53290705182E-14  0.00000000000E+00  0.98683687123E+03  0.10822798515E+04  0.44439021869E+03 0.  0.
         25    1    3    3    0    0 -0.33785884332E+02  0.69632213070E+02  0.40158990333E+03  0.42768222974E+03  0.12509000000E+03 0.  0.
         25    1    3    3    0    0  0.41575068556E+02  0.45725867044E+01  0.17414944981E+03  0.21846037133E+03  0.12509000000E+03 0.  0.
         25    1    3    3    0    0 -0.77891842239E+01 -0.74204799774E+02  0.41109751809E+03  0.43613725039E+03  0.12509000000E+03 0.  0.
<mgrwt>
<rscale>  2 0.44439022E+03</rscale>
<asrwt>0</asrwt>
<pdfrwt beam="1">  1       21 0.15214092E+00 0.44439022E+03</pdfrwt>
<pdfrwt beam="2">  1       21 0.70178669E-02 0.44439022E+03</pdfrwt>
<totfact> 0.39265983E+04</totfact>
</mgrwt>
</event>
<event>
 6    0  0.1576925E-007  0.4536433E+03  0.7546771E-02  0.1026641E+00
         21   -1    0    0  502  501  0.00000000000E+00  0.00000000000E+00  0.18026311681E+04  0.18026311681E+04  0.00000000000E+00 0.  1.
         21   -1    0    0  501  502 -0.00000000000E+00 -0.00000000000E+00 -0.28540540677E+02  0.28540540677E+02  0.00000000000E+00 0.  1.
      99926    2    1    2    0    0  0.00000000000E+00  0.71054273576E-14  0.17740906275E+04  0.18311717088E+04  0.45364333206E+03 0.  0.
         25    1    3    3    0    0  0.64515125173E+02  0.31343280785E+02  0.56523304376E+03  0.58333567050E+03  0.12509000000E+03 0.  0.
         25    1    3    3    0    0 -0.86021433822E+02  0.47650681854E+02  0.66888896451E+03  0.68755380117E+03  0.12509000000E+03 0.  0.
         25    1    3    3    0    0  0.21506308649E+02 -0.78993962639E+02  0.53996861920E+03  0.56028223715E+03  0.12509000000E+03 0.  0.
<mgrwt>
<rscale>  2 0.45364333E+03</rscale>
<asrwt>0</asrwt>
<pdfrwt beam="1">  1       21 0.26509274E+00 0.45364333E+03</pdfrwt>
<pdfrwt beam="2">  1       21 0.41971396E-02 0.45364333E+03</pdfrwt>
<totfact> 0.16844807E+04</totfact>
</mgrwt>
</event>
<event>
 6    0  0.1576925E-007  0.4481977E+03  0.7546771E-02  0.1028261E+00
         21   -1    0    0  502  501  0.00000000000E+00  0.00000000000E+00  0.12891431703E+03  0.12891431703E+03  0.00000000000E+00 0. -1.
         21   -1    0    0  501  502 -0.00000000000E+00 -0.00000000000E+00 -0.38956338892E+03  0.38956338892E+03  0.00000000000E+00 0. -1.
      99926    2    1    2    0    0  0.00000000000E+00 -0.71054273576E-14 -0.26064907189E+03  0.51847770594E+03  0.44819771629E+03 0.  0.
         25    1    3    3    0    0  0.16976445456E+02  0.12239229739E+01 -0.29814581180E+02  0.12971551580E+03  0.12509000000E+03 0.  0.
         25    1    3    3    0    0  0.21475264432E+01 -0.56078964834E+02 -0.20776578749E+03  0.24892487364E+03  0.12509000000E+03 0.  0.
         25    1    3    3    0    0 -0.19123971899E+02  0.54855041860E+02 -0.23068703215E+02  0.13983731650E+03  0.12509000000E+03 0.  0.
<mgrwt>
<rscale>  2 0.44819772E+03</rscale>
<asrwt>0</asrwt>
<pdfrwt beam="1">  1       21 0.18957988E-01 0.44819772E+03</pdfrwt>
<pdfrwt beam="2">  1       21 0.57288734E-01 0.44819772E+03</pdfrwt>
<totfact> 0.67563912E+04</totfact>
</mgrwt>
</event>
<event>
 6    0  0.1576925E-007  0.4538012E+03  0.7546771E-02  0.1026595E+00
         21   -1    0    0  502  501  0.00000000000E+00  0.00000000000E+00  0.81298642740E+03  0.81298642740E+03  0.00000000000E+00 0.  1.
         21   -1    0    0  501  502 -0.00000000000E+00 -0.00000000000E+00 -0.63326853093E+02  0.63326853093E+02  0.00000000000E+00 0.  1.
      99926    2    1    2    0    0  0.35527136788E-14 -0.71054273576E-14  0.74965957430E+03  0.87631328049E+03  0.45380115493E+03 0.  0.
         25    1    3    3    0    0  0.25163917358E+02 -0.24589571879E+02  0.14404506863E+03  0.19399577232E+03  0.12509000000E+03 0.  0.
         25    1    3    3    0    0  0.92457880579E+01  0.76615138239E+02  0.44877060548E+03  0.47222656474E+03  0.12509000000E+03 0.  0.
         25    1    3    3    0    0 -0.34409705416E+02 -0.52025566360E+02  0.15684390019E+03  0.21009094342E+03  0.12509000000E+03 0.  0.
<mgrwt>
<rscale>  2 0.45380115E+03</rscale>
<asrwt>0</asrwt>
<pdfrwt beam="1">  1       21 0.11955682E+00 0.45380115E+03</pdfrwt>
<pdfrwt beam="2">  1       21 0.93127730E-02 0.45380115E+03</pdfrwt>
<totfact> 0.44691873E+04</totfact>
</mgrwt>
</event>
<event>
 6    0  0.1576925E-007  0.4513502E+03  0.7546771E-02  0.1027320E+00
         21   -1    0    0  502  501  0.00000000000E+00  0.00000000000E+00  0.25425173754E+03  0.25425173754E+03  0.00000000000E+00 0.  1.
         21   -1    0    0  501  502 -0.00000000000E+00 -0.00000000000E+00 -0.20031030319E+03  0.20031030319E+03  0.00000000000E+00 0.  1.
      99926    2    1    2    0    0  0.71054273576E-14  0.00000000000E+00  0.53941434352E+02  0.45456204072E+03  0.45135016398E+03 0.  0.
         25    1    3    3    0    0  0.33162376786E+02 -0.38995796688E+02  0.16021982481E+02  0.13610520716E+03  0.12509000000E+03 0.  0.
         25    1    3    3    0    0 -0.39794543283E+02  0.10869943358E+03  0.10321838817E+01  0.17043399320E+03  0.12509000000E+03 0.  0.
         25    1    3    3    0    0  0.66321664973E+01 -0.69703636892E+02  0.36887267989E+02  0.14802284036E+03  0.12509000000E+03 0.  0.
<mgrwt>
<rscale>  2 0.45135016E+03</rscale>
<asrwt>0</asrwt>
<pdfrwt beam="1">  1       21 0.37389961E-01 0.45135016E+03</pdfrwt>
<pdfrwt beam="2">  1       21 0.29457398E-01 0.45135016E+03</pdfrwt>
<totfact> 0.70611679E+04</totfact>
</mgrwt>
</event>
<event>
 6    0  0.1576925E-007  0.4618126E+03  0.7546771E-02  0.1024257E+00
         21   -1    0    0  502  501  0.00000000000E+00  0.00000000000E+00  0.52874530745E+03  0.52874530745E+03  0.00000000000E+00 0. -1.
         21   -1    0    0  501  502 -0.00000000000E+00 -0.00000000000E+00 -0.10083818021E+03  0.10083818021E+03  0.00000000000E+00 0. -1.
      99926    2    1    2    0    0  0.00000000000E+00  0.35527136788E-14  0.42790712724E+03  0.62958348766E+03  0.46181257929E+03 0.  0.
         25    1    3    3    0    0  0.51719047697E+01 -0.22964660410E+02  0.16931009837E+03  0.21181959715E+03  0.12509000000E+03 0.  0.
         25    1    3    3    0    0  0.33510021853E+02 -0.23938315873E+02  0.89617411053E+01  0.13199918725E+03  0.12509000000E+03 0.  0.
         25    1    3    3    0    0 -0.38681926623E+02  0.46902976283E+02  0.24963528776E+03  0.28576470326E+03  0.12509000000E+03 0.  0.
<mgrwt>
<rscale>  2 0.46181258E+03</rscale>
<asrwt>0</asrwt>
<pdfrwt beam="1">  1       21 0.77756662E-01 0.46181258E+03</pdfrwt>
<pdfrwt beam="2">  1       21 0.14829144E-01 0.46181258E+03</pdfrwt>
<totfact> 0.53933566E+04</totfact>
</mgrwt>
</event>
<event>
 6    0  0.1576925E-007  0.4473726E+03  0.7546771E-02  0.1028508E+00
         21   -1    0    0  502  501  0.00000000000E+00  0.00000000000E+00  0.11635919067E+03  0.11635919067E+03  0.00000000000E+00 0.  1.
         21   -1    0    0  501  502 -0.00000000000E+00 -0.00000000000E+00 -0.43000959548E+03  0.43000959548E+03  0.00000000000E+00 0.  1.
      99926    2    1    2    0    0  0.00000000000E+00 -0.35527136788E-14 -0.31365040481E+03  0.54636878615E+03  0.44737263444E+03 0.  0.
         25    1    3    3    0    0  0.47450605868E+02  0.61303012005E+02 -0.10469590484E+03  0.18060553665E+03  0.12509000000E+03 0.  0.
         25    1    3    3    0    0 -0.75955648641E+02 -0.31146656554E+02 -0.46728593616E+02  0.15674962308E+03  0.12509000000E+03 0.  0.
         25    1    3    3    0    0  0.28505042773E+02 -0.30156355451E+02 -0.16222590636E+03  0.20901362642E+03  0.12509000000E+03 0.  0.
<mgrwt>
<rscale>  2 0.44737263E+03</rscale>
<asrwt>0</asrwt>
<pdfrwt beam="1">  1       21 0.17111646E-01 0.44737263E+03</pdfrwt>
<pdfrwt beam="2">  1       21 0.63236705E-01 0.44737263E+03</pdfrwt>
<totfact> 0.66001109E+04</totfact>
</mgrwt>
</event>
<event>
 6    0  0.1576925E-007  0.4555752E+03  0.7546771E-02  0.1026072E+00
         21   -1    0    0  502  501  0.00000000000E+00  0.00000000000E+00  0.45407147346E+03  0.45407147346E+03  0.00000000000E+00 0.  1.
         21   -1    0    0  501  502 -0.00000000000E+00 -0.00000000000E+00 -0.11427096842E+03  0.11427096842E+03  0.00000000000E+00 0.  1.
      99926    2    1    2    0    0 -0.14210854715E-13  0.35527136788E-14  0.33980050505E+03  0.56834244188E+03  0.45557518371E+03 0.  0.
         25    1    3    3    0    0 -0.71971637726E+02  0.49342999966E+02  0.10999543398E+03  0.18804561117E+03  0.12509000000E+03 0.  0.
         25    1    3    3    0    0 -0.50606388649E+01 -0.59923249473E+02  0.17450506702E+03  0.22297069855E+03  0.12509000000E+03 0.  0.
         25    1    3    3    0    0  0.77032276591E+02  0.10580249507E+02  0.55300004046E+02  0.15732613217E+03  0.12509000000E+03 0.  0.
<mgrwt>
<rscale>  2 0.45557518E+03</rscale>
<asrwt>0</asrwt>
<pdfrwt beam="1">  1       21 0.66775216E-01 0.45557518E+03</pdfrwt>
<pdfrwt beam="2">  1       21 0.16804554E-01 0.45557518E+03</pdfrwt>
<totfact> 0.60395268E+04</totfact>
</mgrwt>
</event>
<event>
 6    0  0.1576925E-007  0.4513285E+03  0.7546771E-02  0.1027327E+00
         21   -1    0    0  502  501  0.00000000000E+00  0.00000000000E+00  0.14538165567E+03  0.14538165567E+03  0.00000000000E+00 0.  1.
         21   -1    0    0  501  502 -0.00000000000E+00 -0.00000000000E+00 -0.35028039431E+03  0.35028039431E+03  0.00000000000E+00 0.  1.
      99926    2    1    2    0    0  0.00000000000E+00  0.35527136788E-14 -0.20489873864E+03  0.49566204998E+03  0.45132845544E+03 0.  0.
         25    1    3    3    0    0 -0.60015751013E+02 -0.97238686174E+02 -0.69638624086E+02  0.18317832438E+03  0.12509000000E+03 0.  0.
         25    1    3    3    0    0  0.17657549183E+02  0.20313889271E+02 -0.49225044164E+02  0.13709506269E+03  0.12509000000E+03 0.  0.
         25    1    3    3    0    0  0.42358201830E+02  0.76924796903E+02 -0.86035070386E+02  0.17538866291E+03  0.12509000000E+03 0.  0.
<mgrwt>
<rscale>  2 0.45132846E+03</rscale>
<asrwt>0</asrwt>
<pdfrwt beam="1">  1       21 0.21379655E-01 0.45132846E+03</pdfrwt>
<pdfrwt beam="2">  1       21 0.51511822E-01 0.45132846E+03</pdfrwt>
<totfact> 0.67523161E+04</totfact>
</mgrwt>
</event>
<event>
 6    0  0.1576925E-007  0.4446547E+03  0.7546771E-02  0.1029328E+00
         21   -1    0    0  502  501  0.00000000000E+00  0.00000000000E+00  0.30669008815E+03  0.30669008815E+03  0.00000000000E+00 0.  1.
         21   -1    0    0  501  502 -0.00000000000E+00 -0.00000000000E+00 -0.16117068480E+03  0.16117068480E+03  0.00000000000E+00 0.  1.
      99926    2    1    2    0    0  0.35527136788E-14  0.00000000000E+00  0.14551940335E+03  0.46786077295E+03  0.44465470437E+03 0.  0.
         25    1    3    3    0    0 -0.59487014624E+02 -0.12322185285E+02  0.27892876669E+02  0.14183110318E+03  0.12509000000E+03 0.  0.
         25    1    3    3    0    0  0.26465959530E+02 -0.73331718621E+02  0.73571636461E+02  0.16473700787E+03  0.12509000000E+03 0.  0.
         25    1    3    3    0    0  0.33021055093E+02  0.85653903906E+02  0.44054890219E+02  0.16129266191E+03  0.12509000000E+03 0.  0.
<mgrwt>
<rscale>  2 0.44465470E+03</rscale>
<asrwt>0</asrwt>
<pdfrwt beam="1">  1       21 0.45101484E-01 0.44465470E+03</pdfrwt>
<pdfrwt beam="2">  1       21 0.23701571E-01 0.44465470E+03</pdfrwt>
<totfact> 0.73441345E+04</totfact>
</mgrwt>
</event>
<event>
 6    0  0.1576925E-007  0.4448799E+03  0.7546771E-02  0.1029260E+00
         21   -1    0    0  502  501  0.00000000000E+00  0.00000000000E+00  0.78270879205E+03  0.78270879205E+03  0.00000000000E+00 0. -1.
         21   -1    0    0  501  502 -0.00000000000E+00 -0.00000000000E+00 -0.63215763047E+02  0.63215763047E+02  0.00000000000E+00 0. -1.
      99926    2    1    2    0    0 -0.35527136788E-14  0.00000000000E+00  0.71949302901E+03  0.84592455510E+03  0.44487990979E+03 0.  0.
         25    1    3    3    0    0 -0.17752787583E+02 -0.47510565019E+02  0.10736930078E+03  0.17247634651E+03  0.12509000000E+03 0.  0.
         25    1    3    3    0    0  0.58560554090E+02  0.31978138095E+02  0.24386654228E+03  0.28208214824E+03  0.12509000000E+03 0.  0.
         25    1    3    3    0    0 -0.40807766507E+02  0.15532426924E+02  0.36825718595E+03  0.39136606036E+03  0.12509000000E+03 0.  0.
<mgrwt>
<rscale>  2 0.44487991E+03</rscale>
<asrwt>0</asrwt>
<pdfrwt beam="1">  1       21 0.11510423E+00 0.44487991E+03</pdfrwt>
<pdfrwt beam="2">  1       21 0.92964362E-02 0.44487991E+03</pdfrwt>
<totfact> 0.49431254E+04</totfact>
</mgrwt>
</event>
<event>
 6    0  0.1576925E-007  0.4702198E+03  0.7546771E-02  0.1021858E+00
         21   -1    0    0  502  501  0.00000000000E+00  0.00000000000E+00  0.31329219842E+03  0.31329219842E+03  0.00000000000E+00 0. -1.
         21   -1    0    0  501  502 -0.00000000000E+00 -0.00000000000E+00 -0.17643804733E+03  0.17643804733E+03  0.00000000000E+00 0. -1.
      99926    2    1    2    0    0  0.00000000000E+00  0.17763568394E-14  0.13685415109E+03  0.48973024575E+03  0.47021979428E+03 0.  0.
         25    1    3    3    0    0 -0.25697958924E+02  0.10225128582E+02 -0.17360734990E+02  0.12928202337E+03  0.12509000000E+03 0.  0.
         25    1    3    3    0    0 -0.62259994214E+02  0.25247354996E+02  0.23162155124E+01  0.14200918551E+03  0.12509000000E+03 0.  0.
         25    1    3    3    0    0  0.87957953138E+02 -0.35472483578E+02  0.15189867057E+03  0.21843903688E+03  0.12509000000E+03 0.  0.
<mgrwt>
<rscale>  2 0.47021979E+03</rscale>
<asrwt>0</asrwt>
<pdfrwt beam="1">  1       21 0.46072382E-01 0.47021979E+03</pdfrwt>
<pdfrwt beam="2">  1       21 0.25946772E-01 0.47021979E+03</pdfrwt>
<totfact> 0.58593432E+04</totfact>
</mgrwt>
</event>
<event>
 6    0  0.1576925E-007  0.4877225E+03  0.7546771E-02  0.1017034E+00
         21   -1    0    0  502  501  0.00000000000E+00  0.00000000000E+00  0.26569828692E+03  0.26569828692E+03  0.00000000000E+00 0. -1.
         21   -1    0    0  501  502 -0.00000000000E+00 -0.00000000000E+00 -0.22381898555E+03  0.22381898555E+03  0.00000000000E+00 0. -1.
      99926    2    1    2    0    0  0.00000000000E+00  0.00000000000E+00  0.41879301373E+02  0.48951727247E+03  0.48772254834E+03 0.  0.
         25    1    3    3    0    0  0.33082662733E+02 -0.34482308965E+02 -0.46608353976E+02  0.14178624392E+03  0.12509000000E+03 0.  0.
         25    1    3    3    0    0 -0.10636866418E+03  0.63997939444E+02  0.93888897973E+02  0.19968140183E+03  0.12509000000E+03 0.  0.
         25    1    3    3    0    0  0.73286001446E+02 -0.29515630479E+02 -0.54012426247E+01  0.14804962672E+03  0.12509000000E+03 0.  0.
<mgrwt>
<rscale>  2 0.48772255E+03</rscale>
<asrwt>0</asrwt>
<pdfrwt beam="1">  1       21 0.39073278E-01 0.48772255E+03</pdfrwt>
<pdfrwt beam="2">  1       21 0.32914557E-01 0.48772255E+03</pdfrwt>
<totfact> 0.51321613E+04</totfact>
</mgrwt>
</event>
<event>
 6    0  0.1576925E-007  0.4509614E+03  0.7546771E-02  0.1027436E+00
         21   -1    0    0  502  501  0.00000000000E+00  0.00000000000E+00  0.30112303314E+03  0.30112303314E+03  0.00000000000E+00 0. -1.
         21   -1    0    0  501  502 -0.00000000000E+00 -0.00000000000E+00 -0.16883979411E+03  0.16883979411E+03  0.00000000000E+00 0. -1.
      99926    2    1    2    0    0 -0.34416913763E-14 -0.35527136788E-14  0.13228323903E+03  0.46996282725E+03  0.45096142148E+03 0.  0.
         25    1    3    3    0    0 -0.96062612520E+00  0.30683059483E+02 -0.29189009460E+02  0.13206770731E+03  0.12509000000E+03 0.  0.
         25    1    3    3    0    0  0.52334091240E+02 -0.56623404587E+02  0.35275033678E+02  0.15111883785E+03  0.12509000000E+03 0.  0.
         25    1    3    3    0    0 -0.51373465115E+02  0.25940345104E+02  0.12619721481E+03  0.18677628208E+03  0.12509000000E+03 0.  0.
<mgrwt>
<rscale>  2 0.45096142E+03</rscale>
<asrwt>0</asrwt>
<pdfrwt beam="1">  1       21 0.44282799E-01 0.45096142E+03</pdfrwt>
<pdfrwt beam="2">  1       21 0.24829381E-01 0.45096142E+03</pdfrwt>
<totfact> 0.69643459E+04</totfact>
</mgrwt>
</event>
<event>
 6    0  0.1576925E-007  0.4580816E+03  0.7546771E-02  0.1025339E+00
         21   -1    0    0  502  501  0.00000000000E+00  0.00000000000E+00  0.23266206820E+04  0.23266206820E+04  0.00000000000E+00 0. -1.
         21   -1    0    0  501  502 -0.00000000000E+00 -0.00000000000E+00 -0.22547590008E+02  0.22547590008E+02  0.00000000000E+00 0. -1.
      99926    2    1    2    0    0  0.00000000000E+00  0.00000000000E+00  0.23040730920E+04  0.23491682720E+04  0.45808160515E+03 0.  0.
         25    1    3    3    0    0 -0.28842296956E+02  0.42939448496E+02  0.40070898102E+03  0.42295492656E+03  0.12509000000E+03 0.  0.
         25    1    3    3    0    0  0.44476505270E+02 -0.22612441980E+02  0.14163231815E+04  0.14227116168E+04  0.12509000000E+03 0.  0.
         25    1    3    3    0    0 -0.15634208314E+02 -0.20327006516E+02  0.48704092955E+03  0.50350172872E+03  0.12509000000E+03 0.  0.
<mgrwt>
<rscale>  2 0.45808161E+03</rscale>
<asrwt>0</asrwt>
<pdfrwt beam="1">  1       21 0.34214994E+00 0.45808161E+03</pdfrwt>
<pdfrwt beam="2">  1       21 0.33158237E-02 0.45808161E+03</pdfrwt>
<totfact> 0.85932539E+03</totfact>
</mgrwt>
</event>
<event>
 6    0  0.1576925E-007  0.4509665E+03  0.7546771E-02  0.1027434E+00
         21   -1    0    0  502  501  0.00000000000E+00  0.00000000000E+00  0.14107137083E+03  0.14107137083E+03  0.00000000000E+00 0. -1.
         21   -1    0    0  501  502 -0.00000000000E+00 -0.00000000000E+00 -0.36040409806E+03  0.36040409806E+03  0.00000000000E+00 0. -1.
      99926    2    1    2    0    0 -0.17763568394E-14  0.00000000000E+00 -0.21933272723E+03  0.50147546889E+03  0.45096651834E+03 0.  0.
         25    1    3    3    0    0 -0.16284576590E+02 -0.97068705324E+02 -0.26677943823E+02  0.16139002997E+03  0.12509000000E+03 0.  0.
         25    1    3    3    0    0  0.22309889861E+02  0.96920794767E+01 -0.92536760699E+02  0.15748723050E+03  0.12509000000E+03 0.  0.
         25    1    3    3    0    0 -0.60253132717E+01  0.87376625847E+02 -0.10011802271E+03  0.18259820841E+03  0.12509000000E+03 0.  0.
<mgrwt>
<rscale>  2 0.45096652E+03</rscale>
<asrwt>0</asrwt>
<pdfrwt beam="1">  1       21 0.20745790E-01 0.45096652E+03</pdfrwt>
<pdfrwt beam="2">  1       21 0.53000602E-01 0.45096652E+03</pdfrwt>
<totfact> 0.67295989E+04</totfact>
</mgrwt>
</event>
<event>
 6    0  0.1576925E-007  0.4566414E+03  0.7546771E-02  0.1025760E+00
         21   -1    0    0  502  501  0.00000000000E+00  0.00000000000E+00  0.58501256233E+02  0.58501256233E+02  0.00000000000E+00 0. -1.
         21   -1    0    0  501  502 -0.00000000000E+00 -0.00000000000E+00 -0.89109793487E+03  0.89109793487E+03  0.00000000000E+00 0. -1.
      99926    2    1    2    0    0  0.88817841970E-15  0.14210854715E-13 -0.83259667864E+03  0.94959919111E+03  0.45664142877E+03 0.  0.
         25    1    3    3    0    0 -0.12411823762E+02 -0.61512202453E+02 -0.28560862062E+03  0.31805282060E+03  0.12509000000E+03 0.  0.
         25    1    3    3    0    0  0.78759004095E+01 -0.59230298674E+02 -0.19909606589E+03  0.24260463648E+03  0.12509000000E+03 0.  0.
         25    1    3    3    0    0  0.45359233521E+01  0.12074250113E+03 -0.34789199213E+03  0.38894173402E+03  0.12509000000E+03 0.  0.
<mgrwt>
<rscale>  2 0.45664143E+03</rscale>
<asrwt>0</asrwt>
<pdfrwt beam="1">  1       21 0.86031257E-02 0.45664143E+03</pdfrwt>
<pdfrwt beam="2">  1       21 0.13104382E+00 0.45664143E+03</pdfrwt>
<totfact> 0.40632973E+04</totfact>
</mgrwt>
</event>
<event>
 6    0  0.1576925E-007  0.4553661E+03  0.7546771E-02  0.1026134E+00
         21   -1    0    0  502  501  0.00000000000E+00  0.00000000000E+00  0.14427910371E+04  0.14427910371E+04  0.00000000000E+00 0.  1.
         21   -1    0    0  501  502 -0.00000000000E+00 -0.00000000000E+00 -0.35930062179E+02  0.35930062179E+02  0.00000000000E+00 0.  1.
      99926    2    1    2    0    0  0.00000000000E+00  0.00000000000E+00  0.14068609749E+04  0.14787210993E+04  0.45536610183E+03 0.  0.
         25    1    3    3    0    0  0.22782942108E+02 -0.17623737129E+02  0.74399133434E+03  0.75498362382E+03  0.12509000000E+03 0.  0.
         25    1    3    3    0    0 -0.15662245367E+02  0.42098296366E+02  0.49679440283E+03  0.51426623385E+03  0.12509000000E+03 0.  0.
         25    1    3    3    0    0 -0.71206967405E+01 -0.24474559237E+02  0.16607523776E+03  0.20947124163E+03  0.12509000000E+03 0.  0.
<mgrwt>
<rscale>  2 0.45536610E+03</rscale>
<asrwt>0</asrwt>
<pdfrwt beam="1">  1       21 0.21217511E+00 0.45536610E+03</pdfrwt>
<pdfrwt beam="2">  1       21 0.52838336E-02 0.45536610E+03</pdfrwt>
<totfact> 0.24236493E+04</totfact>
</mgrwt>
</event>
<event>
 6    0  0.1576925E-007  0.4571980E+03  0.7546771E-02  0.1025597E+00
         21   -1    0    0  502  501  0.00000000000E+00  0.00000000000E+00  0.50716757959E+02  0.50716757959E+02  0.00000000000E+00 0.  1.
         21   -1    0    0  501  502 -0.00000000000E+00 -0.00000000000E+00 -0.10303793175E+04  0.10303793175E+04  0.00000000000E+00 0.  1.
      99926    2    1    2    0    0  0.88817841970E-15 -0.19428902931E-15 -0.97966255953E+03  0.10810960754E+04  0.45719798097E+03 0.  0.
         25    1    3    3    0    0 -0.16814013960E+02  0.58744474424E+02 -0.13727604976E+03  0.19551431221E+03  0.12509000000E+03 0.  0.
         25    1    3    3    0    0  0.22034326920E+01 -0.17685194704E+00 -0.28685743854E+03  0.31295300692E+03  0.12509000000E+03 0.  0.
         25    1    3    3    0    0  0.14610581268E+02 -0.58567622477E+02 -0.55552907122E+03  0.57262875631E+03  0.12509000000E+03 0.  0.
<mgrwt>
<rscale>  2 0.45719798E+03</rscale>
<asrwt>0</asrwt>
<pdfrwt beam="1">  1       21 0.74583479E-02 0.45719798E+03</pdfrwt>
<pdfrwt beam="2">  1       21 0.15152635E+00 0.45719798E+03</pdfrwt>
<totfact> 0.35543160E+04</totfact>
</mgrwt>
</event>
<event>
 6    0  0.1576925E-007  0.4499185E+03  0.7546771E-02  0.1027746E+00
         21   -1    0    0  502  501  0.00000000000E+00  0.00000000000E+00  0.32942142250E+02  0.32942142250E+02  0.00000000000E+00 0. -1.
         21   -1    0    0  501  502 -0.00000000000E+00 -0.00000000000E+00 -0.15362287182E+04  0.15362287182E+04  0.00000000000E+00 0. -1.
      99926    2    1    2    0    0  0.00000000000E+00  0.00000000000E+00 -0.15032865759E+04  0.15691708604E+04  0.44991850356E+03 0.  0.
         25    1    3    3    0    0 -0.35611596712E+02 -0.66997036478E+02 -0.31145135212E+03  0.34410208014E+03  0.12509000000E+03 0.  0.
         25    1    3    3    0    0  0.28451222735E+02  0.21888570715E+02 -0.81658554063E+03  0.82689058216E+03  0.12509000000E+03 0.  0.
         25    1    3    3    0    0  0.71603739765E+01  0.45108465763E+02 -0.37524968317E+03  0.39817819812E+03  0.12509000000E+03 0.  0.
<mgrwt>
<rscale>  2 0.44991850E+03</rscale>
<asrwt>0</asrwt>
<pdfrwt beam="1">  1       21 0.48444308E-02 0.44991850E+03</pdfrwt>
<pdfrwt beam="2">  1       21 0.22591608E+00 0.44991850E+03</pdfrwt>
<totfact> 0.23029126E+04</totfact>
</mgrwt>
</event>
<event>
 6    0  0.1576925E-007  0.4539379E+03  0.7546771E-02  0.1026554E+00
         21   -1    0    0  502  501  0.00000000000E+00  0.00000000000E+00  0.15983623246E+03  0.15983623246E+03  0.00000000000E+00 0.  1.
         21   -1    0    0  501  502 -0.00000000000E+00 -0.00000000000E+00 -0.32229807498E+03  0.32229807498E+03  0.00000000000E+00 0.  1.
      99926    2    1    2    0    0  0.00000000000E+00  0.14210854715E-13 -0.16246184252E+03  0.48213430744E+03  0.45393792542E+03 0.  0.
         25    1    3    3    0    0 -0.51481712462E+02  0.18654458468E+02  0.28504960155E+02  0.13949335609E+03  0.12509000000E+03 0.  0.
         25    1    3    3    0    0  0.14238605217E+01 -0.64915827854E+02 -0.11000440792E+03  0.17878638076E+03  0.12509000000E+03 0.  0.
         25    1    3    3    0    0  0.50057851940E+02  0.46261369386E+02 -0.80962394752E+02  0.16385457059E+03  0.12509000000E+03 0.  0.
<mgrwt>
<rscale>  2 0.45393793E+03</rscale>
<asrwt>0</asrwt>
<pdfrwt beam="1">  1       21 0.23505329E-01 0.45393793E+03</pdfrwt>
<pdfrwt beam="2">  1       21 0.47396775E-01 0.45393793E+03</pdfrwt>
<totfact> 0.67109065E+04</totfact>
</mgrwt>
</event>
<event>
 6    0  0.1576925E-007  0.4596107E+03  0.7546771E-02  0.1024894E+00
         21   -1    0    0  502  501  0.00000000000E+00  0.00000000000E+00  0.17145777032E+03  0.17145777032E+03  0.00000000000E+00 0.  1.
         21   -1    0    0  501  502 -0.00000000000E+00 -0.00000000000E+00 -0.30800875857E+03  0.30800875857E+03  0.00000000000E+00 0.  1.
      99926    2    1    2    0    0 -0.23314683517E-14  0.00000000000E+00 -0.13655098825E+03  0.47946652889E+03  0.45961068300E+03 0.  0.
         25    1    3    3    0    0 -0.91212059408E+00 -0.20775837724E+02  0.24053435747E+02  0.12906797925E+03  0.12509000000E+03 0.  0.
         25    1    3    3    0    0 -0.29356773528E+02  0.62358407863E+02 -0.16090506229E+03  0.21514724807E+03  0.12509000000E+03 0.  0.
         25    1    3    3    0    0  0.30268894122E+02 -0.41582570139E+02  0.30063829101E+00  0.13525130156E+03  0.12509000000E+03 0.  0.
<mgrwt>
<rscale>  2 0.45961068E+03</rscale>
<asrwt>0</asrwt>
<pdfrwt beam="1">  1       21 0.25214378E-01 0.45961068E+03</pdfrwt>
<pdfrwt beam="2">  1       21 0.45295405E-01 0.45961068E+03</pdfrwt>
<totfact> 0.64351722E+04</totfact>
</mgrwt>
</event>
<event>
 6    0  0.1576925E-007  0.4539386E+03  0.7546771E-02  0.1026554E+00
         21   -1    0    0  502  501  0.00000000000E+00  0.00000000000E+00  0.71787451972E+02  0.71787451972E+02  0.00000000000E+00 0.  1.
         21   -1    0    0  501  502 -0.00000000000E+00 -0.00000000000E+00 -0.71760527174E+03  0.71760527174E+03  0.00000000000E+00 0.  1.
      99926    2    1    2    0    0  0.00000000000E+00  0.00000000000E+00 -0.64581781977E+03  0.78939272371E+03  0.45393855963E+03 0.  0.
         25    1    3    3    0    0 -0.23986882623E+02 -0.73812458942E+02 -0.16670058444E+03  0.22239658852E+03  0.12509000000E+03 0.  0.
         25    1    3    3    0    0  0.19604897416E+02  0.10311899607E+03 -0.18963155069E+03  0.25025089904E+03  0.12509000000E+03 0.  0.
         25    1    3    3    0    0  0.43819852075E+01 -0.29306537133E+02 -0.28948568464E+03  0.31674523615E+03  0.12509000000E+03 0.  0.
<mgrwt>
<rscale>  2 0.45393856E+03</rscale>
<asrwt>0</asrwt>
<pdfrwt beam="1">  1       21 0.10556978E-01 0.45393856E+03</pdfrwt>
<pdfrwt beam="2">  1       21 0.10553019E+00 0.45393856E+03</pdfrwt>
<totfact> 0.48686499E+04</totfact>
</mgrwt>
</event>
<event>
 6    0  0.1576925E-007  0.4498936E+03  0.7546771E-02  0.1027754E+00
         21   -1    0    0  502  501  0.00000000000E+00  0.00000000000E+00  0.98210440208E+02  0.98210440208E+02  0.00000000000E+00 0.  1.
         21   -1    0    0  501  502 -0.00000000000E+00 -0.00000000000E+00 -0.51523090419E+03  0.51523090419E+03  0.00000000000E+00 0.  1.
      99926    2    1    2    0    0  0.71054273576E-14 -0.71054273576E-14 -0.41702046398E+03  0.61344134439E+03  0.44989356034E+03 0.  0.
         25    1    3    3    0    0 -0.64161471489E+02  0.30320186079E+02 -0.58120128581E+02  0.15511758622E+03  0.12509000000E+03 0.  0.
         25    1    3    3    0    0  0.12509781931E+02  0.40648819734E+02 -0.17277692887E+03  0.21750447453E+03  0.12509000000E+03 0.  0.
         25    1    3    3    0    0  0.51651689558E+02 -0.70969005813E+02 -0.18612340653E+03  0.24081928365E+03  0.12509000000E+03 0.  0.
<mgrwt>
<rscale>  2 0.44989356E+03</rscale>
<asrwt>0</asrwt>
<pdfrwt beam="1">  1       21 0.14442712E-01 0.44989356E+03</pdfrwt>
<pdfrwt beam="2">  1       21 0.75769252E-01 0.44989356E+03</pdfrwt>
<totfact> 0.60251893E+04</totfact>
</mgrwt>
</event>
<event>
 6    0  0.1576925E-007  0.4530870E+03  0.7546771E-02  0.1026805E+00
         21   -1    0    0  502  501  0.00000000000E+00  0.00000000000E+00  0.74223107484E+02  0.74223107484E+02  0.00000000000E+00 0.  1.
         21   -1    0    0  501  502 -0.00000000000E+00 -0.00000000000E+00 -0.69145514133E+03  0.69145514133E+03  0.00000000000E+00 0.  1.
      99926    2    1    2    0    0  0.71054273576E-14  0.00000000000E+00 -0.61723203385E+03  0.76567824882E+03  0.45308696417E+03 0.  0.
         25    1    3    3    0    0 -0.39470385107E+02 -0.62512964398E+01 -0.12814051973E+03  0.18347885683E+03  0.12509000000E+03 0.  0.
         25    1    3    3    0    0 -0.59414706210E+02 -0.49071752542E+02 -0.23581535086E+03  0.27783903976E+03  0.12509000000E+03 0.  0.
         25    1    3    3    0    0  0.98885091318E+02  0.55323048982E+02 -0.25327616326E+03  0.30436035223E+03  0.12509000000E+03 0.  0.
<mgrwt>
<rscale>  2 0.45308696E+03</rscale>
<asrwt>0</asrwt>
<pdfrwt beam="1">  1       21 0.10915163E-01 0.45308696E+03</pdfrwt>
<pdfrwt beam="2">  1       21 0.10168458E+00 0.45308696E+03</pdfrwt>
<totfact> 0.50219527E+04</totfact>
</mgrwt>
</event>
<event>
 6    0  0.1576925E-007  0.4600710E+03  0.7546771E-02  0.1024761E+00
         21   -1    0    0  502  501  0.00000000000E+00  0.00000000000E+00  0.14175885734E+04  0.14175885734E+04  0.00000000000E+00 0.  1.
         21   -1    0    0  501  502 -0.00000000000E+00 -0.00000000000E+00 -0.37328410114E+02  0.37328410114E+02  0.00000000000E+00 0.  1.
      99926    2    1    2    0    0  0.00000000000E+00  0.00000000000E+00  0.13802601633E+04  0.14549169835E+04  0.46007098426E+03 0.  0.
         25    1    3    3    0    0  0.11986105491E+02 -0.61691764920E+02  0.43742247354E+03  0.45927711574E+03  0.12509000000E+03 0.  0.
         25    1    3    3    0    0 -0.48383730771E+02  0.11337395084E+03  0.44350078081E+03  0.47700638236E+03  0.12509000000E+03 0.  0.
         25    1    3    3    0    0  0.36397625279E+02 -0.51682185922E+02  0.49933690893E+03  0.51863348541E+03  0.12509000000E+03 0.  0.
<mgrwt>
<rscale>  2 0.46007098E+03</rscale>
<asrwt>0</asrwt>
<pdfrwt beam="1">  1       21 0.20846887E+00 0.46007098E+03</pdfrwt>
<pdfrwt beam="2">  1       21 0.54894730E-02 0.46007098E+03</pdfrwt>
<totfact> 0.23947089E+04</totfact>
</mgrwt>
</event>
<event>
 6    0  0.1576925E-007  0.4731506E+03  0.7546771E-02  0.1021035E+00
         21   -1    0    0  502  501  0.00000000000E+00  0.00000000000E+00  0.66806501379E+02  0.66806501379E+02  0.00000000000E+00 0. -1.
         21   -1    0    0  501  502 -0.00000000000E+00 -0.00000000000E+00 -0.83776074539E+03  0.83776074539E+03  0.00000000000E+00 0. -1.
      99926    2    1    2    0    0  0.00000000000E+00 -0.71054273576E-14 -0.77095424401E+03  0.90456724677E+03  0.47315056543E+03 0.  0.
         25    1    3    3    0    0 -0.18129829520E+01  0.56538710332E+02 -0.14675941122E+03  0.20096205004E+03  0.12509000000E+03 0.  0.
         25    1    3    3    0    0  0.68084125639E+02 -0.17334646906E+02 -0.46664852043E+03  0.48820516985E+03  0.12509000000E+03 0.  0.
         25    1    3    3    0    0 -0.66271142687E+02 -0.39204063426E+02 -0.15754631236E+03  0.21540002688E+03  0.12509000000E+03 0.  0.
<mgrwt>
<rscale>  2 0.47315057E+03</rscale>
<asrwt>0</asrwt>
<pdfrwt beam="1">  1       21 0.98244861E-02 0.47315057E+03</pdfrwt>
<pdfrwt beam="2">  1       21 0.12320010E+00 0.47315057E+03</pdfrwt>
<totfact> 0.37427867E+04</totfact>
</mgrwt>
</event>
<event>
 6    0  0.1576925E-007  0.4551083E+03  0.7546771E-02  0.1026210E+00
         21   -1    0    0  502  501  0.00000000000E+00  0.00000000000E+00  0.60322579059E+03  0.60322579059E+03  0.00000000000E+00 0.  1.
         21   -1    0    0  501  502 -0.00000000000E+00 -0.00000000000E+00 -0.85839964756E+02  0.85839964756E+02  0.00000000000E+00 0.  1.
      99926    2    1    2    0    0  0.00000000000E+00  0.00000000000E+00  0.51738582583E+03  0.68906575535E+03  0.45510825351E+03 0.  0.
         25    1    3    3    0    0 -0.23985769913E+02  0.83174740064E+02  0.26015432121E+03  0.30136544839E+03  0.12509000000E+03 0.  0.
         25    1    3    3    0    0  0.18608886191E+01  0.12262533241E+02  0.15144942100E+03  0.19682039490E+03  0.12509000000E+03 0.  0.
         25    1    3    3    0    0  0.22124881294E+02 -0.95437273304E+02  0.10578208363E+03  0.19087991205E+03  0.12509000000E+03 0.  0.
<mgrwt>
<rscale>  2 0.45510825E+03</rscale>
<asrwt>0</asrwt>
<pdfrwt beam="1">  1       21 0.88709673E-01 0.45510825E+03</pdfrwt>
<pdfrwt beam="2">  1       21 0.12623525E-01 0.45510825E+03</pdfrwt>
<totfact> 0.53455201E+04</totfact>
</mgrwt>
</event>
<event>
 6    0  0.1576925E-007  0.4518319E+03  0.7546771E-02  0.1027177E+00
         21   -1    0    0  502  501  0.00000000000E+00  0.00000000000E+00  0.15565694869E+03  0.15565694869E+03  0.00000000000E+00 0. -1.
         21   -1    0    0  501  502 -0.00000000000E+00 -0.00000000000E+00 -0.32788774211E+03  0.32788774211E+03  0.00000000000E+00 0. -1.
      99926    2    1    2    0    0  0.00000000000E+00 -0.88817841970E-14 -0.17223079342E+03  0.48354469080E+03  0.45183185124E+03 0.  0.
         25    1    3    3    0    0 -0.88544981158E+01 -0.82860642627E+02 -0.56651338656E+02  0.16062742762E+03  0.12509000000E+03 0.  0.
         25    1    3    3    0    0 -0.17773724858E+02  0.91665114680E+02 -0.11640285327E+03  0.19471910768E+03  0.12509000000E+03 0.  0.
         25    1    3    3    0    0  0.26628222974E+02 -0.88044720531E+01  0.82339851362E+00  0.12819815549E+03  0.12509000000E+03 0.  0.
<mgrwt>
<rscale>  2 0.45183185E+03</rscale>
<asrwt>0</asrwt>
<pdfrwt beam="1">  1       21 0.22890728E-01 0.45183185E+03</pdfrwt>
<pdfrwt beam="2">  1       21 0.48218785E-01 0.45183185E+03</pdfrwt>
<totfact> 0.68140649E+04</totfact>
</mgrwt>
</event>
<event>
 6    0  0.1576925E-007  0.4578716E+03  0.7546771E-02  0.1025400E+00
         21   -1    0    0  502  501  0.00000000000E+00  0.00000000000E+00  0.76561332531E+02  0.76561332531E+02  0.00000000000E+00 0.  1.
         21   -1    0    0  501  502 -0.00000000000E+00 -0.00000000000E+00 -0.68457009507E+03  0.68457009507E+03  0.00000000000E+00 0.  1.
      99926    2    1    2    0    0  0.00000000000E+00 -0.66613381478E-15 -0.60800876254E+03  0.76113142760E+03  0.45787159200E+03 0.  0.
         25    1    3    3    0    0 -0.77526856789E+02 -0.31845786077E+02 -0.28095042602E+03  0.31875573343E+03  0.12509000000E+03 0.  0.
         25    1    3    3    0    0 -0.47963422383E+01  0.33773735956E+02 -0.76705537713E+02  0.15064832477E+03  0.12509000000E+03 0.  0.
         25    1    3    3    0    0  0.82323199027E+02 -0.19279498790E+01 -0.25035279880E+03  0.29172736940E+03  0.12509000000E+03 0.  0.
<mgrwt>
<rscale>  2 0.45787159E+03</rscale>
<asrwt>0</asrwt>
<pdfrwt beam="1">  1       21 0.11259020E-01 0.45787159E+03</pdfrwt>
<pdfrwt beam="2">  1       21 0.10067207E+00 0.45787159E+03</pdfrwt>
<totfact> 0.48596979E+04</totfact>
</mgrwt>
</event>
<event>
 6    0  0.1576925E-007  0.4538696E+03  0.7546771E-02  0.1026574E+00
         21   -1    0    0  502  501  0.00000000000E+00  0.00000000000E+00  0.13450762596E+03  0.13450762596E+03  0.00000000000E+00 0.  1.
         21   -1    0    0  501  502 -0.00000000000E+00 -0.00000000000E+00 -0.38287355052E+03  0.38287355052E+03  0.00000000000E+00 0.  1.
      99926    2    1    2    0    0  0.71054273576E-14  0.17763568394E-14 -0.24836592457E+03  0.51738117648E+03  0.45386963909E+03 0.  0.
         25    1    3    3    0    0  0.46009965619E+02  0.44241078208E+02 -0.73276783638E+02  0.15840197302E+03  0.12509000000E+03 0.  0.
         25    1    3    3    0    0 -0.10827632301E+03 -0.37811780175E+02 -0.12350839053E+03  0.20989360037E+03  0.12509000000E+03 0.  0.
         25    1    3    3    0    0  0.62266357395E+02 -0.64292980334E+01 -0.51580750401E+02  0.14908560309E+03  0.12509000000E+03 0.  0.
<mgrwt>
<rscale>  2 0.45386964E+03</rscale>
<asrwt>0</asrwt>
<pdfrwt beam="1">  1       21 0.19780534E-01 0.45386964E+03</pdfrwt>
<pdfrwt beam="2">  1       21 0.56304932E-01 0.45386964E+03</pdfrwt>
<totfact> 0.64643871E+04</totfact>
</mgrwt>
</event>
<event>
 6    0  0.1576925E-007  0.4523319E+03  0.7546771E-02  0.1027029E+00
         21   -1    0    0  502  501  0.00000000000E+00  0.00000000000E+00  0.21010879640E+03  0.21010879640E+03  0.00000000000E+00 0. -1.
         21   -1    0    0  501  502 -0.00000000000E+00 -0.00000000000E+00 -0.24345029231E+03  0.24345029231E+03  0.00000000000E+00 0. -1.
      99926    2    1    2    0    0  0.71054273576E-14  0.00000000000E+00 -0.33341495909E+02  0.45355908871E+03  0.45233194847E+03 0.  0.
         25    1    3    3    0    0 -0.29295736043E+02  0.45517723583E+02 -0.57608944257E+01  0.13642140343E+03  0.12509000000E+03 0.  0.
         25    1    3    3    0    0 -0.55871367883E+02 -0.76159871613E+02  0.13609709312E+02  0.15733616266E+03  0.12509000000E+03 0.  0.
         25    1    3    3    0    0  0.85167103926E+02  0.30642148031E+02 -0.41190310795E+02  0.15980152262E+03  0.12509000000E+03 0.  0.
<mgrwt>
<rscale>  2 0.45233195E+03</rscale>
<asrwt>0</asrwt>
<pdfrwt beam="1">  1       21 0.30898353E-01 0.45233195E+03</pdfrwt>
<pdfrwt beam="2">  1       21 0.35801513E-01 0.45233195E+03</pdfrwt>
<totfact> 0.70132630E+04</totfact>
</mgrwt>
</event>
<event>
 6    0  0.1576925E-007  0.4482716E+03  0.7546771E-02  0.1028239E+00
         21   -1    0    0  502  501  0.00000000000E+00  0.00000000000E+00  0.39527660234E+03  0.39527660234E+03  0.00000000000E+00 0.  1.
         21   -1    0    0  501  502 -0.00000000000E+00 -0.00000000000E+00 -0.12709293789E+03  0.12709293789E+03  0.00000000000E+00 0.  1.
      99926    2    1    2    0    0 -0.35527136788E-14  0.00000000000E+00  0.26818366445E+03  0.52236954023E+03  0.44827163492E+03 0.  0.
         25    1    3    3    0    0 -0.28904651957E+02  0.22246620835E+02  0.10107173551E+03  0.16490419904E+03  0.12509000000E+03 0.  0.
         25    1    3    3    0    0 -0.53487819782E+02 -0.49829626575E+02  0.20983717277E+02  0.14639591197E+03  0.12509000000E+03 0.  0.
         25    1    3    3    0    0  0.82392471739E+02  0.27583005740E+02  0.14612821167E+03  0.21106942922E+03  0.12509000000E+03 0.  0.
<mgrwt>
<rscale>  2 0.44827163E+03</rscale>
<asrwt>0</asrwt>
<pdfrwt beam="1">  1       21 0.58128912E-01 0.44827163E+03</pdfrwt>
<pdfrwt beam="2">  1       21 0.18690138E-01 0.44827163E+03</pdfrwt>
<totfact> 0.67241159E+04</totfact>
</mgrwt>
</event>
<event>
 6    0  0.1576925E-007  0.4519835E+03  0.7546771E-02  0.1027132E+00
         21   -1    0    0  502  501  0.00000000000E+00  0.00000000000E+00  0.85309154753E+03  0.85309154753E+03  0.00000000000E+00 0.  1.
         21   -1    0    0  501  502 -0.00000000000E+00 -0.00000000000E+00 -0.59867279621E+02  0.59867279621E+02  0.00000000000E+00 0.  1.
      99926    2    1    2    0    0  0.00000000000E+00  0.71054273576E-14  0.79322426791E+03  0.91295882715E+03  0.45198349624E+03 0.  0.
         25    1    3    3    0    0 -0.35446921088E+02 -0.63160618312E+02  0.41566369629E+03  0.44007904339E+03  0.12509000000E+03 0.  0.
         25    1    3    3    0    0  0.60796099588E+02 -0.56767028495E+01  0.17084137820E+03  0.22036940642E+03  0.12509000000E+03 0.  0.
         25    1    3    3    0    0 -0.25349178500E+02  0.68837321161E+02  0.20671919342E+03  0.25251037733E+03  0.12509000000E+03 0.  0.
<mgrwt>
<rscale>  2 0.45198350E+03</rscale>
<asrwt>0</asrwt>
<pdfrwt beam="1">  1       21 0.12545463E+00 0.45198350E+03</pdfrwt>
<pdfrwt beam="2">  1       21 0.88040122E-02 0.45198350E+03</pdfrwt>
<totfact> 0.43700532E+04</totfact>
</mgrwt>
</event>
<event>
 6    0  0.1576925E-007  0.4592257E+03  0.7546771E-02  0.1025006E+00
         21   -1    0    0  502  501  0.00000000000E+00  0.00000000000E+00  0.24196369068E+03  0.24196369068E+03  0.00000000000E+00 0.  1.
         21   -1    0    0  501  502 -0.00000000000E+00 -0.00000000000E+00 -0.21789248004E+03  0.21789248004E+03  0.00000000000E+00 0.  1.
      99926    2    1    2    0    0 -0.17763568394E-14 -0.71054273576E-14  0.24071210635E+02  0.45985617072E+03  0.45922573378E+03 0.  0.
         25    1    3    3    0    0  0.20369191944E+02 -0.12062606820E+03 -0.20102627871E+02  0.17611693859E+03  0.12509000000E+03 0.  0.
         25    1    3    3    0    0 -0.47132920290E+01  0.72975373089E+02  0.13521718543E+02  0.14552651020E+03  0.12509000000E+03 0.  0.
         25    1    3    3    0    0 -0.15655899915E+02  0.47650695109E+02  0.30652119963E+02  0.13821272194E+03  0.12509000000E+03 0.  0.
<mgrwt>
<rscale>  2 0.45922573E+03</rscale>
<asrwt>0</asrwt>
<pdfrwt beam="1">  1       21 0.35582896E-01 0.45922573E+03</pdfrwt>
<pdfrwt beam="2">  1       21 0.32043012E-01 0.45922573E+03</pdfrwt>
<totfact> 0.65940047E+04</totfact>
</mgrwt>
</event>
<event>
 6    0  0.1576925E-007  0.4697188E+03  0.7546771E-02  0.1022000E+00
         21   -1    0    0  502  501  0.00000000000E+00  0.00000000000E+00  0.13036440131E+03  0.13036440131E+03  0.00000000000E+00 0.  1.
         21   -1    0    0  501  502 -0.00000000000E+00 -0.00000000000E+00 -0.42311352791E+03  0.42311352791E+03  0.00000000000E+00 0.  1.
      99926    2    1    2    0    0  0.00000000000E+00  0.00000000000E+00 -0.29274912659E+03  0.55347792922E+03  0.46971881696E+03 0.  0.
         25    1    3    3    0    0 -0.69421422399E+02  0.26997532184E+02 -0.23791835248E+02  0.14751867731E+03  0.12509000000E+03 0.  0.
         25    1    3    3    0    0  0.91928351772E+02 -0.58440895784E+02 -0.19341158432E+03  0.25479738854E+03  0.12509000000E+03 0.  0.
         25    1    3    3    0    0 -0.22506929372E+02  0.31443363600E+02 -0.75545707028E+02  0.15116186336E+03  0.12509000000E+03 0.  0.
<mgrwt>
<rscale>  2 0.46971882E+03</rscale>
<asrwt>0</asrwt>
<pdfrwt beam="1">  1       21 0.19171236E-01 0.46971882E+03</pdfrwt>
<pdfrwt beam="2">  1       21 0.62222577E-01 0.46971882E+03</pdfrwt>
<totfact> 0.54951029E+04</totfact>
</mgrwt>
</event>
<event>
 6    0  0.1576925E-007  0.4580748E+03  0.7546771E-02  0.1025341E+00
         21   -1    0    0  502  501  0.00000000000E+00  0.00000000000E+00  0.11908436943E+03  0.11908436943E+03  0.00000000000E+00 0. -1.
         21   -1    0    0  501  502 -0.00000000000E+00 -0.00000000000E+00 -0.44051234910E+03  0.44051234910E+03  0.00000000000E+00 0. -1.
      99926    2    1    2    0    0  0.71054273576E-14  0.35527136788E-14 -0.32142797968E+03  0.55959671853E+03  0.45807482060E+03 0.  0.
         25    1    3    3    0    0  0.54257256579E+02 -0.16739449990E+02 -0.19241483071E+03  0.23642130668E+03  0.12509000000E+03 0.  0.
         25    1    3    3    0    0  0.33470289835E+02  0.40286839236E+02 -0.93023847594E+02  0.16445131206E+03  0.12509000000E+03 0.  0.
         25    1    3    3    0    0 -0.87727546414E+02 -0.23547389246E+02 -0.35989301376E+02  0.15872409979E+03  0.12509000000E+03 0.  0.
<mgrwt>
<rscale>  2 0.45807482E+03</rscale>
<asrwt>0</asrwt>
<pdfrwt beam="1">  1       21 0.17512407E-01 0.45807482E+03</pdfrwt>
<pdfrwt beam="2">  1       21 0.64781228E-01 0.45807482E+03</pdfrwt>
<totfact> 0.59769740E+04</totfact>
</mgrwt>
</event>
<event>
 6    0  0.1576925E-007  0.4520043E+03  0.7546771E-02  0.1027126E+00
         21   -1    0    0  502  501  0.00000000000E+00  0.00000000000E+00  0.15863611576E+04  0.15863611576E+04  0.00000000000E+00 0.  1.
         21   -1    0    0  501  502 -0.00000000000E+00 -0.00000000000E+00 -0.32197563230E+02  0.32197563230E+02  0.00000000000E+00 0.  1.
      99926    2    1    2    0    0  0.00000000000E+00  0.00000000000E+00  0.15541635944E+04  0.16185587209E+04  0.45200426404E+03 0.  0.
         25    1    3    3    0    0 -0.41543674804E+02 -0.58791422954E+01  0.37143834057E+03  0.39417558293E+03  0.12509000000E+03 0.  0.
         25    1    3    3    0    0 -0.57614408242E+02  0.56742379860E+02  0.53615030605E+03  0.55645644617E+03  0.12509000000E+03 0.  0.
         25    1    3    3    0    0  0.99158083046E+02 -0.50863237565E+02  0.64657494778E+03  0.66792669176E+03  0.12509000000E+03 0.  0.
<mgrwt>
<rscale>  2 0.45200426E+03</rscale>
<asrwt>0</asrwt>
<pdfrwt beam="1">  1       21 0.23328835E+00 0.45200426E+03</pdfrwt>
<pdfrwt beam="2">  1       21 0.47349368E-02 0.45200426E+03</pdfrwt>
<totfact> 0.21509642E+04</totfact>
</mgrwt>
</event>
<event>
 6    0  0.1576925E-007  0.4568705E+03  0.7546771E-02  0.1025693E+00
         21   -1    0    0  502  501  0.00000000000E+00  0.00000000000E+00  0.13808112525E+03  0.13808112525E+03  0.00000000000E+00 0.  1.
         21   -1    0    0  501  502 -0.00000000000E+00 -0.00000000000E+00 -0.37791304887E+03  0.37791304887E+03  0.00000000000E+00 0.  1.
      99926    2    1    2    0    0  0.14210854715E-13  0.00000000000E+00 -0.23983192362E+03  0.51599417412E+03  0.45687048070E+03 0.  0.
         25    1    3    3    0    0  0.55651602993E+01  0.34452634265E+02 -0.88079163802E+02  0.15691845721E+03  0.12509000000E+03 0.  0.
         25    1    3    3    0    0 -0.77065331687E+02  0.95031541822E+01 -0.14745765787E+03  0.20837620846E+03  0.12509000000E+03 0.  0.
         25    1    3    3    0    0  0.71500171388E+02 -0.43955788447E+02 -0.42951019475E+01  0.15069950845E+03  0.12509000000E+03 0.  0.
<mgrwt>
<rscale>  2 0.45687048E+03</rscale>
<asrwt>0</asrwt>
<pdfrwt beam="1">  1       21 0.20306048E-01 0.45687048E+03</pdfrwt>
<pdfrwt beam="2">  1       21 0.55575448E-01 0.45687048E+03</pdfrwt>
<totfact> 0.63217485E+04</totfact>
</mgrwt>
</event>
<event>
 6    0  0.1576925E-007  0.4414407E+03  0.7546771E-02  0.1030306E+00
         21   -1    0    0  502  501  0.00000000000E+00  0.00000000000E+00  0.30990965873E+03  0.30990965873E+03  0.00000000000E+00 0. -1.
         21   -1    0    0  501  502 -0.00000000000E+00 -0.00000000000E+00 -0.15719892519E+03  0.15719892519E+03  0.00000000000E+00 0. -1.
      99926    2    1    2    0    0  0.00000000000E+00  0.00000000000E+00  0.15271073354E+03  0.46710858392E+03  0.44144066536E+03 0.  0.
         25    1    3    3    0    0  0.70693672990E+02 -0.18030901420E+01  0.94853078359E+02  0.17217857332E+03  0.12509000000E+03 0.  0.
         25    1    3    3    0    0 -0.52799157267E+02 -0.15248224659E+02  0.89778009616E+02  0.16348656970E+03  0.12509000000E+03 0.  0.
         25    1    3    3    0    0 -0.17894515723E+02  0.17051314801E+02 -0.31920354434E+02  0.13144344090E+03  0.12509000000E+03 0.  0.
<mgrwt>
<rscale>  2 0.44144067E+03</rscale>
<asrwt>0</asrwt>
<pdfrwt beam="1">  1       21 0.45574950E-01 0.44144067E+03</pdfrwt>
<pdfrwt beam="2">  1       21 0.23117489E-01 0.44144067E+03</pdfrwt>
<totfact> 0.75448670E+04</totfact>
</mgrwt>
</event>
<event>
 6    0  0.1576925E-007  0.4510902E+03  0.7546771E-02  0.1027397E+00
         21   -1    0    0  502  501  0.00000000000E+00  0.00000000000E+00  0.16476194950E+04  0.16476194950E+04  0.00000000000E+00 0. -1.
         21   -1    0    0  501  502 -0.00000000000E+00 -0.00000000000E+00 -0.30875208111E+02  0.30875208111E+02  0.00000000000E+00 0. -1.
      99926    2    1    2    0    0  0.88817841970E-15  0.71054273576E-14  0.16167442868E+04  0.16784947031E+04  0.45109021180E+03 0.  0.
         25    1    3    3    0    0 -0.23336940189E+02 -0.89493417162E+02  0.38615419020E+03  0.41631268441E+03  0.12509000000E+03 0.  0.
         25    1    3    3    0    0  0.26897505168E+01  0.43560671465E+02  0.80230365638E+03  0.81316875985E+03  0.12509000000E+03 0.  0.
         25    1    3    3    0    0  0.20647189672E+02  0.45932745696E+02  0.42828644026E+03  0.44901325880E+03  0.12509000000E+03 0.  0.
<mgrwt>
<rscale>  2 0.45109021E+03</rscale>
<asrwt>0</asrwt>
<pdfrwt beam="1">  1       21 0.24229692E+00 0.45109021E+03</pdfrwt>
<pdfrwt beam="2">  1       21 0.45404729E-02 0.45109021E+03</pdfrwt>
<totfact> 0.20322775E+04</totfact>
</mgrwt>
</event>
<event>
 6    0  0.1576925E-007  0.4547398E+03  0.7546771E-02  0.1026318E+00
         21   -1    0    0  502  501  0.00000000000E+00  0.00000000000E+00  0.15025453467E+04  0.15025453467E+04  0.00000000000E+00 0. -1.
         21   -1    0    0  501  502 -0.00000000000E+00 -0.00000000000E+00 -0.34406327105E+02  0.34406327105E+02  0.00000000000E+00 0. -1.
      99926    2    1    2    0    0 -0.35527136788E-14  0.14210854715E-13  0.14681390196E+04  0.15369516738E+04  0.45473977916E+03 0.  0.
         25    1    3    3    0    0 -0.82595477555E+02  0.45617429678E+01  0.41439856354E+03  0.44070001131E+03  0.12509000000E+03 0.  0.
         25    1    3    3    0    0  0.53985596670E+02  0.70658283828E+02  0.52062496716E+03  0.54277518574E+03  0.12509000000E+03 0.  0.
         25    1    3    3    0    0  0.28609880885E+02 -0.75220026795E+02  0.53311548890E+03  0.55347647675E+03  0.12509000000E+03 0.  0.
<mgrwt>
<rscale>  2 0.45473978E+03</rscale>
<asrwt>0</asrwt>
<pdfrwt beam="1">  1       21 0.22096251E+00 0.45473978E+03</pdfrwt>
<pdfrwt beam="2">  1       21 0.50597550E-02 0.45473978E+03</pdfrwt>
<totfact> 0.22934186E+04</totfact>
</mgrwt>
</event>
<event>
 6    0  0.1576925E-007  0.4596632E+03  0.7546771E-02  0.1024879E+00
         21   -1    0    0  502  501  0.00000000000E+00  0.00000000000E+00  0.41366214148E+03  0.41366214148E+03  0.00000000000E+00 0. -1.
         21   -1    0    0  501  502 -0.00000000000E+00 -0.00000000000E+00 -0.12769493381E+03  0.12769493381E+03  0.00000000000E+00 0. -1.
      99926    2    1    2    0    0 -0.71054273576E-14  0.00000000000E+00  0.28596720768E+03  0.54135707529E+03  0.45966318006E+03 0.  0.
         25    1    3    3    0    0 -0.57594196404E+02  0.16966611735E+02  0.60179586244E+02  0.15124168762E+03  0.12509000000E+03 0.  0.
         25    1    3    3    0    0 -0.52205663465E+02  0.30541399489E+02  0.13880055678E+03  0.19639580200E+03  0.12509000000E+03 0.  0.
         25    1    3    3    0    0  0.10979985987E+03 -0.47508011224E+02  0.86987064656E+02  0.19371958568E+03  0.12509000000E+03 0.  0.
<mgrwt>
<rscale>  2 0.45966318E+03</rscale>
<asrwt>0</asrwt>
<pdfrwt beam="1">  1       21 0.60832667E-01 0.45966318E+03</pdfrwt>
<pdfrwt beam="2">  1       21 0.18778667E-01 0.45966318E+03</pdfrwt>
<totfact> 0.60188966E+04</totfact>
</mgrwt>
</event>
<event>
 6    0  0.1576925E-007  0.4560280E+03  0.7546771E-02  0.1025940E+00
         21   -1    0    0  502  501  0.00000000000E+00  0.00000000000E+00  0.22946147662E+04  0.22946147662E+04  0.00000000000E+00 0. -1.
         21   -1    0    0  501  502 -0.00000000000E+00 -0.00000000000E+00 -0.22657569560E+02  0.22657569560E+02  0.00000000000E+00 0. -1.
      99926    2    1    2    0    0  0.00000000000E+00 -0.10658141036E-13  0.22719571966E+04  0.23172723357E+04  0.45602804158E+03 0.  0.
         25    1    3    3    0    0  0.57751990876E+02 -0.24703364104E+02  0.75264012982E+03  0.76554570194E+03  0.12509000000E+03 0.  0.
         25    1    3    3    0    0 -0.55620006191E+02  0.85798819561E+02  0.57749356093E+03  0.59966769426E+03  0.12509000000E+03 0.  0.
         25    1    3    3    0    0 -0.21319846851E+01 -0.61095455457E+02  0.94182350585E+03  0.95205893951E+03  0.12509000000E+03 0.  0.
<mgrwt>
<rscale>  2 0.45602804E+03</rscale>
<asrwt>0</asrwt>
<pdfrwt beam="1">  1       21 0.33744319E+00 0.45602804E+03</pdfrwt>
<pdfrwt beam="2">  1       21 0.33319971E-02 0.45602804E+03</pdfrwt>
<totfact> 0.91140232E+03</totfact>
</mgrwt>
</event>
<event>
 6    0  0.1576925E-007  0.4527280E+03  0.7546771E-02  0.1026912E+00
         21   -1    0    0  502  501  0.00000000000E+00  0.00000000000E+00  0.15188183473E+03  0.15188183473E+03  0.00000000000E+00 0. -1.
         21   -1    0    0  501  502 -0.00000000000E+00 -0.00000000000E+00 -0.33737190210E+03  0.33737190210E+03  0.00000000000E+00 0. -1.
      99926    2    1    2    0    0  0.71054273576E-14  0.26645352591E-14 -0.18549006737E+03  0.48925373682E+03  0.45272801316E+03 0.  0.
         25    1    3    3    0    0 -0.34327171401E+02  0.72123749790E+01 -0.67273784675E+01  0.13008896483E+03  0.12509000000E+03 0.  0.
         25    1    3    3    0    0 -0.55144033961E+01  0.72105947246E+02 -0.34394559096E+02  0.14852666450E+03  0.12509000000E+03 0.  0.
         25    1    3    3    0    0  0.39841574798E+02 -0.79318322225E+02 -0.14436812981E+03  0.21063810749E+03  0.12509000000E+03 0.  0.
<mgrwt>
<rscale>  2 0.45272801E+03</rscale>
<asrwt>0</asrwt>
<pdfrwt beam="1">  1       21 0.22335565E-01 0.45272801E+03</pdfrwt>
<pdfrwt beam="2">  1       21 0.49613513E-01 0.45272801E+03</pdfrwt>
<totfact> 0.67236981E+04</totfact>
</mgrwt>
</event>
<event>
 6    0  0.1576925E-007  0.4580460E+03  0.7546771E-02  0.1025349E+00
         21   -1    0    0  502  501  0.00000000000E+00  0.00000000000E+00  0.51864592063E+02  0.51864592063E+02  0.00000000000E+00 0.  1.
         21   -1    0    0  501  502 -0.00000000000E+00 -0.00000000000E+00 -0.10113169564E+04  0.10113169564E+04  0.00000000000E+00 0.  1.
      99926    2    1    2    0    0 -0.53290705182E-14  0.14210854715E-13 -0.95945236431E+03  0.10631815484E+04  0.45804602995E+03 0.  0.
         25    1    3    3    0    0  0.58213742585E+02  0.75298235702E+02 -0.35525790338E+03  0.38847696217E+03  0.12509000000E+03 0.  0.
         25    1    3    3    0    0  0.13011966642E+02 -0.68168343883E+02 -0.39968400624E+03  0.42451271751E+03  0.12509000000E+03 0.  0.
         25    1    3    3    0    0 -0.71225709227E+02 -0.71298918194E+01 -0.20451045469E+03  0.25019186875E+03  0.12509000000E+03 0.  0.
<mgrwt>
<rscale>  2 0.45804603E+03</rscale>
<asrwt>0</asrwt>
<pdfrwt beam="1">  1       21 0.76271461E-02 0.45804603E+03</pdfrwt>
<pdfrwt beam="2">  1       21 0.14872308E+00 0.45804603E+03</pdfrwt>
<totfact> 0.35935526E+04</totfact>
</mgrwt>
</event>
<event>
 6    0  0.1576925E-007  0.4523853E+03  0.7546771E-02  0.1027013E+00
         21   -1    0    0  502  501  0.00000000000E+00  0.00000000000E+00  0.11760492328E+03  0.11760492328E+03  0.00000000000E+00 0. -1.
         21   -1    0    0  501  502 -0.00000000000E+00 -0.00000000000E+00 -0.43504237029E+03  0.43504237029E+03  0.00000000000E+00 0. -1.
      99926    2    1    2    0    0  0.00000000000E+00 -0.71054273576E-14 -0.31743744701E+03  0.55264729357E+03  0.45238534274E+03 0.  0.
         25    1    3    3    0    0  0.21188744060E+02  0.51265356969E+02 -0.14740088062E+03  0.20112589940E+03  0.12509000000E+03 0.  0.
         25    1    3    3    0    0  0.23143404199E+02  0.30431610331E+02 -0.14220240750E+03  0.19321162715E+03  0.12509000000E+03 0.  0.
         25    1    3    3    0    0 -0.44332148259E+02 -0.81696967300E+02 -0.27834158881E+02  0.15830976703E+03  0.12509000000E+03 0.  0.
<mgrwt>
<rscale>  2 0.45238534E+03</rscale>
<asrwt>0</asrwt>
<pdfrwt beam="1">  1       21 0.17294841E-01 0.45238534E+03</pdfrwt>
<pdfrwt beam="2">  1       21 0.63976820E-01 0.45238534E+03</pdfrwt>
<totfact> 0.62984703E+04</totfact>
</mgrwt>
</event>
<event>
 6    0  0.1576925E-007  0.4558869E+03  0.7546771E-02  0.1025981E+00
         21   -1    0    0  502  501  0.00000000000E+00  0.00000000000E+00  0.48116806487E+02  0.48116806487E+02  0.00000000000E+00 0. -1.
         21   -1    0    0  501  502 -0.00000000000E+00 -0.00000000000E+00 -0.10798349831E+04  0.10798349831E+04  0.00000000000E+00 0. -1.
      99926    2    1    2    0    0 -0.17763568394E-14  0.17763568394E-14 -0.10317181766E+04  0.11279517896E+04  0.45588687597E+03 0.  0.
         25    1    3    3    0    0 -0.17693795170E+02  0.77302267115E+02 -0.31109586143E+03  0.34455312215E+03  0.12509000000E+03 0.  0.
         25    1    3    3    0    0  0.15306503744E+02  0.11766006827E+02 -0.17115186965E+03  0.21286897040E+03  0.12509000000E+03 0.  0.
         25    1    3    3    0    0  0.23872914260E+01 -0.89068273943E+02 -0.54947044555E+03  0.57052969705E+03  0.12509000000E+03 0.  0.
<mgrwt>
<rscale>  2 0.45588688E+03</rscale>
<asrwt>0</asrwt>
<pdfrwt beam="1">  1       21 0.70760008E-02 0.45588688E+03</pdfrwt>
<pdfrwt beam="2">  1       21 0.15879927E+00 0.45588688E+03</pdfrwt>
<totfact> 0.34289416E+04</totfact>
</mgrwt>
</event>
<event>
 6    0  0.1576925E-007  0.4729864E+03  0.7546771E-02  0.1021081E+00
         21   -1    0    0  502  501  0.00000000000E+00  0.00000000000E+00  0.15278612758E+04  0.15278612758E+04  0.00000000000E+00 0.  1.
         21   -1    0    0  501  502 -0.00000000000E+00 -0.00000000000E+00 -0.36606088643E+02  0.36606088643E+02  0.00000000000E+00 0.  1.
      99926    2    1    2    0    0  0.00000000000E+00  0.00000000000E+00  0.14912551872E+04  0.15644673645E+04  0.47298636469E+03 0.  0.
         25    1    3    3    0    0  0.10456085429E+01 -0.10019519281E+03  0.47203084582E+03  0.49849854309E+03  0.12509000000E+03 0.  0.
         25    1    3    3    0    0 -0.54387149561E+02  0.65072750794E+02  0.33549722905E+03  0.36796511211E+03  0.12509000000E+03 0.  0.
         25    1    3    3    0    0  0.53341541018E+02  0.35122442013E+02  0.68372711231E+03  0.69800370926E+03  0.12509000000E+03 0.  0.
<mgrwt>
<rscale>  2 0.47298636E+03</rscale>
<asrwt>0</asrwt>
<pdfrwt beam="1">  1       21 0.22468544E+00 0.47298636E+03</pdfrwt>
<pdfrwt beam="2">  1       21 0.53832494E-02 0.47298636E+03</pdfrwt>
<totfact> 0.19389419E+04</totfact>
</mgrwt>
</event>
<event>
 6    0  0.1576925E-007  0.4542304E+03  0.7546771E-02  0.1026468E+00
         21   -1    0    0  502  501  0.00000000000E+00  0.00000000000E+00  0.35674075220E+03  0.35674075220E+03  0.00000000000E+00 0.  1.
         21   -1    0    0  501  502 -0.00000000000E+00 -0.00000000000E+00 -0.14459049172E+03  0.14459049172E+03  0.00000000000E+00 0.  1.
      99926    2    1    2    0    0 -0.71054273576E-14  0.00000000000E+00  0.21215026048E+03  0.50133124392E+03  0.45423042953E+03 0.  0.
         25    1    3    3    0    0 -0.33284112230E+02 -0.45534655548E+02  0.59150225800E+02  0.14942387458E+03  0.12509000000E+03 0.  0.
         25    1    3    3    0    0 -0.50966281509E+02  0.84404023427E+01  0.20901842044E+01  0.13535390357E+03  0.12509000000E+03 0.  0.
         25    1    3    3    0    0  0.84250393739E+02  0.37094253205E+02  0.15090985047E+03  0.21655346577E+03  0.12509000000E+03 0.  0.
<mgrwt>
<rscale>  2 0.45423043E+03</rscale>
<asrwt>0</asrwt>
<pdfrwt beam="1">  1       21 0.52461875E-01 0.45423043E+03</pdfrwt>
<pdfrwt beam="2">  1       21 0.21263308E-01 0.45423043E+03</pdfrwt>
<totfact> 0.65576915E+04</totfact>
</mgrwt>
</event>
<event>
 6    0  0.1576925E-007  0.4568824E+03  0.7546771E-02  0.1025689E+00
         21   -1    0    0  502  501  0.00000000000E+00  0.00000000000E+00  0.90656597533E+03  0.90656597533E+03  0.00000000000E+00 0.  1.
         21   -1    0    0  501  502 -0.00000000000E+00 -0.00000000000E+00 -0.57563806209E+02  0.57563806209E+02  0.00000000000E+00 0.  1.
      99926    2    1    2    0    0 -0.14210854715E-13  0.00000000000E+00  0.84900216912E+03  0.96412978154E+03  0.45688242741E+03 0.  0.
         25    1    3    3    0    0  0.39016056891E+02 -0.54507963992E+02  0.22614940368E+03  0.26699144503E+03  0.12509000000E+03 0.  0.
         25    1    3    3    0    0  0.68303740587E+02  0.27988900311E+02  0.31706629453E+03  0.34875108996E+03  0.12509000000E+03 0.  0.
         25    1    3    3    0    0 -0.10731979748E+03  0.26519063681E+02  0.30578647091E+03  0.34838724655E+03  0.12509000000E+03 0.  0.
<mgrwt>
<rscale>  2 0.45688243E+03</rscale>
<asrwt>0</asrwt>
<pdfrwt beam="1">  1       21 0.13331852E+00 0.45688243E+03</pdfrwt>
<pdfrwt beam="2">  1       21 0.84652662E-02 0.45688243E+03</pdfrwt>
<totfact> 0.39982215E+04</totfact>
</mgrwt>
</event>
<event>
 6    0  0.1576925E-007  0.4586293E+03  0.7546771E-02  0.1025179E+00
         21   -1    0    0  502  501  0.00000000000E+00  0.00000000000E+00  0.88926428759E+03  0.88926428759E+03  0.00000000000E+00 0. -1.
         21   -1    0    0  501  502 -0.00000000000E+00 -0.00000000000E+00 -0.59133393663E+02  0.59133393663E+02  0.00000000000E+00 0. -1.
      99926    2    1    2    0    0  0.35527136788E-14  0.00000000000E+00  0.83013089392E+03  0.94839768125E+03  0.45862932828E+03 0.  0.
         25    1    3    3    0    0 -0.56149047469E+02 -0.41702367143E+02  0.12543559666E+03  0.19045576906E+03  0.12509000000E+03 0.  0.
         25    1    3    3    0    0  0.21484166262E+02  0.68430589753E+02  0.31792408221E+03  0.34909532389E+03  0.12509000000E+03 0.  0.
         25    1    3    3    0    0  0.34664881207E+02 -0.26728222610E+02  0.38677121506E+03  0.40884658831E+03  0.12509000000E+03 0.  0.
<mgrwt>
<rscale>  2 0.45862933E+03</rscale>
<asrwt>0</asrwt>
<pdfrwt beam="1">  1       21 0.13077415E+00 0.45862933E+03</pdfrwt>
<pdfrwt beam="2">  1       21 0.86960878E-02 0.45862933E+03</pdfrwt>
<totfact> 0.40056752E+04</totfact>
</mgrwt>
</event>
<event>
 6    0  0.1576925E-007  0.4477628E+03  0.7546771E-02  0.1028391E+00
         21   -1    0    0  502  501  0.00000000000E+00  0.00000000000E+00  0.47905313856E+03  0.47905313856E+03  0.00000000000E+00 0.  1.
         21   -1    0    0  501  502 -0.00000000000E+00 -0.00000000000E+00 -0.10462904169E+03  0.10462904169E+03  0.00000000000E+00 0.  1.
      99926    2    1    2    0    0 -0.17763568394E-14 -0.14210854715E-13  0.37442409687E+03  0.58368218025E+03  0.44776275328E+03 0.  0.
         25    1    3    3    0    0  0.92157039591E+01  0.78186728019E+02  0.10173548888E+03  0.17943163443E+03  0.12509000000E+03 0.  0.
         25    1    3    3    0    0  0.31030156700E+02  0.19309681968E+02  0.86666125802E+02  0.15650642129E+03  0.12509000000E+03 0.  0.
         25    1    3    3    0    0 -0.40245860659E+02 -0.97496409987E+02  0.18602248219E+03  0.24774412453E+03  0.12509000000E+03 0.  0.
<mgrwt>
<rscale>  2 0.44776275E+03</rscale>
<asrwt>0</asrwt>
<pdfrwt beam="1">  1       21 0.70448990E-01 0.44776275E+03</pdfrwt>
<pdfrwt beam="2">  1       21 0.15386624E-01 0.44776275E+03</pdfrwt>
<totfact> 0.63234733E+04</totfact>
</mgrwt>
</event>
<event>
 6    0  0.1576925E-007  0.4553862E+03  0.7546771E-02  0.1026128E+00
         21   -1    0    0  502  501  0.00000000000E+00  0.00000000000E+00  0.48440174668E+02  0.48440174668E+02  0.00000000000E+00 0. -1.
         21   -1    0    0  501  502 -0.00000000000E+00 -0.00000000000E+00 -0.10702719075E+04  0.10702719075E+04  0.00000000000E+00 0. -1.
      99926    2    1    2    0    0  0.17763568394E-14  0.00000000000E+00 -0.10218317328E+04  0.11187120821E+04  0.45538624547E+03 0.  0.
         25    1    3    3    0    0 -0.19423655588E+02 -0.32860998992E+02 -0.31075711538E+03  0.33715666464E+03  0.12509000000E+03 0.  0.
         25    1    3    3    0    0  0.93055125161E+01  0.62640800300E+02 -0.58361234080E+03  0.60021773954E+03  0.12509000000E+03 0.  0.
         25    1    3    3    0    0  0.10118143072E+02 -0.29779801308E+02 -0.12746227662E+03  0.18133767795E+03  0.12509000000E+03 0.  0.
<mgrwt>
<rscale>  2 0.45538625E+03</rscale>
<asrwt>0</asrwt>
<pdfrwt beam="1">  1       21 0.71235550E-02 0.45538625E+03</pdfrwt>
<pdfrwt beam="2">  1       21 0.15739293E+00 0.45538625E+03</pdfrwt>
<totfact> 0.34739586E+04</totfact>
</mgrwt>
</event>
<event>
 6    0  0.1576925E-007  0.4566069E+03  0.7546771E-02  0.1025770E+00
         21   -1    0    0  502  501  0.00000000000E+00  0.00000000000E+00  0.64635971982E+02  0.64635971982E+02  0.00000000000E+00 0.  1.
         21   -1    0    0  501  502 -0.00000000000E+00 -0.00000000000E+00 -0.80640026493E+03  0.80640026493E+03  0.00000000000E+00 0.  1.
      99926    2    1    2    0    0  0.71054273576E-14  0.00000000000E+00 -0.74176429294E+03  0.87103623691E+03  0.45660689846E+03 0.  0.
         25    1    3    3    0    0 -0.62166731113E+02 -0.64165268719E+02 -0.15489412832E+03  0.21822370003E+03  0.12509000000E+03 0.  0.
         25    1    3    3    0    0  0.66827256426E+02  0.48115756232E+02 -0.23169334547E+03  0.27588099361E+03  0.12509000000E+03 0.  0.
         25    1    3    3    0    0 -0.46605253130E+01  0.16049512487E+02 -0.35517681915E+03  0.37693154327E+03  0.12509000000E+03 0.  0.
<mgrwt>
<rscale>  2 0.45660690E+03</rscale>
<asrwt>0</asrwt>
<pdfrwt beam="1">  1       21 0.95052912E-02 0.45660690E+03</pdfrwt>
<pdfrwt beam="2">  1       21 0.11858826E+00 0.45660690E+03</pdfrwt>
<totfact> 0.43953827E+04</totfact>
</mgrwt>
</event>
<event>
 6    0  0.1576925E-007  0.4517770E+03  0.7546771E-02  0.1027193E+00
         21   -1    0    0  502  501  0.00000000000E+00  0.00000000000E+00  0.51606029443E+02  0.51606029443E+02  0.00000000000E+00 0.  1.
         21   -1    0    0  501  502 -0.00000000000E+00 -0.00000000000E+00 -0.98875299192E+03  0.98875299192E+03  0.00000000000E+00 0.  1.
      99926    2    1    2    0    0 -0.35527136788E-14 -0.35527136788E-14 -0.93714696247E+03  0.10403590214E+04  0.45177700699E+03 0.  0.
         25    1    3    3    0    0 -0.23122497267E+02  0.45004352447E+02 -0.14190659305E+03  0.19581887261E+03  0.12509000000E+03 0.  0.
         25    1    3    3    0    0  0.45723316838E+02 -0.25885546891E+02 -0.56280043987E+03  0.57892359294E+03  0.12509000000E+03 0.  0.
         25    1    3    3    0    0 -0.22600819572E+02 -0.19118805556E+02 -0.23243992955E+03  0.26561655581E+03  0.12509000000E+03 0.  0.
<mgrwt>
<rscale>  2 0.45177701E+03</rscale>
<asrwt>0</asrwt>
<pdfrwt beam="1">  1       21 0.75891225E-02 0.45177701E+03</pdfrwt>
<pdfrwt beam="2">  1       21 0.14540484E+00 0.45177701E+03</pdfrwt>
<totfact> 0.38595049E+04</totfact>
</mgrwt>
</event>
<event>
 6    0  0.1576925E-007  0.4536266E+03  0.7546771E-02  0.1026646E+00
         21   -1    0    0  502  501  0.00000000000E+00  0.00000000000E+00  0.84194891997E+02  0.84194891997E+02  0.00000000000E+00 0.  1.
         21   -1    0    0  501  502 -0.00000000000E+00 -0.00000000000E+00 -0.61101407447E+03  0.61101407447E+03  0.00000000000E+00 0.  1.
      99926    2    1    2    0    0  0.00000000000E+00 -0.35527136788E-14 -0.52681918248E+03  0.69520896647E+03  0.45362656011E+03 0.  0.
         25    1    3    3    0    0 -0.12877786991E+02  0.81040622108E+02 -0.14036725231E+03  0.20514359227E+03  0.12509000000E+03 0.  0.
         25    1    3    3    0    0  0.43391046073E+02 -0.28514184244E+02 -0.89987035485E+02  0.16260693785E+03  0.12509000000E+03 0.  0.
         25    1    3    3    0    0 -0.30513259082E+02 -0.52526437864E+02 -0.29646489468E+03  0.32745843635E+03  0.12509000000E+03 0.  0.
<mgrwt>
<rscale>  2 0.45362656E+03</rscale>
<asrwt>0</asrwt>
<pdfrwt beam="1">  1       21 0.12381602E-01 0.45362656E+03</pdfrwt>
<pdfrwt beam="2">  1       21 0.89855013E-01 0.45362656E+03</pdfrwt>
<totfact> 0.53742488E+04</totfact>
</mgrwt>
</event>
<event>
 6    0  0.1576925E-007  0.4627098E+03  0.7546771E-02  0.1023998E+00
         21   -1    0    0  502  501  0.00000000000E+00  0.00000000000E+00  0.15092438027E+03  0.15092438027E+03  0.00000000000E+00 0.  1.
         21   -1    0    0  501  502 -0.00000000000E+00 -0.00000000000E+00 -0.35464833818E+03  0.35464833818E+03  0.00000000000E+00 0.  1.
      99926    2    1    2    0    0 -0.35527136788E-14  0.35527136788E-14 -0.20372395791E+03  0.50557271845E+03  0.46270976067E+03 0.  0.
         25    1    3    3    0    0 -0.17078750346E+02  0.59860368513E+02 -0.15924054086E+03  0.21184901554E+03  0.12509000000E+03 0.  0.
         25    1    3    3    0    0 -0.19805222476E+02 -0.41301669210E+01  0.34582842238E+02  0.13134986179E+03  0.12509000000E+03 0.  0.
         25    1    3    3    0    0  0.36883972822E+02 -0.55730201592E+02 -0.79066259289E+02  0.16237384112E+03  0.12509000000E+03 0.  0.
<mgrwt>
<rscale>  2 0.46270976E+03</rscale>
<asrwt>0</asrwt>
<pdfrwt beam="1">  1       21 0.22194762E-01 0.46270976E+03</pdfrwt>
<pdfrwt beam="2">  1       21 0.52154167E-01 0.46270976E+03</pdfrwt>
<totfact> 0.61057793E+04</totfact>
</mgrwt>
</event>
<event>
 6    0  0.1576925E-007  0.4575937E+03  0.7546771E-02  0.1025481E+00
         21   -1    0    0  502  501  0.00000000000E+00  0.00000000000E+00  0.12197470925E+03  0.12197470925E+03  0.00000000000E+00 0. -1.
         21   -1    0    0  501  502 -0.00000000000E+00 -0.00000000000E+00 -0.42917084076E+03  0.42917084076E+03  0.00000000000E+00 0. -1.
      99926    2    1    2    0    0 -0.88817841970E-15 -0.44408920985E-14 -0.30719613151E+03  0.55114555002E+03  0.45759365609E+03 0.  0.
         25    1    3    3    0    0  0.12312895626E+02 -0.80086601404E+02 -0.15560592601E+02  0.14985029618E+03  0.12509000000E+03 0.  0.
         25    1    3    3    0    0 -0.53770293186E+01  0.75927995517E+02 -0.12337792174E+03  0.19147739454E+03  0.12509000000E+03 0.  0.
         25    1    3    3    0    0 -0.69358663078E+01  0.41586058878E+01 -0.16825761717E+03  0.20981785930E+03  0.12509000000E+03 0.  0.
<mgrwt>
<rscale>  2 0.45759366E+03</rscale>
<asrwt>0</asrwt>
<pdfrwt beam="1">  1       21 0.17937457E-01 0.45759366E+03</pdfrwt>
<pdfrwt beam="2">  1       21 0.63113360E-01 0.45759366E+03</pdfrwt>
<totfact> 0.60539002E+04</totfact>
</mgrwt>
</event>
<event>
 6    0  0.1576925E-007  0.4623130E+03  0.7546771E-02  0.1024113E+00
         21   -1    0    0  502  501  0.00000000000E+00  0.00000000000E+00  0.32819915958E+04  0.32819915958E+04  0.00000000000E+00 0. -1.
         21   -1    0    0  501  502 -0.00000000000E+00 -0.00000000000E+00 -0.16280764491E+02  0.16280764491E+02  0.00000000000E+00 0. -1.
      99926    2    1    2    0    0  0.00000000000E+00  0.35527136788E-14  0.32657108313E+04  0.32982723602E+04  0.46231302051E+03 0.  0.
         25    1    3    3    0    0 -0.96033528157E+02 -0.25092511286E+02  0.10189351336E+04  0.10313720896E+04  0.12509000000E+03 0.  0.
         25    1    3    3    0    0  0.79485729955E+02 -0.21941087882E+02  0.80292468602E+03  0.81678329569E+03  0.12509000000E+03 0.  0.
         25    1    3    3    0    0  0.16547798202E+02  0.47033599168E+02  0.14438510116E+04  0.14501169749E+04  0.12509000000E+03 0.  0.
<mgrwt>
<rscale>  2 0.46231302E+03</rscale>
<asrwt>0</asrwt>
<pdfrwt beam="1">  1       21 0.48264536E+00 0.46231302E+03</pdfrwt>
<pdfrwt beam="2">  1       21 0.23942323E-02 0.46231302E+03</pdfrwt>
<totfact> 0.17964269E+03</totfact>
</mgrwt>
</event>
<event>
 6    0  0.1576925E-007  0.4575472E+03  0.7546771E-02  0.1025495E+00
         21   -1    0    0  502  501  0.00000000000E+00  0.00000000000E+00  0.45301579789E+03  0.45301579789E+03  0.00000000000E+00 0.  1.
         21   -1    0    0  501  502 -0.00000000000E+00 -0.00000000000E+00 -0.11553099254E+03  0.11553099254E+03  0.00000000000E+00 0.  1.
      99926    2    1    2    0    0  0.20261570199E-14  0.00000000000E+00  0.33748480534E+03  0.56854679043E+03  0.45754722059E+03 0.  0.
         25    1    3    3    0    0  0.80531611956E+02 -0.32738622756E+02  0.13899788387E+03  0.20621609482E+03  0.12509000000E+03 0.  0.
         25    1    3    3    0    0  0.14372207663E+00  0.22127580157E+02  0.18252076017E+02  0.12833665431E+03  0.12509000000E+03 0.  0.
         25    1    3    3    0    0 -0.80675334033E+02  0.10611042599E+02  0.18023484546E+03  0.23399404130E+03  0.12509000000E+03 0.  0.
<mgrwt>
<rscale>  2 0.45754722E+03</rscale>
<asrwt>0</asrwt>
<pdfrwt beam="1">  1       21 0.66619970E-01 0.45754722E+03</pdfrwt>
<pdfrwt beam="2">  1       21 0.16989852E-01 0.45754722E+03</pdfrwt>
<totfact> 0.59450659E+04</totfact>
</mgrwt>
</event>
<event>
 6    0  0.1576925E-007  0.4756476E+03  0.7546771E-02  0.1020338E+00
         21   -1    0    0  502  501  0.00000000000E+00  0.00000000000E+00  0.51846095419E+02  0.51846095419E+02  0.00000000000E+00 0. -1.
         21   -1    0    0  501  502 -0.00000000000E+00 -0.00000000000E+00 -0.10909242394E+04  0.10909242394E+04  0.00000000000E+00 0. -1.
      99926    2    1    2    0    0  0.00000000000E+00  0.00000000000E+00 -0.10390781439E+04  0.11427703348E+04  0.47564760993E+03 0.  0.
         25    1    3    3    0    0  0.16013877562E+02  0.19904554935E+02 -0.28140233049E+03  0.30901038055E+03  0.12509000000E+03 0.  0.
         25    1    3    3    0    0 -0.81557158943E+02  0.95444557393E+01 -0.60695510926E+03  0.62512773061E+03  0.12509000000E+03 0.  0.
         25    1    3    3    0    0  0.65543281380E+02 -0.29449010674E+02 -0.15072070419E+03  0.20863222362E+03  0.12509000000E+03 0.  0.
<mgrwt>
<rscale>  2 0.47564761E+03</rscale>
<asrwt>0</asrwt>
<pdfrwt beam="1">  1       21 0.76244257E-02 0.47564761E+03</pdfrwt>
<pdfrwt beam="2">  1       21 0.16043004E+00 0.47564761E+03</pdfrwt>
<totfact> 0.29058750E+04</totfact>
</mgrwt>
</event>
<event>
 6    0  0.1576925E-007  0.4510185E+03  0.7546771E-02  0.1027419E+00
         21   -1    0    0  502  501  0.00000000000E+00  0.00000000000E+00  0.13408316402E+03  0.13408316402E+03  0.00000000000E+00 0. -1.
         21   -1    0    0  501  502 -0.00000000000E+00 -0.00000000000E+00 -0.37927514823E+03  0.37927514823E+03  0.00000000000E+00 0. -1.
      99926    2    1    2    0    0  0.00000000000E+00  0.00000000000E+00 -0.24519198422E+03  0.51335831225E+03  0.45101845598E+03 0.  0.
         25    1    3    3    0    0 -0.34853982435E+02 -0.83711235623E+02 -0.65945603905E+02  0.16798423091E+03  0.12509000000E+03 0.  0.
         25    1    3    3    0    0 -0.39289741901E+02  0.23354208351E+02 -0.11262987996E+03  0.17441932469E+03  0.12509000000E+03 0.  0.
         25    1    3    3    0    0  0.74143724336E+02  0.60357027272E+02 -0.66616500348E+02  0.17095475664E+03  0.12509000000E+03 0.  0.
<mgrwt>
<rscale>  2 0.45101846E+03</rscale>
<asrwt>0</asrwt>
<pdfrwt beam="1">  1       21 0.19718113E-01 0.45101846E+03</pdfrwt>
<pdfrwt beam="2">  1       21 0.55775757E-01 0.45101846E+03</pdfrwt>
<totfact> 0.66415635E+04</totfact>
</mgrwt>
</event>
<event>
 6    0  0.1576925E-007  0.4575875E+03  0.7546771E-02  0.1025483E+00
         21   -1    0    0  502  501  0.00000000000E+00  0.00000000000E+00  0.44002467324E+03  0.44002467324E+03  0.00000000000E+00 0.  1.
         21   -1    0    0  501  502 -0.00000000000E+00 -0.00000000000E+00 -0.11896281365E+03  0.11896281365E+03  0.00000000000E+00 0.  1.
      99926    2    1    2    0    0  0.00000000000E+00  0.17763568394E-14  0.32106185959E+03  0.55898748688E+03  0.45758747012E+03 0.  0.
         25    1    3    3    0    0  0.15538836792E+02 -0.70256675451E+02  0.40941069627E+02  0.15000378387E+03  0.12509000000E+03 0.  0.
         25    1    3    3    0    0  0.30179441355E+02  0.61804735912E+02  0.67390022484E+02  0.15785926419E+03  0.12509000000E+03 0.  0.
         25    1    3    3    0    0 -0.45718278147E+02  0.84519395392E+01  0.21273076748E+03  0.25112443882E+03  0.12509000000E+03 0.  0.
<mgrwt>
<rscale>  2 0.45758747E+03</rscale>
<asrwt>0</asrwt>
<pdfrwt beam="1">  1       21 0.64709510E-01 0.45758747E+03</pdfrwt>
<pdfrwt beam="2">  1       21 0.17494531E-01 0.45758747E+03</pdfrwt>
<totfact> 0.60038205E+04</totfact>
</mgrwt>
</event>
<event>
 6    0  0.1576925E-007  0.4555594E+03  0.7546771E-02  0.1026077E+00
         21   -1    0    0  502  501  0.00000000000E+00  0.00000000000E+00  0.74397526190E+03  0.74397526190E+03  0.00000000000E+00 0.  1.
         21   -1    0    0  501  502 -0.00000000000E+00 -0.00000000000E+00 -0.69738331691E+02  0.69738331691E+02  0.00000000000E+00 0.  1.
      99926    2    1    2    0    0 -0.35527136788E-14  0.00000000000E+00  0.67423693021E+03  0.81371359359E+03  0.45555940813E+03 0.  0.
         25    1    3    3    0    0 -0.21919028722E+02  0.88913806483E+02  0.29306745848E+03  0.33154509818E+03  0.12509000000E+03 0.  0.
         25    1    3    3    0    0 -0.24225867637E+02 -0.55351623039E+02  0.10662104397E+03  0.17511781735E+03  0.12509000000E+03 0.  0.
         25    1    3    3    0    0  0.46144896359E+02 -0.33562183444E+02  0.27454842775E+03  0.30705067806E+03  0.12509000000E+03 0.  0.
<mgrwt>
<rscale>  2 0.45555941E+03</rscale>
<asrwt>0</asrwt>
<pdfrwt beam="1">  1       21 0.10940812E+00 0.45555941E+03</pdfrwt>
<pdfrwt beam="2">  1       21 0.10255637E-01 0.45555941E+03</pdfrwt>
<totfact> 0.46902420E+04</totfact>
</mgrwt>
</event>
<event>
 6    0  0.1576925E-007  0.4545377E+03  0.7546771E-02  0.1026377E+00
         21   -1    0    0  502  501  0.00000000000E+00  0.00000000000E+00  0.43391791769E+03  0.43391791769E+03  0.00000000000E+00 0. -1.
         21   -1    0    0  501  502 -0.00000000000E+00 -0.00000000000E+00 -0.11903431950E+03  0.11903431950E+03  0.00000000000E+00 0. -1.
      99926    2    1    2    0    0 -0.66613381478E-15  0.00000000000E+00  0.31488359819E+03  0.55295223719E+03  0.45453767303E+03 0.  0.
         25    1    3    3    0    0 -0.15263297817E+01  0.10259273273E+03  0.10666225261E+03  0.19378323644E+03  0.12509000000E+03 0.  0.
         25    1    3    3    0    0  0.35187325724E+02 -0.42806019019E+01  0.90605141095E+02  0.15847167298E+03  0.12509000000E+03 0.  0.
         25    1    3    3    0    0 -0.33660995943E+02 -0.98312130831E+02  0.11761620449E+03  0.20069732777E+03  0.12509000000E+03 0.  0.
<mgrwt>
<rscale>  2 0.45453767E+03</rscale>
<asrwt>0</asrwt>
<pdfrwt beam="1">  1       21 0.63811458E-01 0.45453767E+03</pdfrwt>
<pdfrwt beam="2">  1       21 0.17505047E-01 0.45453767E+03</pdfrwt>
<totfact> 0.61897934E+04</totfact>
</mgrwt>
</event>
<event>
 6    0  0.1576925E-007  0.4542481E+03  0.7546771E-02  0.1026463E+00
         21   -1    0    0  502  501  0.00000000000E+00  0.00000000000E+00  0.10837146965E+03  0.10837146965E+03  0.00000000000E+00 0.  1.
         21   -1    0    0  501  502 -0.00000000000E+00 -0.00000000000E+00 -0.47600465314E+03  0.47600465314E+03  0.00000000000E+00 0.  1.
      99926    2    1    2    0    0  0.00000000000E+00  0.00000000000E+00 -0.36763318349E+03  0.58437612279E+03  0.45424805479E+03 0.  0.
         25    1    3    3    0    0 -0.31232471680E+01  0.61981100827E+02 -0.24739367610E+03  0.28408194348E+03  0.12509000000E+03 0.  0.
         25    1    3    3    0    0  0.23691155935E+02 -0.19316257785E+02 -0.10406342817E+03  0.16556296043E+03  0.12509000000E+03 0.  0.
         25    1    3    3    0    0 -0.20567908767E+02 -0.42664843042E+02 -0.16176079219E+02  0.13473121888E+03  0.12509000000E+03 0.  0.
<mgrwt>
<rscale>  2 0.45424805E+03</rscale>
<asrwt>0</asrwt>
<pdfrwt beam="1">  1       21 0.15936981E-01 0.45424805E+03</pdfrwt>
<pdfrwt beam="2">  1       21 0.70000685E-01 0.45424805E+03</pdfrwt>
<totfact> 0.60006289E+04</totfact>
</mgrwt>
</event>
<event>
 6    0  0.1576925E-007  0.4543917E+03  0.7546771E-02  0.1026420E+00
         21   -1    0    0  502  501  0.00000000000E+00  0.00000000000E+00  0.62733715326E+03  0.62733715326E+03  0.00000000000E+00 0. -1.
         21   -1    0    0  501  502 -0.00000000000E+00 -0.00000000000E+00 -0.82281051048E+02  0.82281051048E+02  0.00000000000E+00 0. -1.
      99926    2    1    2    0    0  0.00000000000E+00  0.00000000000E+00  0.54505610221E+03  0.70961820430E+03  0.45439172673E+03 0.  0.
         25    1    3    3    0    0  0.62183453531E+01  0.21118698490E+01  0.20260902717E+03  0.23820380729E+03  0.12509000000E+03 0.  0.
         25    1    3    3    0    0 -0.98464556900E+02  0.32990696391E+02  0.19947061665E+03  0.25733186748E+03  0.12509000000E+03 0.  0.
         25    1    3    3    0    0  0.92246211547E+02 -0.35102566240E+02  0.14297645839E+03  0.21408252954E+03  0.12509000000E+03 0.  0.
<mgrwt>
<rscale>  2 0.45439173E+03</rscale>
<asrwt>0</asrwt>
<pdfrwt beam="1">  1       21 0.92255461E-01 0.45439173E+03</pdfrwt>
<pdfrwt beam="2">  1       21 0.12100155E-01 0.45439173E+03</pdfrwt>
<totfact> 0.52635317E+04</totfact>
</mgrwt>
</event>
<event>
 6    0  0.1576925E-007  0.4565332E+03  0.7546771E-02  0.1025792E+00
         21   -1    0    0  502  501  0.00000000000E+00  0.00000000000E+00  0.96546837042E+02  0.96546837042E+02  0.00000000000E+00 0.  1.
         21   -1    0    0  501  502 -0.00000000000E+00 -0.00000000000E+00 -0.53969280570E+03  0.53969280570E+03  0.00000000000E+00 0.  1.
      99926    2    1    2    0    0  0.00000000000E+00  0.35527136788E-14 -0.44314596866E+03  0.63623964274E+03  0.45653316797E+03 0.  0.
         25    1    3    3    0    0 -0.14208766853E+01 -0.55273627945E+02 -0.21759898827E+03  0.25700976759E+03  0.12509000000E+03 0.  0.
         25    1    3    3    0    0 -0.57133193668E+02  0.29436827190E+02 -0.39487148542E+02  0.14607351442E+03  0.12509000000E+03 0.  0.
         25    1    3    3    0    0  0.58554070353E+02  0.25836800755E+02 -0.18605983184E+03  0.23315636074E+03  0.12509000000E+03 0.  0.
<mgrwt>
<rscale>  2 0.45653317E+03</rscale>
<asrwt>0</asrwt>
<pdfrwt beam="1">  1       21 0.14198065E-01 0.45653317E+03</pdfrwt>
<pdfrwt beam="2">  1       21 0.79366587E-01 0.45653317E+03</pdfrwt>
<totfact> 0.55822704E+04</totfact>
</mgrwt>
</event>
<event>
 6    0  0.1576925E-007  0.4522415E+03  0.7546771E-02  0.1027056E+00
         21   -1    0    0  502  501  0.00000000000E+00  0.00000000000E+00  0.57897660070E+03  0.57897660070E+03  0.00000000000E+00 0.  1.
         21   -1    0    0  501  502 -0.00000000000E+00 -0.00000000000E+00 -0.88312009345E+02  0.88312009345E+02  0.00000000000E+00 0.  1.
      99926    2    1    2    0    0 -0.11102230246E-14  0.00000000000E+00  0.49066459136E+03  0.66728861005E+03  0.45224147078E+03 0.  0.
         25    1    3    3    0    0  0.91081712364E+02  0.21003217250E+02  0.18931085939E+03  0.24540399965E+03  0.12509000000E+03 0.  0.
         25    1    3    3    0    0  0.18906197076E+01 -0.49637694138E+02  0.16415989949E+03  0.21228154847E+03  0.12509000000E+03 0.  0.
         25    1    3    3    0    0 -0.92972332072E+02  0.28634476888E+02  0.13719383248E+03  0.20960306193E+03  0.12509000000E+03 0.  0.
<mgrwt>
<rscale>  2 0.45224147E+03</rscale>
<asrwt>0</asrwt>
<pdfrwt beam="1">  1       21 0.85143616E-01 0.45224147E+03</pdfrwt>
<pdfrwt beam="2">  1       21 0.12987060E-01 0.45224147E+03</pdfrwt>
<totfact> 0.55921364E+04</totfact>
</mgrwt>
</event>
<event>
 6    0  0.1576925E-007  0.4538475E+03  0.7546771E-02  0.1026581E+00
         21   -1    0    0  502  501  0.00000000000E+00  0.00000000000E+00  0.61333112089E+03  0.61333112089E+03  0.00000000000E+00 0. -1.
         21   -1    0    0  501  502 -0.00000000000E+00 -0.00000000000E+00 -0.83958539374E+02  0.83958539374E+02  0.00000000000E+00 0. -1.
      99926    2    1    2    0    0 -0.14210854715E-13  0.00000000000E+00  0.52937258152E+03  0.69728966027E+03  0.45384748567E+03 0.  0.
         25    1    3    3    0    0  0.77144403437E+02  0.54197823788E+01  0.14806833859E+03  0.20869205547E+03  0.12509000000E+03 0.  0.
         25    1    3    3    0    0 -0.11311638194E+03 -0.30605083354E+02  0.19054960888E+03  0.25629796826E+03  0.12509000000E+03 0.  0.
         25    1    3    3    0    0  0.35971978507E+02  0.25185300975E+02  0.19075463405E+03  0.23229963654E+03  0.12509000000E+03 0.  0.
<mgrwt>
<rscale>  2 0.45384749E+03</rscale>
<asrwt>0</asrwt>
<pdfrwt beam="1">  1       21 0.90195751E-01 0.45384749E+03</pdfrwt>
<pdfrwt beam="2">  1       21 0.12346844E-01 0.45384749E+03</pdfrwt>
<totfact> 0.53534314E+04</totfact>
</mgrwt>
</event>
<event>
 6    0  0.1576925E-007  0.4520351E+03  0.7546771E-02  0.1027117E+00
         21   -1    0    0  502  501  0.00000000000E+00  0.00000000000E+00  0.10373809166E+03  0.10373809166E+03  0.00000000000E+00 0. -1.
         21   -1    0    0  501  502 -0.00000000000E+00 -0.00000000000E+00 -0.49243187692E+03  0.49243187692E+03  0.00000000000E+00 0. -1.
      99926    2    1    2    0    0  0.00000000000E+00  0.00000000000E+00 -0.38869378526E+03  0.59616996858E+03  0.45203514547E+03 0.  0.
         25    1    3    3    0    0  0.46814859013E+02  0.21685142048E+02 -0.15881174109E+03  0.20863976998E+03  0.12509000000E+03 0.  0.
         25    1    3    3    0    0 -0.90163065774E+02 -0.15966029280E+02 -0.19758315252E+03  0.25113920996E+03  0.12509000000E+03 0.  0.
         25    1    3    3    0    0  0.43348206761E+02 -0.57191127677E+01 -0.32298891657E+02  0.13639098864E+03  0.12509000000E+03 0.  0.
<mgrwt>
<rscale>  2 0.45203515E+03</rscale>
<asrwt>0</asrwt>
<pdfrwt beam="1">  1       21 0.15255602E-01 0.45203515E+03</pdfrwt>
<pdfrwt beam="2">  1       21 0.72416452E-01 0.45203515E+03</pdfrwt>
<totfact> 0.60315354E+04</totfact>
</mgrwt>
</event>
<event>
 6    0  0.1576925E-007  0.4550025E+03  0.7546771E-02  0.1026241E+00
         21   -1    0    0  502  501  0.00000000000E+00  0.00000000000E+00  0.79211843042E+02  0.79211843042E+02  0.00000000000E+00 0. -1.
         21   -1    0    0  501  502 -0.00000000000E+00 -0.00000000000E+00 -0.65339758410E+03  0.65339758410E+03  0.00000000000E+00 0. -1.
      99926    2    1    2    0    0  0.00000000000E+00  0.71054273576E-14 -0.57418574106E+03  0.73260942714E+03  0.45500253571E+03 0.  0.
         25    1    3    3    0    0 -0.51885465120E+02  0.87404857314E+02 -0.29375895273E+03  0.33507244139E+03  0.12509000000E+03 0.  0.
         25    1    3    3    0    0  0.64873869247E+02 -0.57299011580E+02 -0.14178804240E+03  0.20794988028E+03  0.12509000000E+03 0.  0.
         25    1    3    3    0    0 -0.12988404127E+02 -0.30105845734E+02 -0.13863874593E+03  0.18958710547E+03  0.12509000000E+03 0.  0.
<mgrwt>
<rscale>  2 0.45500254E+03</rscale>
<asrwt>0</asrwt>
<pdfrwt beam="1">  1       21 0.11648800E-01 0.45500254E+03</pdfrwt>
<pdfrwt beam="2">  1       21 0.96087880E-01 0.45500254E+03</pdfrwt>
<totfact> 0.51166988E+04</totfact>
</mgrwt>
</event>
<event>
 6    0  0.1576925E-007  0.4532823E+03  0.7546771E-02  0.1026748E+00
         21   -1    0    0  502  501  0.00000000000E+00  0.00000000000E+00  0.20546004817E+02  0.20546004817E+02  0.00000000000E+00 0. -1.
         21   -1    0    0  501  502 -0.00000000000E+00 -0.00000000000E+00 -0.25000586084E+04  0.25000586084E+04  0.00000000000E+00 0. -1.
      99926    2    1    2    0    0  0.00000000000E+00  0.00000000000E+00 -0.24795126036E+04  0.25206046132E+04  0.45328232355E+03 0.  0.
         25    1    3    3    0    0 -0.29502396086E+02 -0.65303839819E+02 -0.68149665364E+03  0.69657747587E+03  0.12509000000E+03 0.  0.
         25    1    3    3    0    0  0.41656876993E+02  0.96788952100E+02 -0.72515030016E+03  0.74336657348E+03  0.12509000000E+03 0.  0.
         25    1    3    3    0    0 -0.12154480907E+02 -0.31485112282E+02 -0.10728656498E+04  0.10806605638E+04  0.12509000000E+03 0.  0.
<mgrwt>
<rscale>  2 0.45328232E+03</rscale>
<asrwt>0</asrwt>
<pdfrwt beam="1">  1       21 0.30214733E-02 0.45328232E+03</pdfrwt>
<pdfrwt beam="2">  1       21 0.36765543E+00 0.45328232E+03</pdfrwt>
<totfact> 0.70165019E+03</totfact>
</mgrwt>
</event>
<event>
 6    0  0.1576925E-007  0.4623532E+03  0.7546771E-02  0.1024101E+00
         21   -1    0    0  502  501  0.00000000000E+00  0.00000000000E+00  0.36345722226E+03  0.36345722226E+03  0.00000000000E+00 0. -1.
         21   -1    0    0  501  502 -0.00000000000E+00 -0.00000000000E+00 -0.14703964511E+03  0.14703964511E+03  0.00000000000E+00 0. -1.
      99926    2    1    2    0    0 -0.35527136788E-14 -0.71054273576E-14  0.21641757715E+03  0.51049686737E+03  0.46235320253E+03 0.  0.
         25    1    3    3    0    0 -0.28377205126E+02 -0.53871825712E+02  0.12497756345E+03  0.18701427443E+03  0.12509000000E+03 0.  0.
         25    1    3    3    0    0  0.63420698305E+01  0.10755995483E+03  0.84368649388E+02  0.18540480801E+03  0.12509000000E+03 0.  0.
         25    1    3    3    0    0  0.22035135296E+02 -0.53688129121E+02  0.70713643176E+01  0.13807778492E+03  0.12509000000E+03 0.  0.
<mgrwt>
<rscale>  2 0.46235320E+03</rscale>
<asrwt>0</asrwt>
<pdfrwt beam="1">  1       21 0.53449592E-01 0.46235320E+03</pdfrwt>
<pdfrwt beam="2">  1       21 0.21623477E-01 0.46235320E+03</pdfrwt>
<totfact> 0.60906307E+04</totfact>
</mgrwt>
</event>
<event>
 6    0  0.1576925E-007  0.4527468E+03  0.7546771E-02  0.1026906E+00
         21   -1    0    0  502  501  0.00000000000E+00  0.00000000000E+00  0.13279785834E+03  0.13279785834E+03  0.00000000000E+00 0. -1.
         21   -1    0    0  501  502 -0.00000000000E+00 -0.00000000000E+00 -0.38588665310E+03  0.38588665310E+03  0.00000000000E+00 0. -1.
      99926    2    1    2    0    0 -0.88817841970E-15  0.00000000000E+00 -0.25308879475E+03  0.51868451144E+03  0.45274682150E+03 0.  0.
         25    1    3    3    0    0 -0.18739497380E+02  0.55518325382E+02 -0.25077206256E+02  0.14039169345E+03  0.12509000000E+03 0.  0.
         25    1    3    3    0    0  0.21015196303E+02  0.89337366390E+01 -0.22379567588E+02  0.12911159232E+03  0.12509000000E+03 0.  0.
         25    1    3    3    0    0 -0.22756989228E+01 -0.64452062021E+02 -0.20563202091E+03  0.24918122567E+03  0.12509000000E+03 0.  0.
<mgrwt>
<rscale>  2 0.45274682E+03</rscale>
<asrwt>0</asrwt>
<pdfrwt beam="1">  1       21 0.19529097E-01 0.45274682E+03</pdfrwt>
<pdfrwt beam="2">  1       21 0.56748036E-01 0.45274682E+03</pdfrwt>
<totfact> 0.65133557E+04</totfact>
</mgrwt>
</event>
<event>
 6    0  0.1576925E-007  0.4559048E+03  0.7546771E-02  0.1025976E+00
         21   -1    0    0  502  501  0.00000000000E+00  0.00000000000E+00  0.51708529427E+03  0.51708529427E+03  0.00000000000E+00 0.  1.
         21   -1    0    0  501  502 -0.00000000000E+00 -0.00000000000E+00 -0.10049074279E+03  0.10049074279E+03  0.00000000000E+00 0.  1.
      99926    2    1    2    0    0  0.00000000000E+00  0.53290705182E-14  0.41659455149E+03  0.61757603706E+03  0.45590475017E+03 0.  0.
         25    1    3    3    0    0  0.45973725552E+02  0.49741368068E+01  0.67949105720E+02  0.14967603197E+03  0.12509000000E+03 0.  0.
         25    1    3    3    0    0  0.93103312921E+01 -0.54587994345E+02  0.26961995309E+03  0.30233914500E+03  0.12509000000E+03 0.  0.
         25    1    3    3    0    0 -0.55284056844E+02  0.49613857539E+02  0.79025492675E+02  0.16556086009E+03  0.12509000000E+03 0.  0.
<mgrwt>
<rscale>  2 0.45590475E+03</rscale>
<asrwt>0</asrwt>
<pdfrwt beam="1">  1       21 0.76041953E-01 0.45590475E+03</pdfrwt>
<pdfrwt beam="2">  1       21 0.14778051E-01 0.45590475E+03</pdfrwt>
<totfact> 0.57199470E+04</totfact>
</mgrwt>
</event>
<event>
 6    0  0.1576925E-007  0.4573458E+03  0.7546771E-02  0.1025554E+00
         21   -1    0    0  502  501  0.00000000000E+00  0.00000000000E+00  0.96676814336E+02  0.96676814336E+02  0.00000000000E+00 0. -1.
         21   -1    0    0  501  502 -0.00000000000E+00 -0.00000000000E+00 -0.54088770470E+03  0.54088770470E+03  0.00000000000E+00 0. -1.
      99926    2    1    2    0    0 -0.71054273576E-14  0.00000000000E+00 -0.44421089036E+03  0.63756451903E+03  0.45734582191E+03 0.  0.
         25    1    3    3    0    0  0.64051424541E+02  0.39618247153E+02 -0.19033576733E+03  0.23989039772E+03  0.12509000000E+03 0.  0.
         25    1    3    3    0    0 -0.22360597202E+02  0.60289808794E+02 -0.11495121207E+03  0.18164841482E+03  0.12509000000E+03 0.  0.
         25    1    3    3    0    0 -0.41690827339E+02 -0.99908055947E+02 -0.13892391096E+03  0.21602570649E+03  0.12509000000E+03 0.  0.
<mgrwt>
<rscale>  2 0.45734582E+03</rscale>
<asrwt>0</asrwt>
<pdfrwt beam="1">  1       21 0.14217178E-01 0.45734582E+03</pdfrwt>
<pdfrwt beam="2">  1       21 0.79542312E-01 0.45734582E+03</pdfrwt>
<totfact> 0.55390991E+04</totfact>
</mgrwt>
</event>
<event>
 6    0  0.1576925E-007  0.4636297E+03  0.7546771E-02  0.1023734E+00
         21   -1    0    0  502  501  0.00000000000E+00  0.00000000000E+00  0.75878083356E+02  0.75878083356E+02  0.00000000000E+00 0. -1.
         21   -1    0    0  501  502 -0.00000000000E+00 -0.00000000000E+00 -0.70821673431E+03  0.70821673431E+03  0.00000000000E+00 0. -1.
      99926    2    1    2    0    0  0.00000000000E+00  0.71054273576E-14 -0.63233865096E+03  0.78409481767E+03  0.46362971605E+03 0.  0.
         25    1    3    3    0    0  0.18174813857E+02  0.26050611610E+02 -0.81809991578E+02  0.15280491172E+03  0.12509000000E+03 0.  0.
         25    1    3    3    0    0  0.65134576796E+02 -0.61472088948E+02 -0.25376250647E+03  0.29675621073E+03  0.12509000000E+03 0.  0.
         25    1    3    3    0    0 -0.83309390653E+02  0.35421477338E+02 -0.29676615290E+03  0.33453369522E+03  0.12509000000E+03 0.  0.
<mgrwt>
<rscale>  2 0.46362972E+03</rscale>
<asrwt>0</asrwt>
<pdfrwt beam="1">  1       21 0.11158541E-01 0.46362972E+03</pdfrwt>
<pdfrwt beam="2">  1       21 0.10414952E+00 0.46362972E+03</pdfrwt>
<totfact> 0.45390384E+04</totfact>
</mgrwt>
</event>
<event>
 6    0  0.1576925E-007  0.4610197E+03  0.7546771E-02  0.1024486E+00
         21   -1    0    0  502  501  0.00000000000E+00  0.00000000000E+00  0.14086750057E+04  0.14086750057E+04  0.00000000000E+00 0.  1.
         21   -1    0    0  501  502 -0.00000000000E+00 -0.00000000000E+00 -0.37719697553E+02  0.37719697553E+02  0.00000000000E+00 0.  1.
      99926    2    1    2    0    0  0.00000000000E+00 -0.71054273576E-14  0.13709553081E+04  0.14463947032E+04  0.46101971829E+03 0.  0.
         25    1    3    3    0    0 -0.39369059350E+02  0.35531202856E+02  0.51419144484E+03  0.53183901630E+03  0.12509000000E+03 0.  0.
         25    1    3    3    0    0  0.87894806388E+02 -0.13558345782E+02  0.25502603526E+03  0.29764931125E+03  0.12509000000E+03 0.  0.
         25    1    3    3    0    0 -0.48525747038E+02 -0.21972857074E+02  0.60173782801E+03  0.61690637567E+03  0.12509000000E+03 0.  0.
<mgrwt>
<rscale>  2 0.46101972E+03</rscale>
<asrwt>0</asrwt>
<pdfrwt beam="1">  1       21 0.20715805E+00 0.46101972E+03</pdfrwt>
<pdfrwt beam="2">  1       21 0.55470153E-02 0.46101972E+03</pdfrwt>
<totfact> 0.23980135E+04</totfact>
</mgrwt>
</event>
<event>
 6    0  0.1576925E-007  0.4599558E+03  0.7546771E-02  0.1024794E+00
         21   -1    0    0  502  501  0.00000000000E+00  0.00000000000E+00  0.92570342430E+03  0.92570342430E+03  0.00000000000E+00 0. -1.
         21   -1    0    0  501  502 -0.00000000000E+00 -0.00000000000E+00 -0.57134750011E+02  0.57134750011E+02  0.00000000000E+00 0. -1.
      99926    2    1    2    0    0  0.00000000000E+00  0.00000000000E+00  0.86856867429E+03  0.98283817431E+03  0.45995579671E+03 0.  0.
         25    1    3    3    0    0 -0.59789159470E+02  0.57305049562E+02  0.23238928064E+03  0.27660603419E+03  0.12509000000E+03 0.  0.
         25    1    3    3    0    0 -0.38920680685E+01 -0.99636468200E+02  0.33994370095E+03  0.37570174594E+03  0.12509000000E+03 0.  0.
         25    1    3    3    0    0  0.63681227538E+02  0.42331418638E+02  0.29623569270E+03  0.33053039418E+03  0.12509000000E+03 0.  0.
<mgrwt>
<rscale>  2 0.45995580E+03</rscale>
<asrwt>0</asrwt>
<pdfrwt beam="1">  1       21 0.13613285E+00 0.45995580E+03</pdfrwt>
<pdfrwt beam="2">  1       21 0.84021697E-02 0.45995580E+03</pdfrwt>
<totfact> 0.38332117E+04</totfact>
</mgrwt>
</event>
<event>
 6    0  0.1576925E-007  0.4835968E+03  0.7546771E-02  0.1018151E+00
         21   -1    0    0  502  501  0.00000000000E+00  0.00000000000E+00  0.20439968461E+03  0.20439968461E+03  0.00000000000E+00 0.  1.
         21   -1    0    0  501  502 -0.00000000000E+00 -0.00000000000E+00 -0.28603992164E+03  0.28603992164E+03  0.00000000000E+00 0.  1.
      99926    2    1    2    0    0  0.14210854715E-13  0.00000000000E+00 -0.81640237030E+02  0.49043960625E+03  0.48359681458E+03 0.  0.
         25    1    3    3    0    0  0.11465831515E+02 -0.97499753322E+01  0.12665732637E+02  0.12662723323E+03  0.12509000000E+03 0.  0.
         25    1    3    3    0    0  0.88676659437E+02  0.83898247481E+02 -0.44539627618E+02  0.18037115176E+03  0.12509000000E+03 0.  0.
         25    1    3    3    0    0 -0.10014249095E+03 -0.74148272149E+02 -0.49766342049E+02  0.18344122126E+03  0.12509000000E+03 0.  0.
<mgrwt>
<rscale>  2 0.48359681E+03</rscale>
<asrwt>0</asrwt>
<pdfrwt beam="1">  1       21 0.30058777E-01 0.48359681E+03</pdfrwt>
<pdfrwt beam="2">  1       21 0.42064695E-01 0.48359681E+03</pdfrwt>
<totfact> 0.52879677E+04</totfact>
</mgrwt>
</event>
<event>
 6    0  0.1576925E-007  0.4525548E+03  0.7546771E-02  0.1026963E+00
         21   -1    0    0  502  501  0.00000000000E+00  0.00000000000E+00  0.12132346765E+03  0.12132346765E+03  0.00000000000E+00 0.  1.
         21   -1    0    0  501  502 -0.00000000000E+00 -0.00000000000E+00 -0.42202434332E+03  0.42202434332E+03  0.00000000000E+00 0.  1.
      99926    2    1    2    0    0 -0.14210854715E-13 -0.17763568394E-14 -0.30070087567E+03  0.54334781097E+03  0.45255477796E+03 0.  0.
         25    1    3    3    0    0  0.75756918716E+02 -0.16411210478E+01 -0.16262605630E+03  0.21871567456E+03  0.12509000000E+03 0.  0.
         25    1    3    3    0    0 -0.75661653111E+02  0.15740335260E+02 -0.13705820617E+02  0.14767464753E+03  0.12509000000E+03 0.  0.
         25    1    3    3    0    0 -0.95265605754E-01 -0.14099214213E+02 -0.12436899875E+03  0.17695748887E+03  0.12509000000E+03 0.  0.
<mgrwt>
<rscale>  2 0.45255478E+03</rscale>
<asrwt>0</asrwt>
<pdfrwt beam="1">  1       21 0.17841687E-01 0.45255478E+03</pdfrwt>
<pdfrwt beam="2">  1       21 0.62062403E-01 0.45255478E+03</pdfrwt>
<totfact> 0.63528601E+04</totfact>
</mgrwt>
</event>
<event>
 6    0  0.1576925E-007  0.4554615E+03  0.7546771E-02  0.1026106E+00
         21   -1    0    0  502  501  0.00000000000E+00  0.00000000000E+00  0.17598077950E+03  0.17598077950E+03  0.00000000000E+00 0. -1.
         21   -1    0    0  501  502 -0.00000000000E+00 -0.00000000000E+00 -0.29469858881E+03  0.29469858881E+03  0.00000000000E+00 0. -1.
      99926    2    1    2    0    0  0.62172489379E-14  0.44408920985E-15 -0.11871780930E+03  0.47067936831E+03  0.45546146874E+03 0.  0.
         25    1    3    3    0    0  0.10442243905E+03 -0.33105668024E+02 -0.20903965035E+02  0.16758435156E+03  0.12509000000E+03 0.  0.
         25    1    3    3    0    0 -0.71731531500E+01  0.23184822159E+01 -0.37857352181E+02  0.13091033840E+03  0.12509000000E+03 0.  0.
         25    1    3    3    0    0 -0.97249285898E+02  0.30787185808E+02 -0.59956492086E+02  0.17218467836E+03  0.12509000000E+03 0.  0.
<mgrwt>
<rscale>  2 0.45546147E+03</rscale>
<asrwt>0</asrwt>
<pdfrwt beam="1">  1       21 0.25879527E-01 0.45546147E+03</pdfrwt>
<pdfrwt beam="2">  1       21 0.43338027E-01 0.45546147E+03</pdfrwt>
<totfact> 0.67139091E+04</totfact>
</mgrwt>
</event>
<event>
 6    0  0.1576925E-007  0.4547567E+03  0.7546771E-02  0.1026313E+00
         21   -1    0    0  502  501  0.00000000000E+00  0.00000000000E+00  0.29184204637E+03  0.29184204637E+03  0.00000000000E+00 0.  1.
         21   -1    0    0  501  502 -0.00000000000E+00 -0.00000000000E+00 -0.17715378975E+03  0.17715378975E+03  0.00000000000E+00 0.  1.
      99926    2    1    2    0    0  0.00000000000E+00  0.00000000000E+00  0.11468825661E+03  0.46899583612E+03  0.45475674607E+03 0.  0.
         25    1    3    3    0    0  0.75521181863E+02  0.48043184760E+02  0.12594186627E+02  0.15432990037E+03  0.12509000000E+03 0.  0.
         25    1    3    3    0    0 -0.10724327278E+02 -0.85040002657E+02  0.59709416169E+02  0.16297096590E+03  0.12509000000E+03 0.  0.
         25    1    3    3    0    0 -0.64796854586E+02  0.36996817897E+02  0.42384653818E+02  0.15169496985E+03  0.12509000000E+03 0.  0.
<mgrwt>
<rscale>  2 0.45475675E+03</rscale>
<asrwt>0</asrwt>
<pdfrwt beam="1">  1       21 0.42917948E-01 0.45475675E+03</pdfrwt>
<pdfrwt beam="2">  1       21 0.26052028E-01 0.45475675E+03</pdfrwt>
<totfact> 0.67640931E+04</totfact>
</mgrwt>
</event>
<event>
 6    0  0.1576925E-007  0.4520108E+03  0.7546771E-02  0.1027124E+00
         21   -1    0    0  502  501  0.00000000000E+00  0.00000000000E+00  0.75987287572E+03  0.75987287572E+03  0.00000000000E+00 0.  1.
         21   -1    0    0  501  502 -0.00000000000E+00 -0.00000000000E+00 -0.67219719991E+02  0.67219719991E+02  0.00000000000E+00 0.  1.
      99926    2    1    2    0    0  0.00000000000E+00 -0.35527136788E-14  0.69265315573E+03  0.82709259571E+03  0.45201080489E+03 0.  0.
         25    1    3    3    0    0  0.11579917978E+02 -0.95648599061E+01  0.23497289594E+03  0.26661836203E+03  0.12509000000E+03 0.  0.
         25    1    3    3    0    0  0.14915205898E+02 -0.45376118984E+02  0.75442738201E+02  0.15368985129E+03  0.12509000000E+03 0.  0.
         25    1    3    3    0    0 -0.26495123877E+02  0.54940978890E+02  0.38223752159E+03  0.40678438239E+03  0.12509000000E+03 0.  0.
<mgrwt>
<rscale>  2 0.45201080E+03</rscale>
<asrwt>0</asrwt>
<pdfrwt beam="1">  1       21 0.11174601E+00 0.45201080E+03</pdfrwt>
<pdfrwt beam="2">  1       21 0.98852534E-02 0.45201080E+03</pdfrwt>
<totfact> 0.47588490E+04</totfact>
</mgrwt>
</event>
<event>
 6    0  0.1576925E-007  0.4498015E+03  0.7546771E-02  0.1027781E+00
         21   -1    0    0  502  501  0.00000000000E+00  0.00000000000E+00  0.17170934231E+04  0.17170934231E+04  0.00000000000E+00 0.  1.
         21   -1    0    0  501  502 -0.00000000000E+00 -0.00000000000E+00 -0.29456953424E+02  0.29456953424E+02  0.00000000000E+00 0.  1.
      99926    2    1    2    0    0  0.00000000000E+00  0.00000000000E+00  0.16876364697E+04  0.17465503766E+04  0.44980147171E+03 0.  0.
         25    1    3    3    0    0  0.70955389213E+02  0.38030062796E+02  0.57342173029E+03  0.59240268552E+03  0.12509000000E+03 0.  0.
         25    1    3    3    0    0 -0.84912012214E+02 -0.44582676316E+02  0.80402750730E+03  0.81933229244E+03  0.12509000000E+03 0.  0.
         25    1    3    3    0    0  0.13956623001E+02  0.65526135197E+01  0.31018723212E+03  0.33481539860E+03  0.12509000000E+03 0.  0.
<mgrwt>
<rscale>  2 0.44980147E+03</rscale>
<asrwt>0</asrwt>
<pdfrwt beam="1">  1       21 0.25251367E+00 0.44980147E+03</pdfrwt>
<pdfrwt beam="2">  1       21 0.43319061E-02 0.44980147E+03</pdfrwt>
<totfact> 0.19067488E+04</totfact>
</mgrwt>
</event>
<event>
 6    0  0.1576925E-007  0.4532856E+03  0.7546771E-02  0.1026747E+00
         21   -1    0    0  502  501  0.00000000000E+00  0.00000000000E+00  0.29024743971E+03  0.29024743971E+03  0.00000000000E+00 0. -1.
         21   -1    0    0  501  502 -0.00000000000E+00 -0.00000000000E+00 -0.17697647361E+03  0.17697647361E+03  0.00000000000E+00 0. -1.
      99926    2    1    2    0    0 -0.53290705182E-14  0.71054273576E-14  0.11327096610E+03  0.46722391332E+03  0.45328564219E+03 0.  0.
         25    1    3    3    0    0  0.74906474484E+02  0.56173393678E+02  0.45883409845E+02  0.16284724583E+03  0.12509000000E+03 0.  0.
         25    1    3    3    0    0 -0.42081100816E+01 -0.54097198625E+02  0.83322121974E+02  0.15979455310E+03  0.12509000000E+03 0.  0.
         25    1    3    3    0    0 -0.70698364402E+02 -0.20761950525E+01 -0.15934565715E+02  0.14458211438E+03  0.12509000000E+03 0.  0.
<mgrwt>
<rscale>  2 0.45328564E+03</rscale>
<asrwt>0</asrwt>
<pdfrwt beam="1">  1       21 0.42683447E-01 0.45328564E+03</pdfrwt>
<pdfrwt beam="2">  1       21 0.26025952E-01 0.45328564E+03</pdfrwt>
<totfact> 0.68570582E+04</totfact>
</mgrwt>
</event>
<event>
 6    0  0.1576925E-007  0.4507495E+03  0.7546771E-02  0.1027499E+00
         21   -1    0    0  502  501  0.00000000000E+00  0.00000000000E+00  0.10437075535E+03  0.10437075535E+03  0.00000000000E+00 0. -1.
         21   -1    0    0  501  502 -0.00000000000E+00 -0.00000000000E+00 -0.48666667504E+03  0.48666667504E+03  0.00000000000E+00 0. -1.
      99926    2    1    2    0    0  0.00000000000E+00 -0.71054273576E-14 -0.38229591969E+03  0.59103743039E+03  0.45074945803E+03 0.  0.
         25    1    3    3    0    0 -0.27101669711E+02  0.76552339147E+01 -0.22394487869E+02  0.13016191568E+03  0.12509000000E+03 0.  0.
         25    1    3    3    0    0  0.44410173430E+02  0.56266416112E+02 -0.20984587629E+03  0.25459963272E+03  0.12509000000E+03 0.  0.
         25    1    3    3    0    0 -0.17308503719E+02 -0.63921650026E+02 -0.15005555553E+03  0.20627588198E+03  0.12509000000E+03 0.  0.
<mgrwt>
<rscale>  2 0.45074946E+03</rscale>
<asrwt>0</asrwt>
<pdfrwt beam="1">  1       21 0.15348641E-01 0.45074946E+03</pdfrwt>
<pdfrwt beam="2">  1       21 0.71568628E-01 0.45074946E+03</pdfrwt>
<totfact> 0.61265638E+04</totfact>
</mgrwt>
</event>
<event>
 6    0  0.1576925E-007  0.4533732E+03  0.7546771E-02  0.1026721E+00
         21   -1    0    0  502  501  0.00000000000E+00  0.00000000000E+00  0.22700595234E+03  0.22700595234E+03  0.00000000000E+00 0.  1.
         21   -1    0    0  501  502 -0.00000000000E+00 -0.00000000000E+00 -0.22636769369E+03  0.22636769369E+03  0.00000000000E+00 0.  1.
      99926    2    1    2    0    0  0.00000000000E+00 -0.17763568394E-14  0.63825865072E+00  0.45337364603E+03  0.45337319676E+03 0.  0.
         25    1    3    3    0    0 -0.25484150908E+02  0.82409415646E+02  0.18977099155E+01  0.15196007087E+03  0.12509000000E+03 0.  0.
         25    1    3    3    0    0  0.48004825388E+02 -0.85201178540E+02 -0.48133460942E+02  0.16591576853E+03  0.12509000000E+03 0.  0.
         25    1    3    3    0    0 -0.22520674480E+02  0.27917628940E+01  0.46874009677E+02  0.13549780663E+03  0.12509000000E+03 0.  0.
<mgrwt>
<rscale>  2 0.45337320E+03</rscale>
<asrwt>0</asrwt>
<pdfrwt beam="1">  1       21 0.33383228E-01 0.45337320E+03</pdfrwt>
<pdfrwt beam="2">  1       21 0.33289367E-01 0.45337320E+03</pdfrwt>
<totfact> 0.69563674E+04</totfact>
</mgrwt>
</event>
<event>
 6    0  0.1576925E-007  0.4571332E+03  0.7546771E-02  0.1025616E+00
         21   -1    0    0  502  501  0.00000000000E+00  0.00000000000E+00  0.16136398219E+03  0.16136398219E+03  0.00000000000E+00 0.  1.
         21   -1    0    0  501  502 -0.00000000000E+00 -0.00000000000E+00 -0.32375687033E+03  0.32375687033E+03  0.00000000000E+00 0.  1.
      99926    2    1    2    0    0  0.71054273576E-14  0.14210854715E-13 -0.16239288814E+03  0.48512085252E+03  0.45713323160E+03 0.  0.
         25    1    3    3    0    0 -0.53999293467E+02 -0.73591692524E+02 -0.57562578928E+02  0.16520478049E+03  0.12509000000E+03 0.  0.
         25    1    3    3    0    0 -0.26662844761E+02  0.22899370604E+02  0.17766444849E+01  0.12994596196E+03  0.12509000000E+03 0.  0.
         25    1    3    3    0    0  0.80662138228E+02  0.50692321920E+02 -0.10660695369E+03  0.18997011007E+03  0.12509000000E+03 0.  0.
<mgrwt>
<rscale>  2 0.45713323E+03</rscale>
<asrwt>0</asrwt>
<pdfrwt beam="1">  1       21 0.23729998E-01 0.45713323E+03</pdfrwt>
<pdfrwt beam="2">  1       21 0.47611304E-01 0.45713323E+03</pdfrwt>
<totfact> 0.65217774E+04</totfact>
</mgrwt>
</event>
<event>
 6    0  0.1576925E-007  0.4637989E+03  0.7546771E-02  0.1023685E+00
         21   -1    0    0  502  501  0.00000000000E+00  0.00000000000E+00  0.45784247688E+03  0.45784247688E+03  0.00000000000E+00 0. -1.
         21   -1    0    0  501  502 -0.00000000000E+00 -0.00000000000E+00 -0.11745819378E+03  0.11745819378E+03  0.00000000000E+00 0. -1.
      99926    2    1    2    0    0 -0.17763568394E-14  0.71054273576E-14  0.34038428311E+03  0.57530067066E+03  0.46379888041E+03 0.  0.
         25    1    3    3    0    0  0.15634937967E+02  0.17167883618E+02  0.14025869753E+03  0.18936524984E+03  0.12509000000E+03 0.  0.
         25    1    3    3    0    0 -0.13410928450E+02  0.76041423809E+02  0.21166105882E+02  0.14851822540E+03  0.12509000000E+03 0.  0.
         25    1    3    3    0    0 -0.22240095167E+01 -0.93209307428E+02  0.17895947969E+03  0.23741719542E+03  0.12509000000E+03 0.  0.
<mgrwt>
<rscale>  2 0.46379888E+03</rscale>
<asrwt>0</asrwt>
<pdfrwt beam="1">  1       21 0.67329775E-01 0.46379888E+03</pdfrwt>
<pdfrwt beam="2">  1       21 0.17273264E-01 0.46379888E+03</pdfrwt>
<totfact> 0.56210938E+04</totfact>
</mgrwt>
</event>
<event>
 6    0  0.1576925E-007  0.4548424E+03  0.7546771E-02  0.1026288E+00
         21   -1    0    0  502  501  0.00000000000E+00  0.00000000000E+00  0.94982500258E+03  0.94982500258E+03  0.00000000000E+00 0. -1.
         21   -1    0    0  501  502 -0.00000000000E+00 -0.00000000000E+00 -0.54452569584E+02  0.54452569584E+02  0.00000000000E+00 0. -1.
      99926    2    1    2    0    0  0.00000000000E+00  0.88817841970E-14  0.89537243300E+03  0.10042775722E+04  0.45484244325E+03 0.  0.
         25    1    3    3    0    0  0.57167858212E+02  0.72885889997E+02  0.20584559449E+03  0.25807059857E+03  0.12509000000E+03 0.  0.
         25    1    3    3    0    0  0.43997059775E+01 -0.64680174941E+02  0.41377497934E+03  0.43710424852E+03  0.12509000000E+03 0.  0.
         25    1    3    3    0    0 -0.61567564190E+02 -0.82057150566E+01  0.27575185916E+03  0.30910272508E+03  0.12509000000E+03 0.  0.
<mgrwt>
<rscale>  2 0.45484244E+03</rscale>
<asrwt>0</asrwt>
<pdfrwt beam="1">  1       21 0.13968014E+00 0.45484244E+03</pdfrwt>
<pdfrwt beam="2">  1       21 0.80077314E-02 0.45484244E+03</pdfrwt>
<totfact> 0.39048854E+04</totfact>
</mgrwt>
</event>
<event>
 6    0  0.1576925E-007  0.4545841E+03  0.7546771E-02  0.1026364E+00
         21   -1    0    0  502  501  0.00000000000E+00  0.00000000000E+00  0.62839179295E+03  0.62839179295E+03  0.00000000000E+00 0.  1.
         21   -1    0    0  501  502 -0.00000000000E+00 -0.00000000000E+00 -0.82212531170E+02  0.82212531170E+02  0.00000000000E+00 0.  1.
      99926    2    1    2    0    0  0.00000000000E+00 -0.71054273576E-14  0.54617926178E+03  0.71060432412E+03  0.45458411704E+03 0.  0.
         25    1    3    3    0    0  0.80787114325E+02  0.70774706508E+01  0.10226348013E+03  0.18078156958E+03  0.12509000000E+03 0.  0.
         25    1    3    3    0    0 -0.90652127465E+02 -0.39356308290E+02  0.25563971127E+03  0.30127379125E+03  0.12509000000E+03 0.  0.
         25    1    3    3    0    0  0.98650131401E+01  0.32278837639E+02  0.18827607038E+03  0.22854896329E+03  0.12509000000E+03 0.  0.
<mgrwt>
<rscale>  2 0.45458412E+03</rscale>
<asrwt>0</asrwt>
<pdfrwt beam="1">  1       21 0.92410555E-01 0.45458412E+03</pdfrwt>
<pdfrwt beam="2">  1       21 0.12090078E-01 0.45458412E+03</pdfrwt>
<totfact> 0.52502580E+04</totfact>
</mgrwt>
</event>
<event>
 6    0  0.1576925E-007  0.4539241E+03  0.7546771E-02  0.1026558E+00
         21   -1    0    0  502  501  0.00000000000E+00  0.00000000000E+00  0.11757835631E+03  0.11757835631E+03  0.00000000000E+00 0. -1.
         21   -1    0    0  501  502 -0.00000000000E+00 -0.00000000000E+00 -0.43810595810E+03  0.43810595810E+03  0.00000000000E+00 0. -1.
      99926    2    1    2    0    0  0.00000000000E+00 -0.35527136788E-14 -0.32052760179E+03  0.55568431441E+03  0.45392412777E+03 0.  0.
         25    1    3    3    0    0 -0.59229768798E+02 -0.63621729041E+01 -0.13029196712E+03  0.19018976721E+03  0.12509000000E+03 0.  0.
         25    1    3    3    0    0  0.30495183539E+02 -0.62035666785E+02 -0.24514148307E+02  0.14500631621E+03  0.12509000000E+03 0.  0.
         25    1    3    3    0    0  0.28734585260E+02  0.68397839689E+02 -0.16572148637E+03  0.22048823100E+03  0.12509000000E+03 0.  0.
<mgrwt>
<rscale>  2 0.45392413E+03</rscale>
<asrwt>0</asrwt>
<pdfrwt beam="1">  1       21 0.17290935E-01 0.45392413E+03</pdfrwt>
<pdfrwt beam="2">  1       21 0.64427348E-01 0.45392413E+03</pdfrwt>
<totfact> 0.62018597E+04</totfact>
</mgrwt>
</event>
<event>
 6    0  0.1576925E-007  0.4492527E+03  0.7546771E-02  0.1027945E+00
         21   -1    0    0  502  501  0.00000000000E+00  0.00000000000E+00  0.27361734576E+03  0.27361734576E+03  0.00000000000E+00 0. -1.
         21   -1    0    0  501  502 -0.00000000000E+00 -0.00000000000E+00 -0.18440715359E+03  0.18440715359E+03  0.00000000000E+00 0. -1.
      99926    2    1    2    0    0  0.00000000000E+00 -0.88817841970E-14  0.89210192169E+02  0.45802449935E+03  0.44925269461E+03 0.  0.
         25    1    3    3    0    0  0.47038787075E+02 -0.12421466639E+02  0.78700164510E+02  0.15558973076E+03  0.12509000000E+03 0.  0.
         25    1    3    3    0    0 -0.37612726703E+02  0.66745345541E+02  0.57972762684E+02  0.15772763764E+03  0.12509000000E+03 0.  0.
         25    1    3    3    0    0 -0.94260603727E+01 -0.54323878902E+02 -0.47462735024E+02  0.14470713095E+03  0.12509000000E+03 0.  0.
<mgrwt>
<rscale>  2 0.44925269E+03</rscale>
<asrwt>0</asrwt>
<pdfrwt beam="1">  1       21 0.40237845E-01 0.44925269E+03</pdfrwt>
<pdfrwt beam="2">  1       21 0.27118699E-01 0.44925269E+03</pdfrwt>
<totfact> 0.71544067E+04</totfact>
</mgrwt>
</event>
<event>
 6    0  0.1576925E-007  0.4570765E+03  0.7546771E-02  0.1025633E+00
         21   -1    0    0  502  501  0.00000000000E+00  0.00000000000E+00  0.30827473617E+03  0.30827473617E+03  0.00000000000E+00 0. -1.
         21   -1    0    0  501  502 -0.00000000000E+00 -0.00000000000E+00 -0.16942589678E+03  0.16942589678E+03  0.00000000000E+00 0. -1.
      99926    2    1    2    0    0 -0.35527136788E-14  0.00000000000E+00  0.13884883939E+03  0.47770063295E+03  0.45707646463E+03 0.  0.
         25    1    3    3    0    0  0.12372408575E+01  0.57438109646E+02  0.96420269489E+02  0.16806261831E+03  0.12509000000E+03 0.  0.
         25    1    3    3    0    0  0.19235499752E+02  0.23691094549E+02 -0.44027023976E+02  0.13607776950E+03  0.12509000000E+03 0.  0.
         25    1    3    3    0    0 -0.20472740610E+02 -0.81129204195E+02  0.86455593879E+02  0.17356024514E+03  0.12509000000E+03 0.  0.
<mgrwt>
<rscale>  2 0.45707646E+03</rscale>
<asrwt>0</asrwt>
<pdfrwt beam="1">  1       21 0.45334520E-01 0.45707646E+03</pdfrwt>
<pdfrwt beam="2">  1       21 0.24915573E-01 0.45707646E+03</pdfrwt>
<totfact> 0.65777174E+04</totfact>
</mgrwt>
</event>
<event>
 6    0  0.1576925E-007  0.4483175E+03  0.7546771E-02  0.1028225E+00
         21   -1    0    0  502  501  0.00000000000E+00  0.00000000000E+00  0.10706817518E+04  0.10706817518E+04  0.00000000000E+00 0. -1.
         21   -1    0    0  501  502 -0.00000000000E+00 -0.00000000000E+00 -0.46930052753E+02  0.46930052753E+02  0.00000000000E+00 0. -1.
      99926    2    1    2    0    0 -0.35527136788E-14  0.00000000000E+00  0.10237516991E+04  0.11176118046E+04  0.44831752629E+03 0.  0.
         25    1    3    3    0    0  0.44922339581E+02  0.58382380268E+02  0.33816746012E+03  0.36800986142E+03  0.12509000000E+03 0.  0.
         25    1    3    3    0    0 -0.20752721464E+02  0.21881123040E+02  0.17459322322E+03  0.21688651569E+03  0.12509000000E+03 0.  0.
         25    1    3    3    0    0 -0.24169618117E+02 -0.80263503309E+02  0.51099101574E+03  0.53271542748E+03  0.12509000000E+03 0.  0.
<mgrwt>
<rscale>  2 0.44831753E+03</rscale>
<asrwt>0</asrwt>
<pdfrwt beam="1">  1       21 0.15745318E+00 0.44831753E+03</pdfrwt>
<pdfrwt beam="2">  1       21 0.69014790E-02 0.44831753E+03</pdfrwt>
<totfact> 0.36760465E+04</totfact>
</mgrwt>
</event>
<event>
 6    0  0.1576925E-007  0.4505250E+03  0.7546771E-02  0.1027566E+00
         21   -1    0    0  502  501  0.00000000000E+00  0.00000000000E+00  0.21261334970E+03  0.21261334970E+03  0.00000000000E+00 0. -1.
         21   -1    0    0  501  502 -0.00000000000E+00 -0.00000000000E+00 -0.23866415179E+03  0.23866415179E+03  0.00000000000E+00 0. -1.
      99926    2    1    2    0    0 -0.71054273576E-14  0.00000000000E+00 -0.26050802096E+02  0.45127750149E+03  0.45052495942E+03 0.  0.
         25    1    3    3    0    0  0.39229478865E+02  0.90933322472E+02 -0.21522909144E+02  0.16099243729E+03  0.12509000000E+03 0.  0.
         25    1    3    3    0    0 -0.31345642243E+02 -0.49881302211E+02 -0.55358912701E+02  0.14893895029E+03  0.12509000000E+03 0.  0.
         25    1    3    3    0    0 -0.78838366227E+01 -0.41052020260E+02  0.50831019749E+02  0.14134611391E+03  0.12509000000E+03 0.  0.
<mgrwt>
<rscale>  2 0.45052496E+03</rscale>
<asrwt>0</asrwt>
<pdfrwt beam="1">  1       21 0.31266669E-01 0.45052496E+03</pdfrwt>
<pdfrwt beam="2">  1       21 0.35097669E-01 0.45052496E+03</pdfrwt>
<totfact> 0.71332543E+04</totfact>
</mgrwt>
</event>
<event>
 6    0  0.1576925E-007  0.4551309E+03  0.7546771E-02  0.1026203E+00
         21   -1    0    0  502  501  0.00000000000E+00  0.00000000000E+00  0.23320573240E+03  0.23320573240E+03  0.00000000000E+00 0.  1.
         21   -1    0    0  501  502 -0.00000000000E+00 -0.00000000000E+00 -0.22206153704E+03  0.22206153704E+03  0.00000000000E+00 0.  1.
      99926    2    1    2    0    0  0.00000000000E+00  0.71054273576E-14  0.11144195356E+02  0.45526726944E+03  0.45513085320E+03 0.  0.
         25    1    3    3    0    0  0.20432303572E+02  0.91880428995E+02 -0.39321116338E+02  0.16140988369E+03  0.12509000000E+03 0.  0.
         25    1    3    3    0    0  0.26036356996E+02 -0.42850518802E+02  0.67414398152E+02  0.15068599147E+03  0.12509000000E+03 0.  0.
         25    1    3    3    0    0 -0.46468660568E+02 -0.49029910193E+02 -0.16949086458E+02  0.14317139428E+03  0.12509000000E+03 0.  0.
<mgrwt>
<rscale>  2 0.45513085E+03</rscale>
<asrwt>0</asrwt>
<pdfrwt beam="1">  1       21 0.34294961E-01 0.45513085E+03</pdfrwt>
<pdfrwt beam="2">  1       21 0.32656108E-01 0.45513085E+03</pdfrwt>
<totfact> 0.68454724E+04</totfact>
</mgrwt>
</event>
<event>
 6    0  0.1576925E-007  0.4705564E+03  0.7546771E-02  0.1021763E+00
         21   -1    0    0  502  501  0.00000000000E+00  0.00000000000E+00  0.48783708073E+03  0.48783708073E+03  0.00000000000E+00 0. -1.
         21   -1    0    0  501  502 -0.00000000000E+00 -0.00000000000E+00 -0.11347195999E+03  0.11347195999E+03  0.00000000000E+00 0. -1.
      99926    2    1    2    0    0  0.00000000000E+00  0.14210854715E-13  0.37436512074E+03  0.60130904072E+03  0.47055639282E+03 0.  0.
         25    1    3    3    0    0 -0.30274257285E+02  0.80238036880E+02  0.19830974681E+03  0.24965763957E+03  0.12509000000E+03 0.  0.
         25    1    3    3    0    0  0.41380463482E+02 -0.11295630331E+03  0.11531172213E+03  0.20836451372E+03  0.12509000000E+03 0.  0.
         25    1    3    3    0    0 -0.11106206197E+02  0.32718266434E+02  0.60743651794E+02  0.14328688742E+03  0.12509000000E+03 0.  0.
<mgrwt>
<rscale>  2 0.47055639E+03</rscale>
<asrwt>0</asrwt>
<pdfrwt beam="1">  1       21 0.71740746E-01 0.47055639E+03</pdfrwt>
<pdfrwt beam="2">  1       21 0.16687053E-01 0.47055639E+03</pdfrwt>
<totfact> 0.51915853E+04</totfact>
</mgrwt>
</event>
<event>
 6    0  0.1576925E-007  0.4546091E+03  0.7546771E-02  0.1026356E+00
         21   -1    0    0  502  501  0.00000000000E+00  0.00000000000E+00  0.28146870560E+03  0.28146870560E+03  0.00000000000E+00 0. -1.
         21   -1    0    0  501  502 -0.00000000000E+00 -0.00000000000E+00 -0.18356339626E+03  0.18356339626E+03  0.00000000000E+00 0. -1.
      99926    2    1    2    0    0  0.71054273576E-14  0.00000000000E+00  0.97905309332E+02  0.46503210186E+03  0.45460906960E+03 0.  0.
         25    1    3    3    0    0  0.39989172165E+02  0.62352477981E+01  0.46680527031E+02  0.13951556153E+03  0.12509000000E+03 0.  0.
         25    1    3    3    0    0 -0.69012635687E+02 -0.71176554224E+01 -0.60492212943E+02  0.15530686021E+03  0.12509000000E+03 0.  0.
         25    1    3    3    0    0  0.29023463522E+02  0.88240762434E+00  0.11171699524E+03  0.17020968011E+03  0.12509000000E+03 0.  0.
<mgrwt>
<rscale>  2 0.45460907E+03</rscale>
<asrwt>0</asrwt>
<pdfrwt beam="1">  1       21 0.41392457E-01 0.45460907E+03</pdfrwt>
<pdfrwt beam="2">  1       21 0.26994617E-01 0.45460907E+03</pdfrwt>
<totfact> 0.68018249E+04</totfact>
</mgrwt>
</event>
<event>
 6    0  0.1576925E-007  0.4554533E+03  0.7546771E-02  0.1026108E+00
         21   -1    0    0  502  501  0.00000000000E+00  0.00000000000E+00  0.32270418788E+02  0.32270418788E+02  0.00000000000E+00 0. -1.
         21   -1    0    0  501  502 -0.00000000000E+00 -0.00000000000E+00 -0.16070267510E+04  0.16070267510E+04  0.00000000000E+00 0. -1.
      99926    2    1    2    0    0  0.00000000000E+00 -0.31086244690E-14 -0.15747563322E+04  0.16392971698E+04  0.45545329622E+03 0.  0.
         25    1    3    3    0    0 -0.29518347980E+02  0.69683968460E+02 -0.59007020712E+03  0.60791244909E+03  0.12509000000E+03 0.  0.
         25    1    3    3    0    0 -0.25742224426E+02 -0.68638659641E+02 -0.30030219981E+03  0.33347090882E+03  0.12509000000E+03 0.  0.
         25    1    3    3    0    0  0.55260572406E+02 -0.10453088190E+01 -0.68438392529E+03  0.69791381189E+03  0.12509000000E+03 0.  0.
<mgrwt>
<rscale>  2 0.45545330E+03</rscale>
<asrwt>0</asrwt>
<pdfrwt beam="1">  1       21 0.47456488E-02 0.45545330E+03</pdfrwt>
<pdfrwt beam="2">  1       21 0.23632752E+00 0.45545330E+03</pdfrwt>
<totfact> 0.20483945E+04</totfact>
</mgrwt>
</event>
<event>
 6    0  0.1576925E-007  0.4572244E+03  0.7546771E-02  0.1025589E+00
         21   -1    0    0  502  501  0.00000000000E+00  0.00000000000E+00  0.84816812640E+03  0.84816812640E+03  0.00000000000E+00 0. -1.
         21   -1    0    0  501  502 -0.00000000000E+00 -0.00000000000E+00 -0.61619326717E+02  0.61619326717E+02  0.00000000000E+00 0. -1.
      99926    2    1    2    0    0  0.17763568394E-14  0.00000000000E+00  0.78654879969E+03  0.90978745312E+03  0.45722444769E+03 0.  0.
         25    1    3    3    0    0 -0.91421077297E+01 -0.13389353967E+02  0.76206698761E+02  0.14736967792E+03  0.12509000000E+03 0.  0.
         25    1    3    3    0    0  0.41040302482E+02  0.12659977598E+00  0.48324763388E+03  0.50085936769E+03  0.12509000000E+03 0.  0.
         25    1    3    3    0    0 -0.31898194752E+02  0.13262754191E+02  0.22709446705E+03  0.26155840752E+03  0.12509000000E+03 0.  0.
<mgrwt>
<rscale>  2 0.45722445E+03</rscale>
<asrwt>0</asrwt>
<pdfrwt beam="1">  1       21 0.12473060E+00 0.45722445E+03</pdfrwt>
<pdfrwt beam="2">  1       21 0.90616662E-02 0.45722445E+03</pdfrwt>
<totfact> 0.42075765E+04</totfact>
</mgrwt>
</event>
<event>
 6    0  0.1576925E-007  0.4553284E+03  0.7546771E-02  0.1026145E+00
         21   -1    0    0  502  501  0.00000000000E+00  0.00000000000E+00  0.81401672592E+03  0.81401672592E+03  0.00000000000E+00 0.  1.
         21   -1    0    0  501  502 -0.00000000000E+00 -0.00000000000E+00 -0.63673133995E+02  0.63673133995E+02  0.00000000000E+00 0.  1.
      99926    2    1    2    0    0  0.00000000000E+00  0.14210854715E-13  0.75034359192E+03  0.87768985991E+03  0.45532843559E+03 0.  0.
         25    1    3    3    0    0  0.28029656883E+02  0.68256921543E+02  0.37176843436E+03  0.39912898402E+03  0.12509000000E+03 0.  0.
         25    1    3    3    0    0  0.27817930425E+02 -0.74347530400E+02  0.14256276637E+03  0.20560409282E+03  0.12509000000E+03 0.  0.
         25    1    3    3    0    0 -0.55847587307E+02  0.60906088565E+01  0.23601239120E+03  0.27295678307E+03  0.12509000000E+03 0.  0.
<mgrwt>
<rscale>  2 0.45532844E+03</rscale>
<asrwt>0</asrwt>
<pdfrwt beam="1">  1       21 0.11970834E+00 0.45532844E+03</pdfrwt>
<pdfrwt beam="2">  1       21 0.93636967E-02 0.45532844E+03</pdfrwt>
<totfact> 0.44098845E+04</totfact>
</mgrwt>
</event>
<event>
 6    0  0.1576925E-007  0.4420102E+03  0.7546771E-02  0.1030132E+00
         21   -1    0    0  502  501  0.00000000000E+00  0.00000000000E+00  0.12546655531E+03  0.12546655531E+03  0.00000000000E+00 0.  1.
         21   -1    0    0  501  502 -0.00000000000E+00 -0.00000000000E+00 -0.38929304131E+03  0.38929304131E+03  0.00000000000E+00 0.  1.
      99926    2    1    2    0    0  0.00000000000E+00  0.00000000000E+00 -0.26382648600E+03  0.51475959661E+03  0.44201021209E+03 0.  0.
         25    1    3    3    0    0 -0.42878219068E+02  0.82334283827E+02 -0.10751136246E+03  0.18927143768E+03  0.12509000000E+03 0.  0.
         25    1    3    3    0    0  0.13620929595E+02 -0.65291910462E+02 -0.30780142362E+02  0.14506373964E+03  0.12509000000E+03 0.  0.
         25    1    3    3    0    0  0.29257289473E+02 -0.17042373365E+02 -0.12553498118E+03  0.18042441929E+03  0.12509000000E+03 0.  0.
<mgrwt>
<rscale>  2 0.44201021E+03</rscale>
<asrwt>0</asrwt>
<pdfrwt beam="1">  1       21 0.18450964E-01 0.44201021E+03</pdfrwt>
<pdfrwt beam="2">  1       21 0.57248977E-01 0.44201021E+03</pdfrwt>
<totfact> 0.71314483E+04</totfact>
</mgrwt>
</event>
<event>
 6    0  0.1576925E-007  0.4497956E+03  0.7546771E-02  0.1027783E+00
         21   -1    0    0  502  501  0.00000000000E+00  0.00000000000E+00  0.54060863614E+03  0.54060863614E+03  0.00000000000E+00 0. -1.
         21   -1    0    0  501  502 -0.00000000000E+00 -0.00000000000E+00 -0.93559398449E+02  0.93559398449E+02  0.00000000000E+00 0. -1.
      99926    2    1    2    0    0  0.35527136788E-14  0.00000000000E+00  0.44704923769E+03  0.63416803459E+03  0.44979559266E+03 0.  0.
         25    1    3    3    0    0  0.19335914063E+02 -0.12640283251E+02  0.17359922651E+03  0.21521583092E+03  0.12509000000E+03 0.  0.
         25    1    3    3    0    0 -0.48808687986E+02  0.83804001394E+02  0.83906791972E+02  0.17914590844E+03  0.12509000000E+03 0.  0.
         25    1    3    3    0    0  0.29472773923E+02 -0.71163718143E+02  0.18954321921E+03  0.23980629522E+03  0.12509000000E+03 0.  0.
<mgrwt>
<rscale>  2 0.44979559E+03</rscale>
<asrwt>0</asrwt>
<pdfrwt beam="1">  1       21 0.79501269E-01 0.44979559E+03</pdfrwt>
<pdfrwt beam="2">  1       21 0.13758735E-01 0.44979559E+03</pdfrwt>
<totfact> 0.59009749E+04</totfact>
</mgrwt>
</event>
<event>
 6    0  0.1576925E-007  0.4552044E+03  0.7546771E-02  0.1026181E+00
         21   -1    0    0  502  501  0.00000000000E+00  0.00000000000E+00  0.58796580069E+02  0.58796580069E+02  0.00000000000E+00 0.  1.
         21   -1    0    0  501  502 -0.00000000000E+00 -0.00000000000E+00 -0.88105063231E+03  0.88105063231E+03  0.00000000000E+00 0.  1.
      99926    2    1    2    0    0  0.00000000000E+00  0.13322676296E-14 -0.82225405224E+03  0.93984721238E+03  0.45520441143E+03 0.  0.
         25    1    3    3    0    0  0.46855873845E+02 -0.40322619200E+02 -0.10944014875E+03  0.17733031549E+03  0.12509000000E+03 0.  0.
         25    1    3    3    0    0  0.40387100403E+01 -0.29625455819E+01 -0.39825412178E+03  0.41746729389E+03  0.12509000000E+03 0.  0.
         25    1    3    3    0    0 -0.50894583885E+02  0.43285164782E+02 -0.31455978171E+03  0.34504960300E+03  0.12509000000E+03 0.  0.
<mgrwt>
<rscale>  2 0.45520441E+03</rscale>
<asrwt>0</asrwt>
<pdfrwt beam="1">  1       21 0.86465566E-02 0.45520441E+03</pdfrwt>
<pdfrwt beam="2">  1       21 0.12956626E+00 0.45520441E+03</pdfrwt>
<totfact> 0.41488312E+04</totfact>
</mgrwt>
</event>
<event>
 6    0  0.1576925E-007  0.4556525E+03  0.7546771E-02  0.1026050E+00
         21   -1    0    0  502  501  0.00000000000E+00  0.00000000000E+00  0.22078324087E+03  0.22078324087E+03  0.00000000000E+00 0.  1.
         21   -1    0    0  501  502 -0.00000000000E+00 -0.00000000000E+00 -0.23509397647E+03  0.23509397647E+03  0.00000000000E+00 0.  1.
      99926    2    1    2    0    0  0.35527136788E-14  0.71054273576E-14 -0.14310735603E+02  0.45587721733E+03  0.45565254321E+03 0.  0.
         25    1    3    3    0    0  0.16547965209E+02 -0.55478357582E+02 -0.29495954918E+02  0.14095815964E+03  0.12509000000E+03 0.  0.
         25    1    3    3    0    0 -0.32126853105E+02 -0.23253800937E+02  0.79003793068E+02  0.15317304387E+03  0.12509000000E+03 0.  0.
         25    1    3    3    0    0  0.15578887896E+02  0.78732158518E+02 -0.63818573753E+02  0.16174601383E+03  0.12509000000E+03 0.  0.
<mgrwt>
<rscale>  2 0.45565254E+03</rscale>
<asrwt>0</asrwt>
<pdfrwt beam="1">  1       21 0.32468124E-01 0.45565254E+03</pdfrwt>
<pdfrwt beam="2">  1       21 0.34572644E-01 0.45565254E+03</pdfrwt>
<totfact> 0.68126191E+04</totfact>
</mgrwt>
</event>
<event>
 6    0  0.1576925E-007  0.4581044E+03  0.7546771E-02  0.1025332E+00
         21   -1    0    0  502  501  0.00000000000E+00  0.00000000000E+00  0.64784843857E+03  0.64784843857E+03  0.00000000000E+00 0. -1.
         21   -1    0    0  501  502 -0.00000000000E+00 -0.00000000000E+00 -0.80983316430E+02  0.80983316430E+02  0.00000000000E+00 0. -1.
      99926    2    1    2    0    0  0.71054273576E-14  0.35527136788E-14  0.56686512214E+03  0.72883175500E+03  0.45810442084E+03 0.  0.
         25    1    3    3    0    0  0.40843425841E+01 -0.55167944322E+02  0.83745007655E+02  0.16037742466E+03  0.12509000000E+03 0.  0.
         25    1    3    3    0    0 -0.48392496525E+02  0.77442665675E+02  0.18430200246E+03  0.24073623823E+03  0.12509000000E+03 0.  0.
         25    1    3    3    0    0  0.44308153941E+02 -0.22274721353E+02  0.29881811203E+03  0.32771809210E+03  0.12509000000E+03 0.  0.
<mgrwt>
<rscale>  2 0.45810442E+03</rscale>
<asrwt>0</asrwt>
<pdfrwt beam="1">  1       21 0.95271827E-01 0.45810442E+03</pdfrwt>
<pdfrwt beam="2">  1       21 0.11909312E-01 0.45810442E+03</pdfrwt>
<totfact> 0.50130352E+04</totfact>
</mgrwt>
</event>
<event>
 6    0  0.1576925E-007  0.4508821E+03  0.7546771E-02  0.1027459E+00
         21   -1    0    0  502  501  0.00000000000E+00  0.00000000000E+00  0.12607837578E+04  0.12607837578E+04  0.00000000000E+00 0.  1.
         21   -1    0    0  501  502 -0.00000000000E+00 -0.00000000000E+00 -0.40311177164E+02  0.40311177164E+02  0.00000000000E+00 0.  1.
      99926    2    1    2    0    0  0.14210854715E-13  0.14210854715E-13  0.12204725807E+04  0.13010949350E+04  0.45088214615E+03 0.  0.
         25    1    3    3    0    0  0.77158570179E+02  0.19167711623E+02  0.45330008370E+03  0.47691647078E+03  0.12509000000E+03 0.  0.
         25    1    3    3    0    0 -0.82704972366E+02 -0.70418104860E+02  0.40632694108E+03  0.43880281801E+03  0.12509000000E+03 0.  0.
         25    1    3    3    0    0  0.55464021868E+01  0.51250393236E+02  0.36084555590E+03  0.38537564622E+03  0.12509000000E+03 0.  0.
<mgrwt>
<rscale>  2 0.45088215E+03</rscale>
<asrwt>0</asrwt>
<pdfrwt beam="1">  1       21 0.18540935E+00 0.45088215E+03</pdfrwt>
<pdfrwt beam="2">  1       21 0.59281151E-02 0.45088215E+03</pdfrwt>
<totfact> 0.30033253E+04</totfact>
</mgrwt>
</event>
<event>
 6    0  0.1576925E-007  0.4567764E+03  0.7546771E-02  0.1025720E+00
         21   -1    0    0  502  501  0.00000000000E+00  0.00000000000E+00  0.32091223817E+03  0.32091223817E+03  0.00000000000E+00 0. -1.
         21   -1    0    0  501  502 -0.00000000000E+00 -0.00000000000E+00 -0.16254026167E+03  0.16254026167E+03  0.00000000000E+00 0. -1.
      99926    2    1    2    0    0  0.00000000000E+00  0.00000000000E+00  0.15837197650E+03  0.48345249984E+03  0.45677635300E+03 0.  0.
         25    1    3    3    0    0  0.47233743970E+00  0.26791987786E+01 -0.18646723538E+02  0.12650142137E+03  0.12509000000E+03 0.  0.
         25    1    3    3    0    0 -0.82403316182E+01 -0.21012373689E+02  0.19109279462E+03  0.22950683469E+03  0.12509000000E+03 0.  0.
         25    1    3    3    0    0  0.77679941785E+01  0.18333174911E+02 -0.14074094580E+02  0.12744424379E+03  0.12509000000E+03 0.  0.
<mgrwt>
<rscale>  2 0.45677635E+03</rscale>
<asrwt>0</asrwt>
<pdfrwt beam="1">  1       21 0.47192976E-01 0.45677635E+03</pdfrwt>
<pdfrwt beam="2">  1       21 0.23902980E-01 0.45677635E+03</pdfrwt>
<totfact> 0.65520861E+04</totfact>
</mgrwt>
</event>
<event>
 6    0  0.1576925E-007  0.4527586E+03  0.7546771E-02  0.1026903E+00
         21   -1    0    0  502  501  0.00000000000E+00  0.00000000000E+00  0.36290472856E+02  0.36290472856E+02  0.00000000000E+00 0.  1.
         21   -1    0    0  501  502 -0.00000000000E+00 -0.00000000000E+00 -0.14121500936E+04  0.14121500936E+04  0.00000000000E+00 0.  1.
      99926    2    1    2    0    0 -0.14210854715E-13  0.00000000000E+00 -0.13758596207E+04  0.14484405664E+04  0.45275863168E+03 0.  0.
         25    1    3    3    0    0 -0.92186190854E+02 -0.24868122371E+02 -0.35236095533E+03  0.38590473985E+03  0.12509000000E+03 0.  0.
         25    1    3    3    0    0  0.76581485397E+02  0.14585556021E+02 -0.39889867420E+03  0.42525888907E+03  0.12509000000E+03 0.  0.
         25    1    3    3    0    0  0.15604705457E+02  0.10282566350E+02 -0.62459999116E+03  0.63727693750E+03  0.12509000000E+03 0.  0.
<mgrwt>
<rscale>  2 0.45275863E+03</rscale>
<asrwt>0</asrwt>
<pdfrwt beam="1">  1       21 0.53368332E-02 0.45275863E+03</pdfrwt>
<pdfrwt beam="2">  1       21 0.20766917E+00 0.45275863E+03</pdfrwt>
<totfact> 0.25510605E+04</totfact>
</mgrwt>
</event>
<event>
 6    0  0.1576925E-007  0.4514818E+03  0.7546771E-02  0.1027281E+00
         21   -1    0    0  502  501  0.00000000000E+00  0.00000000000E+00  0.22886290822E+03  0.22886290822E+03  0.00000000000E+00 0.  1.
         21   -1    0    0  501  502 -0.00000000000E+00 -0.00000000000E+00 -0.22266143274E+03  0.22266143274E+03  0.00000000000E+00 0.  1.
      99926    2    1    2    0    0  0.00000000000E+00  0.00000000000E+00  0.62014754856E+01  0.45152434096E+03  0.45148175177E+03 0.  0.
         25    1    3    3    0    0 -0.52729849206E+02  0.64667861133E+02 -0.37177356182E+02  0.15489361889E+03  0.12509000000E+03 0.  0.
         25    1    3    3    0    0 -0.16577944531E+02 -0.12624498738E+02 -0.25882568809E+02  0.12942805601E+03  0.12509000000E+03 0.  0.
         25    1    3    3    0    0  0.69307793737E+02 -0.52043362395E+02  0.69261400476E+02  0.16720266606E+03  0.12509000000E+03 0.  0.
<mgrwt>
<rscale>  2 0.45148175E+03</rscale>
<asrwt>0</asrwt>
<pdfrwt beam="1">  1       21 0.33656310E-01 0.45148175E+03</pdfrwt>
<pdfrwt beam="2">  1       21 0.32744329E-01 0.45148175E+03</pdfrwt>
<totfact> 0.70766969E+04</totfact>
</mgrwt>
</event>
<event>
 6    0  0.1626054E-007  0.4522743E+03  0.7546771E-02  0.1027046E+00
         21   -1    0    0  502  501  0.00000000000E+00  0.00000000000E+00  0.36878211146E+03  0.36878211146E+03  0.00000000000E+00 0.  1.
         21   -1    0    0  501  502 -0.00000000000E+00 -0.00000000000E+00 -0.13866725316E+03  0.13866725316E+03  0.00000000000E+00 0.  1.
      99926    2    1    2    0    0  0.17763568394E-14  0.00000000000E+00  0.23011485830E+03  0.50744936463E+03  0.45227426375E+03 0.  0.
         25    1    3    3    0    0 -0.10395738296E+03  0.55049393123E+01  0.90840149271E+02  0.18637833202E+03  0.12509000000E+03 0.  0.
         25    1    3    3    0    0  0.92656216132E+02  0.13160749944E+02  0.10912253372E+03  0.19056131609E+03  0.12509000000E+03 0.  0.
         25    1    3    3    0    0  0.11301166826E+02 -0.18665689256E+02  0.30152175315E+02  0.13050971651E+03  0.12509000000E+03 0.  0.
<mgrwt>
<rscale>  2 0.45227426E+03</rscale>
<asrwt>0</asrwt>
<pdfrwt beam="1">  1       21 0.54232663E-01 0.45227426E+03</pdfrwt>
<pdfrwt beam="2">  1       21 0.20392243E-01 0.45227426E+03</pdfrwt>
<totfact> 0.66170331E+04</totfact>
</mgrwt>
</event>
<event>
 6    0  0.1576925E-007  0.4555959E+03  0.7546771E-02  0.1026066E+00
         21   -1    0    0  502  501  0.00000000000E+00  0.00000000000E+00  0.31390952211E+02  0.31390952211E+02  0.00000000000E+00 0.  1.
         21   -1    0    0  501  502 -0.00000000000E+00 -0.00000000000E+00 -0.16530845637E+04  0.16530845637E+04  0.00000000000E+00 0.  1.
      99926    2    1    2    0    0  0.71054273576E-14  0.71054273576E-14 -0.16216936115E+04  0.16844755159E+04  0.45559586715E+03 0.  0.
         25    1    3    3    0    0 -0.78774463838E+02  0.38253657214E+02 -0.55107316359E+03  0.57183730043E+03  0.12509000000E+03 0.  0.
         25    1    3    3    0    0  0.24791902157E+02  0.17298642541E+01 -0.76609581619E+03  0.77663887266E+03  0.12509000000E+03 0.  0.
         25    1    3    3    0    0  0.53982561681E+02 -0.39983521468E+02 -0.30452463173E+03  0.33599934284E+03  0.12509000000E+03 0.  0.
<mgrwt>
<rscale>  2 0.45559587E+03</rscale>
<asrwt>0</asrwt>
<pdfrwt beam="1">  1       21 0.46163152E-02 0.45559587E+03</pdfrwt>
<pdfrwt beam="2">  1       21 0.24310074E+00 0.45559587E+03</pdfrwt>
<totfact> 0.19496162E+04</totfact>
</mgrwt>
</event>
<event>
 6    0  0.1576925E-007  0.4525317E+03  0.7546771E-02  0.1026970E+00
         21   -1    0    0  502  501  0.00000000000E+00  0.00000000000E+00  0.99721244934E+03  0.99721244934E+03  0.00000000000E+00 0. -1.
         21   -1    0    0  501  502 -0.00000000000E+00 -0.00000000000E+00 -0.51339337022E+02  0.51339337022E+02  0.00000000000E+00 0. -1.
      99926    2    1    2    0    0  0.00000000000E+00  0.00000000000E+00  0.94587311232E+03  0.10485517864E+04  0.45253166085E+03 0.  0.
         25    1    3    3    0    0  0.49379221061E+02  0.62224328026E+02  0.42264837614E+03  0.44787200451E+03  0.12509000000E+03 0.  0.
         25    1    3    3    0    0 -0.41394400747E+02 -0.98371498981E+02  0.28186888475E+03  0.32632502894E+03  0.12509000000E+03 0.  0.
         25    1    3    3    0    0 -0.79848203142E+01  0.36147170956E+02  0.24135585143E+03  0.27435475290E+03  0.12509000000E+03 0.  0.
<mgrwt>
<rscale>  2 0.45253166E+03</rscale>
<asrwt>0</asrwt>
<pdfrwt beam="1">  1       21 0.14664888E+00 0.45253166E+03</pdfrwt>
<pdfrwt beam="2">  1       21 0.75499031E-02 0.45253166E+03</pdfrwt>
<totfact> 0.38058547E+04</totfact>
</mgrwt>
</event>
<event>
 6    0  0.1576925E-007  0.4606925E+03  0.7546771E-02  0.1024581E+00
         21   -1    0    0  502  501  0.00000000000E+00  0.00000000000E+00  0.38265359813E+03  0.38265359813E+03  0.00000000000E+00 0.  1.
         21   -1    0    0  501  502 -0.00000000000E+00 -0.00000000000E+00 -0.13866170255E+03  0.13866170255E+03  0.00000000000E+00 0.  1.
      99926    2    1    2    0    0  0.00000000000E+00  0.14210854715E-13  0.24399189557E+03  0.52131530068E+03  0.46069251960E+03 0.  0.
         25    1    3    3    0    0  0.36109273492E+02  0.26056502190E+02  0.18273712675E+03  0.22588312582E+03  0.12509000000E+03 0.  0.
         25    1    3    3    0    0 -0.55540224200E+02  0.42484298938E+02  0.46789087877E+02  0.15075264178E+03  0.12509000000E+03 0.  0.
         25    1    3    3    0    0  0.19430950708E+02 -0.68540801128E+02  0.14465680949E+02  0.14467953307E+03  0.12509000000E+03 0.  0.
<mgrwt>
<rscale>  2 0.46069252E+03</rscale>
<asrwt>0</asrwt>
<pdfrwt beam="1">  1       21 0.56272588E-01 0.46069252E+03</pdfrwt>
<pdfrwt beam="2">  1       21 0.20391427E-01 0.46069252E+03</pdfrwt>
<totfact> 0.60995874E+04</totfact>
</mgrwt>
</event>
<event>
 6    0  0.1576925E-007  0.4499307E+03  0.7546771E-02  0.1027743E+00
         21   -1    0    0  502  501  0.00000000000E+00  0.00000000000E+00  0.14296666754E+03  0.14296666754E+03  0.00000000000E+00 0.  1.
         21   -1    0    0  501  502 -0.00000000000E+00 -0.00000000000E+00 -0.35399449038E+03  0.35399449038E+03  0.00000000000E+00 0.  1.
      99926    2    1    2    0    0 -0.10658141036E-13  0.71054273576E-14 -0.21102782284E+03  0.49696115792E+03  0.44993071741E+03 0.  0.
         25    1    3    3    0    0 -0.79659572377E+02  0.45128027908E+02 -0.98204295750E+02  0.18350416393E+03  0.12509000000E+03 0.  0.
         25    1    3    3    0    0  0.68557228494E+02 -0.73508445702E+01 -0.11330169058E+03  0.18231541263E+03  0.12509000000E+03 0.  0.
         25    1    3    3    0    0  0.11102343883E+02 -0.37777183338E+02  0.47816349863E+00  0.13114158136E+03  0.12509000000E+03 0.  0.
<mgrwt>
<rscale>  2 0.44993072E+03</rscale>
<asrwt>0</asrwt>
<pdfrwt beam="1">  1       21 0.21024510E-01 0.44993072E+03</pdfrwt>
<pdfrwt beam="2">  1       21 0.52058012E-01 0.44993072E+03</pdfrwt>
<totfact> 0.68187530E+04</totfact>
</mgrwt>
</event>
<event>
 6    0  0.1576925E-007  0.4397318E+03  0.7546771E-02  0.1030829E+00
         21   -1    0    0  502  501  0.00000000000E+00  0.00000000000E+00  0.17090477543E+03  0.17090477543E+03  0.00000000000E+00 0. -1.
         21   -1    0    0  501  502 -0.00000000000E+00 -0.00000000000E+00 -0.28285348920E+03  0.28285348920E+03  0.00000000000E+00 0. -1.
      99926    2    1    2    0    0  0.00000000000E+00  0.00000000000E+00 -0.11194871378E+03  0.45375826463E+03  0.43973179122E+03 0.  0.
         25    1    3    3    0    0  0.54502306531E+02  0.43007296614E+00 -0.92054000110E+02  0.16459688155E+03  0.12509000000E+03 0.  0.
         25    1    3    3    0    0 -0.15037235970E+02 -0.64851592297E+02 -0.19423517462E+02  0.14302667101E+03  0.12509000000E+03 0.  0.
         25    1    3    3    0    0 -0.39465070561E+02  0.64421519330E+02 -0.47119620386E+00  0.14613471207E+03  0.12509000000E+03 0.  0.
<mgrwt>
<rscale>  2 0.43973179E+03</rscale>
<asrwt>0</asrwt>
<pdfrwt beam="1">  1       21 0.25133055E-01 0.43973179E+03</pdfrwt>
<pdfrwt beam="2">  1       21 0.41596101E-01 0.43973179E+03</pdfrwt>
<totfact> 0.77649491E+04</totfact>
</mgrwt>
</event>
<event>
 6    0  0.1576925E-007  0.4671210E+03  0.7546771E-02  0.1022736E+00
         21   -1    0    0  502  501  0.00000000000E+00  0.00000000000E+00  0.53358500706E+03  0.53358500706E+03  0.00000000000E+00 0. -1.
         21   -1    0    0  501  502 -0.00000000000E+00 -0.00000000000E+00 -0.10223395381E+03  0.10223395381E+03  0.00000000000E+00 0. -1.
      99926    2    1    2    0    0 -0.35527136788E-14  0.35527136788E-14  0.43135105325E+03  0.63581896087E+03  0.46712099060E+03 0.  0.
         25    1    3    3    0    0  0.33994194507E+02 -0.17902085979E+02  0.31350665713E+03  0.33972050586E+03  0.12509000000E+03 0.  0.
         25    1    3    3    0    0  0.25417048436E+02  0.19169577038E+02  0.82436429416E+02  0.15315603818E+03  0.12509000000E+03 0.  0.
         25    1    3    3    0    0 -0.59411242944E+02 -0.12674910586E+01  0.35407966707E+02  0.14294241683E+03  0.12509000000E+03 0.  0.
<mgrwt>
<rscale>  2 0.46712099E+03</rscale>
<asrwt>0</asrwt>
<pdfrwt beam="1">  1       21 0.78468382E-01 0.46712099E+03</pdfrwt>
<pdfrwt beam="2">  1       21 0.15034405E-01 0.46712099E+03</pdfrwt>
<totfact> 0.51426276E+04</totfact>
</mgrwt>
</event>
<event>
 6    0  0.1576925E-007  0.4566751E+03  0.7546771E-02  0.1025750E+00
         21   -1    0    0  502  501  0.00000000000E+00  0.00000000000E+00  0.52079261915E+02  0.52079261915E+02  0.00000000000E+00 0.  1.
         21   -1    0    0  501  502 -0.00000000000E+00 -0.00000000000E+00 -0.10011286539E+04  0.10011286539E+04  0.00000000000E+00 0.  1.
      99926    2    1    2    0    0  0.88817841970E-15 -0.53290705182E-14 -0.94904939199E+03  0.10532079158E+04  0.45667512031E+03 0.  0.
         25    1    3    3    0    0  0.92646523364E+00  0.15220565428E+02 -0.38136452435E+03  0.40164528191E+03  0.12509000000E+03 0.  0.
         25    1    3    3    0    0  0.43414458815E+02  0.76408487598E+02 -0.21560151997E+03  0.26430020001E+03  0.12509000000E+03 0.  0.
         25    1    3    3    0    0 -0.44340924048E+02 -0.91629053026E+02 -0.35208334768E+03  0.38726243391E+03  0.12509000000E+03 0.  0.
<mgrwt>
<rscale>  2 0.45667512E+03</rscale>
<asrwt>0</asrwt>
<pdfrwt beam="1">  1       21 0.76587147E-02 0.45667512E+03</pdfrwt>
<pdfrwt beam="2">  1       21 0.14722481E+00 0.45667512E+03</pdfrwt>
<totfact> 0.36678005E+04</totfact>
</mgrwt>
</event>
<event>
 6    0  0.1576925E-007  0.4626243E+03  0.7546771E-02  0.1024023E+00
         21   -1    0    0  502  501  0.00000000000E+00  0.00000000000E+00  0.58124458027E+02  0.58124458027E+02  0.00000000000E+00 0. -1.
         21   -1    0    0  501  502 -0.00000000000E+00 -0.00000000000E+00 -0.92052987826E+03  0.92052987826E+03  0.00000000000E+00 0. -1.
      99926    2    1    2    0    0  0.71054273576E-14  0.00000000000E+00 -0.86240542023E+03  0.97865433629E+03  0.46262425475E+03 0.  0.
         25    1    3    3    0    0 -0.58201836733E+02 -0.41123231334E+02 -0.45868061282E+03  0.48074316077E+03  0.12509000000E+03 0.  0.
         25    1    3    3    0    0  0.37815597223E+02  0.71131149119E+02 -0.14250301965E+03  0.20602009241E+03  0.12509000000E+03 0.  0.
         25    1    3    3    0    0  0.20386239510E+02 -0.30007917784E+02 -0.26122178776E+03  0.29189108310E+03  0.12509000000E+03 0.  0.
<mgrwt>
<rscale>  2 0.46262425E+03</rscale>
<asrwt>0</asrwt>
<pdfrwt beam="1">  1       21 0.85477153E-02 0.46262425E+03</pdfrwt>
<pdfrwt beam="2">  1       21 0.13537203E+00 0.46262425E+03</pdfrwt>
<totfact> 0.37703848E+04</totfact>
</mgrwt>
</event>
<event>
 6    0  0.1576925E-007  0.4445181E+03  0.7546771E-02  0.1029370E+00
         21   -1    0    0  502  501  0.00000000000E+00  0.00000000000E+00  0.82784566052E+03  0.82784566052E+03  0.00000000000E+00 0. -1.
         21   -1    0    0  501  502 -0.00000000000E+00 -0.00000000000E+00 -0.59671853469E+02  0.59671853469E+02  0.00000000000E+00 0. -1.
      99926    2    1    2    0    0  0.71054273576E-14  0.00000000000E+00  0.76817380705E+03  0.88751751399E+03  0.44451809839E+03 0.  0.
         25    1    3    3    0    0 -0.62795247150E+02  0.44423127088E+02  0.14333628195E+03  0.20520588468E+03  0.12509000000E+03 0.  0.
         25    1    3    3    0    0  0.70875771273E+02 -0.36317932751E+02  0.32555412686E+03  0.35773644602E+03  0.12509000000E+03 0.  0.
         25    1    3    3    0    0 -0.80805241226E+01 -0.81051943373E+01  0.29928339824E+03  0.32457518329E+03  0.12509000000E+03 0.  0.
<mgrwt>
<rscale>  2 0.44451810E+03</rscale>
<asrwt>0</asrwt>
<pdfrwt beam="1">  1       21 0.12174200E+00 0.44451810E+03</pdfrwt>
<pdfrwt beam="2">  1       21 0.87752731E-02 0.44451810E+03</pdfrwt>
<totfact> 0.47562661E+04</totfact>
</mgrwt>
</event>
<event>
 6    0  0.1576925E-007  0.4228599E+03  0.7546771E-02  0.1036140E+00
         21   -1    0    0  502  501  0.00000000000E+00  0.00000000000E+00  0.53035395023E+02  0.53035395023E+02  0.00000000000E+00 0.  1.
         21   -1    0    0  501  502 -0.00000000000E+00 -0.00000000000E+00 -0.84288296319E+03  0.84288296319E+03  0.00000000000E+00 0.  1.
      99926    2    1    2    0    0  0.00000000000E+00  0.97699626167E-14 -0.78984756817E+03  0.89591835821E+03  0.42285993384E+03 0.  0.
         25    1    3    3    0    0  0.31512592213E+02  0.61032112281E+02 -0.34753076960E+03  0.37569017304E+03  0.12509000000E+03 0.  0.
         25    1    3    3    0    0 -0.42812738776E+02  0.41835712895E+01 -0.21855215202E+03  0.25546620936E+03  0.12509000000E+03 0.  0.
         25    1    3    3    0    0  0.11300146562E+02 -0.65215683570E+02 -0.22376464654E+03  0.26476197582E+03  0.12509000000E+03 0.  0.
<mgrwt>
<rscale>  2 0.42285993E+03</rscale>
<asrwt>0</asrwt>
<pdfrwt beam="1">  1       21 0.77993225E-02 0.42285993E+03</pdfrwt>
<pdfrwt beam="2">  1       21 0.12395338E+00 0.42285993E+03</pdfrwt>
<totfact> 0.56289639E+04</totfact>
</mgrwt>
</event>
<event>
 6    0  0.1576925E-007  0.4644268E+03  0.7546771E-02  0.1023505E+00
         21   -1    0    0  502  501  0.00000000000E+00  0.00000000000E+00  0.61847894378E+03  0.61847894378E+03  0.00000000000E+00 0. -1.
         21   -1    0    0  501  502 -0.00000000000E+00 -0.00000000000E+00 -0.87186563419E+02  0.87186563419E+02  0.00000000000E+00 0. -1.
      99926    2    1    2    0    0 -0.71054273576E-14  0.00000000000E+00  0.53129238036E+03  0.70566550720E+03  0.46442675916E+03 0.  0.
         25    1    3    3    0    0  0.40467953249E+02 -0.14702039811E+02  0.12204703626E+03  0.17999108971E+03  0.12509000000E+03 0.  0.
         25    1    3    3    0    0 -0.66956590198E+01  0.84844370907E+02  0.95124932718E+02  0.17871670333E+03  0.12509000000E+03 0.  0.
         25    1    3    3    0    0 -0.33772294229E+02 -0.70142331096E+02  0.31412041138E+03  0.34695771416E+03  0.12509000000E+03 0.  0.
<mgrwt>
<rscale>  2 0.46442676E+03</rscale>
<asrwt>0</asrwt>
<pdfrwt beam="1">  1       21 0.90952784E-01 0.46442676E+03</pdfrwt>
<pdfrwt beam="2">  1       21 0.12821554E-01 0.46442676E+03</pdfrwt>
<totfact> 0.48869275E+04</totfact>
</mgrwt>
</event>
<event>
 6    0  0.1576925E-007  0.4603845E+03  0.7546771E-02  0.1024670E+00
         21   -1    0    0  502  501  0.00000000000E+00  0.00000000000E+00  0.26472078115E+03  0.26472078115E+03  0.00000000000E+00 0. -1.
         21   -1    0    0  501  502 -0.00000000000E+00 -0.00000000000E+00 -0.20016740180E+03  0.20016740180E+03  0.00000000000E+00 0. -1.
      99926    2    1    2    0    0 -0.44408920985E-15  0.00000000000E+00  0.64553379352E+02  0.46488818295E+03  0.46038449568E+03 0.  0.
         25    1    3    3    0    0  0.13113399198E+02 -0.18726018758E+02  0.80562432338E+02  0.15053384543E+03  0.12509000000E+03 0.  0.
         25    1    3    3    0    0 -0.10469800689E+01 -0.84751967642E+02 -0.10641216808E+02  0.15147519857E+03  0.12509000000E+03 0.  0.
         25    1    3    3    0    0 -0.12066419129E+02  0.10347798640E+03 -0.53678361778E+01  0.16287913895E+03  0.12509000000E+03 0.  0.
<mgrwt>
<rscale>  2 0.46038450E+03</rscale>
<asrwt>0</asrwt>
<pdfrwt beam="1">  1       21 0.38929527E-01 0.46038450E+03</pdfrwt>
<pdfrwt beam="2">  1       21 0.29436383E-01 0.46038450E+03</pdfrwt>
<totfact> 0.64989964E+04</totfact>
</mgrwt>
</event>
<event>
 6    0  0.1576925E-007  0.4544229E+03  0.7546771E-02  0.1026411E+00
         21   -1    0    0  502  501  0.00000000000E+00  0.00000000000E+00  0.20375356904E+03  0.20375356904E+03  0.00000000000E+00 0. -1.
         21   -1    0    0  501  502 -0.00000000000E+00 -0.00000000000E+00 -0.25337002767E+03  0.25337002767E+03  0.00000000000E+00 0. -1.
      99926    2    1    2    0    0  0.00000000000E+00  0.00000000000E+00 -0.49616458631E+02  0.45712359671E+03  0.45442291943E+03 0.  0.
         25    1    3    3    0    0 -0.23202863084E+02 -0.16544537240E+01  0.79211683382E+02  0.14987697941E+03  0.12509000000E+03 0.  0.
         25    1    3    3    0    0 -0.20366229360E+02  0.51315798976E+02 -0.52161219154E+02  0.14634341600E+03  0.12509000000E+03 0.  0.
         25    1    3    3    0    0  0.43569092444E+02 -0.49661345252E+02 -0.76666922858E+02  0.16090320130E+03  0.12509000000E+03 0.  0.
<mgrwt>
<rscale>  2 0.45442292E+03</rscale>
<asrwt>0</asrwt>
<pdfrwt beam="1">  1       21 0.29963760E-01 0.45442292E+03</pdfrwt>
<pdfrwt beam="2">  1       21 0.37260298E-01 0.45442292E+03</pdfrwt>
<totfact> 0.68706244E+04</totfact>
</mgrwt>
</event>
<event>
 6    0  0.1576925E-007  0.4563441E+03  0.7546771E-02  0.1025847E+00
         21   -1    0    0  502  501  0.00000000000E+00  0.00000000000E+00  0.45598485955E+03  0.45598485955E+03  0.00000000000E+00 0. -1.
         21   -1    0    0  501  502 -0.00000000000E+00 -0.00000000000E+00 -0.11417591725E+03  0.11417591725E+03  0.00000000000E+00 0. -1.
      99926    2    1    2    0    0  0.00000000000E+00  0.71054273576E-14  0.34180894230E+03  0.57016077680E+03  0.45634412274E+03 0.  0.
         25    1    3    3    0    0  0.73635269392E+02 -0.23082360514E+02  0.71463694717E+02  0.16343046236E+03  0.12509000000E+03 0.  0.
         25    1    3    3    0    0 -0.12236210885E+02  0.74308745689E+02  0.18431887120E+03  0.23514350709E+03  0.12509000000E+03 0.  0.
         25    1    3    3    0    0 -0.61399058507E+02 -0.51226385175E+02  0.86026376379E+02  0.17158680735E+03  0.12509000000E+03 0.  0.
<mgrwt>
<rscale>  2 0.45634412E+03</rscale>
<asrwt>0</asrwt>
<pdfrwt beam="1">  1       21 0.67056596E-01 0.45634412E+03</pdfrwt>
<pdfrwt beam="2">  1       21 0.16790576E-01 0.45634412E+03</pdfrwt>
<totfact> 0.59914225E+04</totfact>
</mgrwt>
</event>
<event>
 6    0  0.1576925E-007  0.4588782E+03  0.7546771E-02  0.1025107E+00
         21   -1    0    0  502  501  0.00000000000E+00  0.00000000000E+00  0.35519907231E+02  0.35519907231E+02  0.00000000000E+00 0.  1.
         21   -1    0    0  501  502 -0.00000000000E+00 -0.00000000000E+00 -0.14820508179E+04  0.14820508179E+04  0.00000000000E+00 0.  1.
      99926    2    1    2    0    0 -0.53290705182E-14  0.00000000000E+00 -0.14465309107E+04  0.15175707251E+04  0.45887823031E+03 0.  0.
         25    1    3    3    0    0  0.62535466189E+02  0.33133745121E+02 -0.37068795545E+03  0.39757464458E+03  0.12509000000E+03 0.  0.
         25    1    3    3    0    0 -0.47054072022E+02 -0.98289300149E+02 -0.66340960641E+03  0.68383820177E+03  0.12509000000E+03 0.  0.
         25    1    3    3    0    0 -0.15481394167E+02  0.65155555028E+02 -0.41243334881E+03  0.43615787878E+03  0.12509000000E+03 0.  0.
<mgrwt>
<rscale>  2 0.45887823E+03</rscale>
<asrwt>0</asrwt>
<pdfrwt beam="1">  1       21 0.52235161E-02 0.45887823E+03</pdfrwt>
<pdfrwt beam="2">  1       21 0.21794864E+00 0.45887823E+03</pdfrwt>
<totfact> 0.22661428E+04</totfact>
</mgrwt>
</event>
<event>
 6    0  0.1576925E-007  0.4509300E+03  0.7546771E-02  0.1027445E+00
         21   -1    0    0  502  501  0.00000000000E+00  0.00000000000E+00  0.20592736906E+03  0.20592736906E+03  0.00000000000E+00 0.  1.
         21   -1    0    0  501  502 -0.00000000000E+00 -0.00000000000E+00 -0.24685629839E+03  0.24685629839E+03  0.00000000000E+00 0.  1.
      99926    2    1    2    0    0  0.00000000000E+00  0.71054273576E-14 -0.40928929337E+02  0.45278366745E+03  0.45093000815E+03 0.  0.
         25    1    3    3    0    0 -0.76633864114E+02  0.50957691963E+02  0.80012323878E+01  0.15550229361E+03  0.12509000000E+03 0.  0.
         25    1    3    3    0    0 -0.14670380643E+02 -0.79364062029E+01  0.87818969645E+01  0.12650231787E+03  0.12509000000E+03 0.  0.
         25    1    3    3    0    0  0.91304244756E+02 -0.43021285761E+02 -0.57712058689E+02  0.17077905597E+03  0.12509000000E+03 0.  0.
<mgrwt>
<rscale>  2 0.45093001E+03</rscale>
<asrwt>0</asrwt>
<pdfrwt beam="1">  1       21 0.30283437E-01 0.45093001E+03</pdfrwt>
<pdfrwt beam="2">  1       21 0.36302397E-01 0.45093001E+03</pdfrwt>
<totfact> 0.70985743E+04</totfact>
</mgrwt>
</event>
<event>
 6    0  0.1576925E-007  0.4622916E+03  0.7546771E-02  0.1024119E+00
         21   -1    0    0  502  501  0.00000000000E+00  0.00000000000E+00  0.47629592236E+02  0.47629592236E+02  0.00000000000E+00 0.  1.
         21   -1    0    0  501  502 -0.00000000000E+00 -0.00000000000E+00 -0.11217478275E+04  0.11217478275E+04  0.00000000000E+00 0.  1.
      99926    2    1    2    0    0  0.11102230246E-15  0.00000000000E+00 -0.10741182353E+04  0.11693774198E+04  0.46229164655E+03 0.  0.
         25    1    3    3    0    0  0.91376962701E+00 -0.11997433364E+03 -0.44525415090E+03  0.47780063070E+03  0.12509000000E+03 0.  0.
         25    1    3    3    0    0 -0.27794100968E+01  0.32998171715E+02 -0.21985017092E+03  0.25510431241E+03  0.12509000000E+03 0.  0.
         25    1    3    3    0    0  0.18656404698E+01  0.86976161927E+02 -0.40901391347E+03  0.43647247665E+03  0.12509000000E+03 0.  0.
<mgrwt>
<rscale>  2 0.46229165E+03</rscale>
<asrwt>0</asrwt>
<pdfrwt beam="1">  1       21 0.70043509E-02 0.46229165E+03</pdfrwt>
<pdfrwt beam="2">  1       21 0.16496294E+00 0.46229165E+03</pdfrwt>
<totfact> 0.31323960E+04</totfact>
</mgrwt>
</event>
<event>
 6    0  0.1576925E-007  0.4528730E+03  0.7546771E-02  0.1026869E+00
         21   -1    0    0  502  501  0.00000000000E+00  0.00000000000E+00  0.99912614142E+02  0.99912614142E+02  0.00000000000E+00 0.  1.
         21   -1    0    0  501  502 -0.00000000000E+00 -0.00000000000E+00 -0.51318343159E+03  0.51318343159E+03  0.00000000000E+00 0.  1.
      99926    2    1    2    0    0 -0.71054273576E-14  0.00000000000E+00 -0.41327081745E+03  0.61309604573E+03  0.45287304263E+03 0.  0.
         25    1    3    3    0    0  0.27782396974E+02 -0.35927325473E+02 -0.84999716591E+02  0.15790849951E+03  0.12509000000E+03 0.  0.
         25    1    3    3    0    0 -0.84738363261E+02  0.66347568120E+02 -0.12096822924E+03  0.20460549990E+03  0.12509000000E+03 0.  0.
         25    1    3    3    0    0  0.56955966287E+02 -0.30420242647E+02 -0.20730287162E+03  0.25058204632E+03  0.12509000000E+03 0.  0.
<mgrwt>
<rscale>  2 0.45287304E+03</rscale>
<asrwt>0</asrwt>
<pdfrwt beam="1">  1       21 0.14693031E-01 0.45287304E+03</pdfrwt>
<pdfrwt beam="2">  1       21 0.75468152E-01 0.45287304E+03</pdfrwt>
<totfact> 0.58861931E+04</totfact>
</mgrwt>
</event>
<event>
 6    0  0.1576925E-007  0.4524603E+03  0.7546771E-02  0.1026991E+00
         21   -1    0    0  502  501  0.00000000000E+00  0.00000000000E+00  0.54539608172E+03  0.54539608172E+03  0.00000000000E+00 0.  1.
         21   -1    0    0  501  502 -0.00000000000E+00 -0.00000000000E+00 -0.93840214595E+02  0.93840214595E+02  0.00000000000E+00 0.  1.
      99926    2    1    2    0    0  0.00000000000E+00  0.00000000000E+00  0.45155586712E+03  0.63923629631E+03  0.45246032024E+03 0.  0.
         25    1    3    3    0    0  0.47834076476E+02  0.79670737004E+02  0.14027816321E+03  0.20966877779E+03  0.12509000000E+03 0.  0.
         25    1    3    3    0    0  0.62325683492E+01 -0.12403909931E+02  0.21661518580E+03  0.25052414796E+03  0.12509000000E+03 0.  0.
         25    1    3    3    0    0 -0.54066644825E+02 -0.67266827074E+02  0.94662518102E+02  0.17904337056E+03  0.12509000000E+03 0.  0.
<mgrwt>
<rscale>  2 0.45246032E+03</rscale>
<asrwt>0</asrwt>
<pdfrwt beam="1">  1       21 0.80205305E-01 0.45246032E+03</pdfrwt>
<pdfrwt beam="2">  1       21 0.13800032E-01 0.45246032E+03</pdfrwt>
<totfact> 0.57469050E+04</totfact>
</mgrwt>
</event>
<event>
 6    0  0.1576925E-007  0.4545824E+03  0.7546771E-02  0.1026364E+00
         21   -1    0    0  502  501  0.00000000000E+00  0.00000000000E+00  0.10705879892E+04  0.10705879892E+04  0.00000000000E+00 0. -1.
         21   -1    0    0  501  502 -0.00000000000E+00 -0.00000000000E+00 -0.48255060554E+02  0.48255060554E+02  0.00000000000E+00 0. -1.
      99926    2    1    2    0    0 -0.35527136788E-14 -0.17763568394E-14  0.10223329287E+04  0.11188430498E+04  0.45458239407E+03 0.  0.
         25    1    3    3    0    0  0.15320183663E+02  0.12375200269E+02  0.34531682488E+03  0.36780303323E+03  0.12509000000E+03 0.  0.
         25    1    3    3    0    0 -0.96157373327E+02  0.33253669274E+02  0.42744302582E+03  0.45684471693E+03  0.12509000000E+03 0.  0.
         25    1    3    3    0    0  0.80837189665E+02 -0.45628869543E+02  0.24957307796E+03  0.29419529961E+03  0.12509000000E+03 0.  0.
<mgrwt>
<rscale>  2 0.45458239E+03</rscale>
<asrwt>0</asrwt>
<pdfrwt beam="1">  1       21 0.15743939E+00 0.45458239E+03</pdfrwt>
<pdfrwt beam="2">  1       21 0.70963331E-02 0.45458239E+03</pdfrwt>
<totfact> 0.34953463E+04</totfact>
</mgrwt>
</event>
<event>
 6    0  0.1576925E-007  0.4468565E+03  0.7546771E-02  0.1028664E+00
         21   -1    0    0  502  501  0.00000000000E+00  0.00000000000E+00  0.23439579594E+03  0.23439579594E+03  0.00000000000E+00 0. -1.
         21   -1    0    0  501  502 -0.00000000000E+00 -0.00000000000E+00 -0.21297392616E+03  0.21297392616E+03  0.00000000000E+00 0. -1.
      99926    2    1    2    0    0 -0.17763568394E-14 -0.71054273576E-14  0.21421869787E+02  0.44736972210E+03  0.44685654493E+03 0.  0.
         25    1    3    3    0    0  0.33350175844E+02  0.50999319908E+02 -0.14032241919E+02  0.13984840640E+03  0.12509000000E+03 0.  0.
         25    1    3    3    0    0 -0.10500665786E+02  0.25492493759E+02 -0.48569116022E+02  0.13699123458E+03  0.12509000000E+03 0.  0.
         25    1    3    3    0    0 -0.22849510058E+02 -0.76491813667E+02  0.84023227729E+02  0.17053008112E+03  0.12509000000E+03 0.  0.
<mgrwt>
<rscale>  2 0.44685654E+03</rscale>
<asrwt>0</asrwt>
<pdfrwt beam="1">  1       21 0.34469970E-01 0.44685654E+03</pdfrwt>
<pdfrwt beam="2">  1       21 0.31319695E-01 0.44685654E+03</pdfrwt>
<totfact> 0.73787555E+04</totfact>
</mgrwt>
</event>
<event>
 6    0  0.1576925E-007  0.4515996E+03  0.7546771E-02  0.1027246E+00
         21   -1    0    0  502  501  0.00000000000E+00  0.00000000000E+00  0.34523173369E+03  0.34523173369E+03  0.00000000000E+00 0. -1.
         21   -1    0    0  501  502 -0.00000000000E+00 -0.00000000000E+00 -0.14768499892E+03  0.14768499892E+03  0.00000000000E+00 0. -1.
      99926    2    1    2    0    0 -0.35527136788E-14  0.00000000000E+00  0.19754673478E+03  0.49291673261E+03  0.45159959352E+03 0.  0.
         25    1    3    3    0    0 -0.31206539487E+02  0.61561921541E+02  0.43242187744E+02  0.14926859412E+03  0.12509000000E+03 0.  0.
         25    1    3    3    0    0  0.62425220948E+02  0.21682279130E+02  0.26498278190E+02  0.14393295761E+03  0.12509000000E+03 0.  0.
         25    1    3    3    0    0 -0.31218681461E+02 -0.83244200671E+02  0.12780626884E+03  0.19971518088E+03  0.12509000000E+03 0.  0.
<mgrwt>
<rscale>  2 0.45159959E+03</rscale>
<asrwt>0</asrwt>
<pdfrwt beam="1">  1       21 0.50769372E-01 0.45159959E+03</pdfrwt>
<pdfrwt beam="2">  1       21 0.21718382E-01 0.45159959E+03</pdfrwt>
<totfact> 0.67577051E+04</totfact>
</mgrwt>
</event>
<event>
 6    0  0.1576925E-007  0.4669835E+03  0.7546771E-02  0.1022775E+00
         21   -1    0    0  502  501  0.00000000000E+00  0.00000000000E+00  0.24513855135E+03  0.24513855135E+03  0.00000000000E+00 0. -1.
         21   -1    0    0  501  502 -0.00000000000E+00 -0.00000000000E+00 -0.22239829144E+03  0.22239829144E+03  0.00000000000E+00 0. -1.
      99926    2    1    2    0    0 -0.14210854715E-13  0.00000000000E+00  0.22740259903E+02  0.46753684279E+03  0.46698349001E+03 0.  0.
         25    1    3    3    0    0  0.37690883891E+02 -0.25703706569E+02 -0.60746698289E+02  0.14635215309E+03  0.12509000000E+03 0.  0.
         25    1    3    3    0    0  0.66830296434E+02 -0.11301062653E+02  0.49261187113E+02  0.15055954036E+03  0.12509000000E+03 0.  0.
         25    1    3    3    0    0 -0.10452118033E+03  0.37004769222E+02  0.34225771080E+02  0.17062514934E+03  0.12509000000E+03 0.  0.
<mgrwt>
<rscale>  2 0.46698349E+03</rscale>
<asrwt>0</asrwt>
<pdfrwt beam="1">  1       21 0.36049787E-01 0.46698349E+03</pdfrwt>
<pdfrwt beam="2">  1       21 0.32705631E-01 0.46698349E+03</pdfrwt>
<totfact> 0.61539067E+04</totfact>
</mgrwt>
</event>
<event>
 6    0  0.1576925E-007  0.4470605E+03  0.7546771E-02  0.1028602E+00
         21   -1    0    0  502  501  0.00000000000E+00  0.00000000000E+00  0.79291802632E+02  0.79291802632E+02  0.00000000000E+00 0.  1.
         21   -1    0    0  501  502 -0.00000000000E+00 -0.00000000000E+00 -0.63015064872E+03  0.63015064872E+03  0.00000000000E+00 0.  1.
      99926    2    1    2    0    0 -0.17763568394E-14  0.00000000000E+00 -0.55085884608E+03  0.70944245135E+03  0.44706053669E+03 0.  0.
         25    1    3    3    0    0  0.70413591378E+01  0.41236405383E+02 -0.21417239463E+03  0.25153000733E+03  0.12509000000E+03 0.  0.
         25    1    3    3    0    0  0.56835983801E+02 -0.80700337952E+02 -0.21691948361E+03  0.26915505581E+03  0.12509000000E+03 0.  0.
         25    1    3    3    0    0 -0.63877342939E+02  0.39463932569E+02 -0.11976696785E+03  0.18875738821E+03  0.12509000000E+03 0.  0.
<mgrwt>
<rscale>  2 0.44706054E+03</rscale>
<asrwt>0</asrwt>
<pdfrwt beam="1">  1       21 0.11660559E-01 0.44706054E+03</pdfrwt>
<pdfrwt beam="2">  1       21 0.92669218E-01 0.44706054E+03</pdfrwt>
<totfact> 0.55797884E+04</totfact>
</mgrwt>
</event>
<event>
 6    0  0.1576925E-007  0.4520971E+03  0.7546771E-02  0.1027098E+00
         21   -1    0    0  502  501  0.00000000000E+00  0.00000000000E+00  0.37261799186E+03  0.37261799186E+03  0.00000000000E+00 0.  1.
         21   -1    0    0  501  502 -0.00000000000E+00 -0.00000000000E+00 -0.13713228919E+03  0.13713228919E+03  0.00000000000E+00 0.  1.
      99926    2    1    2    0    0  0.00000000000E+00  0.71054273576E-14  0.23548570267E+03  0.50975028105E+03  0.45209714981E+03 0.  0.
         25    1    3    3    0    0  0.58758563334E+02 -0.50489153439E+02  0.78873642866E+02  0.16694395173E+03  0.12509000000E+03 0.  0.
         25    1    3    3    0    0 -0.81782981386E+02 -0.29229612244E+02  0.10097060532E+03  0.18271671384E+03  0.12509000000E+03 0.  0.
         25    1    3    3    0    0  0.23024418052E+02  0.79718765682E+02  0.55641454487E+02  0.16008961548E+03  0.12509000000E+03 0.  0.
<mgrwt>
<rscale>  2 0.45209715E+03</rscale>
<asrwt>0</asrwt>
<pdfrwt beam="1">  1       21 0.54796763E-01 0.45209715E+03</pdfrwt>
<pdfrwt beam="2">  1       21 0.20166513E-01 0.45209715E+03</pdfrwt>
<totfact> 0.66100639E+04</totfact>
</mgrwt>
</event>
<event>
 6    0  0.1576925E-007  0.4494497E+03  0.7546771E-02  0.1027886E+00
         21   -1    0    0  502  501  0.00000000000E+00  0.00000000000E+00  0.51760174635E+03  0.51760174635E+03  0.00000000000E+00 0.  1.
         21   -1    0    0  501  502 -0.00000000000E+00 -0.00000000000E+00 -0.97567806999E+02  0.97567806999E+02  0.00000000000E+00 0.  1.
      99926    2    1    2    0    0 -0.94368957093E-15  0.00000000000E+00  0.42003393935E+03  0.61516955335E+03  0.44944974041E+03 0.  0.
         25    1    3    3    0    0 -0.58688892695E+02  0.62945225070E+02  0.82785004369E+02  0.17293742375E+03  0.12509000000E+03 0.  0.
         25    1    3    3    0    0  0.59140066491E+02  0.74009616742E+01  0.20252545292E+03  0.24539027870E+03  0.12509000000E+03 0.  0.
         25    1    3    3    0    0 -0.45117379564E+00 -0.70346186744E+02  0.13472348206E+03  0.19684185090E+03  0.12509000000E+03 0.  0.
<mgrwt>
<rscale>  2 0.44944974E+03</rscale>
<asrwt>0</asrwt>
<pdfrwt beam="1">  1       21 0.76117903E-01 0.44944974E+03</pdfrwt>
<pdfrwt beam="2">  1       21 0.14348207E-01 0.44944974E+03</pdfrwt>
<totfact> 0.60356533E+04</totfact>
</mgrwt>
</event>
<event>
 6    0  0.1576925E-007  0.4599352E+03  0.7546771E-02  0.1024800E+00
         21   -1    0    0  502  501  0.00000000000E+00  0.00000000000E+00  0.13219963259E+04  0.13219963259E+04  0.00000000000E+00 0. -1.
         21   -1    0    0  501  502 -0.00000000000E+00 -0.00000000000E+00 -0.40003966218E+02  0.40003966218E+02  0.00000000000E+00 0. -1.
      99926    2    1    2    0    0  0.00000000000E+00  0.00000000000E+00  0.12819923597E+04  0.13620002922E+04  0.45993519701E+03 0.  0.
         25    1    3    3    0    0 -0.32111053461E+02 -0.25606257538E+02  0.53259885035E+03  0.54863088108E+03  0.12509000000E+03 0.  0.
         25    1    3    3    0    0  0.63557544884E+02  0.87824786335E+02  0.48812901403E+03  0.51543204892E+03  0.12509000000E+03 0.  0.
         25    1    3    3    0    0 -0.31446491423E+02 -0.62218528797E+02  0.26126449533E+03  0.29793736216E+03  0.12509000000E+03 0.  0.
<mgrwt>
<rscale>  2 0.45993520E+03</rscale>
<asrwt>0</asrwt>
<pdfrwt beam="1">  1       21 0.19441120E+00 0.45993520E+03</pdfrwt>
<pdfrwt beam="2">  1       21 0.58829371E-02 0.45993520E+03</pdfrwt>
<totfact> 0.26337586E+04</totfact>
</mgrwt>
</event>
<event>
 6    0  0.1576925E-007  0.4580120E+03  0.7546771E-02  0.1025359E+00
         21   -1    0    0  502  501  0.00000000000E+00  0.00000000000E+00  0.21624360051E+03  0.21624360051E+03  0.00000000000E+00 0. -1.
         21   -1    0    0  501  502 -0.00000000000E+00 -0.00000000000E+00 -0.24252161282E+03  0.24252161282E+03  0.00000000000E+00 0. -1.
      99926    2    1    2    0    0  0.44408920985E-15  0.14210854715E-13 -0.26278012315E+02  0.45876521333E+03  0.45801199442E+03 0.  0.
         25    1    3    3    0    0  0.14897391561E+02  0.50819599433E+02 -0.28722776593E+02  0.13884188834E+03  0.12509000000E+03 0.  0.
         25    1    3    3    0    0 -0.29550234488E+01 -0.10811522739E+03 -0.49121977309E+02  0.17250539502E+03  0.12509000000E+03 0.  0.
         25    1    3    3    0    0 -0.11942368112E+02  0.57295627957E+02  0.51566741587E+02  0.14741792997E+03  0.12509000000E+03 0.  0.
<mgrwt>
<rscale>  2 0.45801199E+03</rscale>
<asrwt>0</asrwt>
<pdfrwt beam="1">  1       21 0.31800530E-01 0.45801199E+03</pdfrwt>
<pdfrwt beam="2">  1       21 0.35664943E-01 0.45801199E+03</pdfrwt>
<totfact> 0.66654549E+04</totfact>
</mgrwt>
</event>
<event>
 6    0  0.1576925E-007  0.4554197E+03  0.7546771E-02  0.1026118E+00
         21   -1    0    0  502  501  0.00000000000E+00  0.00000000000E+00  0.59870447975E+03  0.59870447975E+03  0.00000000000E+00 0. -1.
         21   -1    0    0  501  502 -0.00000000000E+00 -0.00000000000E+00 -0.86606639685E+02  0.86606639685E+02  0.00000000000E+00 0. -1.
      99926    2    1    2    0    0  0.00000000000E+00  0.88817841970E-14  0.51209784006E+03  0.68531111943E+03  0.45541973236E+03 0.  0.
         25    1    3    3    0    0 -0.75024730101E+01 -0.97523070638E+01  0.10121774293E+03  0.16138133157E+03  0.12509000000E+03 0.  0.
         25    1    3    3    0    0  0.12206052105E+02  0.95479192762E+02  0.12914138700E+03  0.20393692627E+03  0.12509000000E+03 0.  0.
         25    1    3    3    0    0 -0.47035790952E+01 -0.85726885698E+02  0.28173871013E+03  0.31999286160E+03  0.12509000000E+03 0.  0.
<mgrwt>
<rscale>  2 0.45541973E+03</rscale>
<asrwt>0</asrwt>
<pdfrwt beam="1">  1       21 0.88044774E-01 0.45541973E+03</pdfrwt>
<pdfrwt beam="2">  1       21 0.12736271E-01 0.45541973E+03</pdfrwt>
<totfact> 0.53530854E+04</totfact>
</mgrwt>
</event>
<event>
 6    0  0.1576925E-007  0.4584190E+03  0.7546771E-02  0.1025241E+00
         21   -1    0    0  502  501  0.00000000000E+00  0.00000000000E+00  0.48196095307E+02  0.48196095307E+02  0.00000000000E+00 0.  1.
         21   -1    0    0  501  502 -0.00000000000E+00 -0.00000000000E+00 -0.10900674639E+04  0.10900674639E+04  0.00000000000E+00 0.  1.
      99926    2    1    2    0    0  0.00000000000E+00 -0.35527136788E-14 -0.10418713686E+04  0.11382635593E+04  0.45841900215E+03 0.  0.
         25    1    3    3    0    0 -0.51552639887E+02 -0.25015584971E+02 -0.21897454517E+03  0.25861325121E+03  0.12509000000E+03 0.  0.
         25    1    3    3    0    0  0.10559698377E+02  0.98803898615E+02 -0.43838680635E+03  0.46658784564E+03  0.12509000000E+03 0.  0.
         25    1    3    3    0    0  0.40992941510E+02 -0.73788313643E+02 -0.38451001712E+03  0.41306246241E+03  0.12509000000E+03 0.  0.
<mgrwt>
<rscale>  2 0.45841900E+03</rscale>
<asrwt>0</asrwt>
<pdfrwt beam="1">  1       21 0.70876616E-02 0.45841900E+03</pdfrwt>
<pdfrwt beam="2">  1       21 0.16030403E+00 0.45841900E+03</pdfrwt>
<totfact> 0.33280837E+04</totfact>
</mgrwt>
</event>
<event>
 6    0  0.1576925E-007  0.4773846E+03  0.7546771E-02  0.1019856E+00
         21   -1    0    0  502  501  0.00000000000E+00  0.00000000000E+00  0.23578943368E+03  0.23578943368E+03  0.00000000000E+00 0. -1.
         21   -1    0    0  501  502 -0.00000000000E+00 -0.00000000000E+00 -0.24163087564E+03  0.24163087564E+03  0.00000000000E+00 0. -1.
      99926    2    1    2    0    0  0.00000000000E+00  0.35527136788E-14 -0.58414419588E+01  0.47742030933E+03  0.47738457172E+03 0.  0.
         25    1    3    3    0    0 -0.29539404842E+02 -0.40159407476E+02  0.58885501945E+02  0.14697062593E+03  0.12509000000E+03 0.  0.
         25    1    3    3    0    0  0.10747661462E+03  0.23546922729E+02  0.47643699883E+01  0.16666099598E+03  0.12509000000E+03 0.  0.
         25    1    3    3    0    0 -0.77937209780E+02  0.16612484747E+02 -0.69491313892E+02  0.16378868741E+03  0.12509000000E+03 0.  0.
<mgrwt>
<rscale>  2 0.47738457E+03</rscale>
<asrwt>0</asrwt>
<pdfrwt beam="1">  1       21 0.34674917E-01 0.47738457E+03</pdfrwt>
<pdfrwt beam="2">  1       21 0.35533952E-01 0.47738457E+03</pdfrwt>
<totfact> 0.56204188E+04</totfact>
</mgrwt>
</event>
<event>
 6    0  0.1576925E-007  0.4519641E+03  0.7546771E-02  0.1027138E+00
         21   -1    0    0  502  501  0.00000000000E+00  0.00000000000E+00  0.77216714839E+03  0.77216714839E+03  0.00000000000E+00 0. -1.
         21   -1    0    0  501  502 -0.00000000000E+00 -0.00000000000E+00 -0.66135790541E+02  0.66135790541E+02  0.00000000000E+00 0. -1.
      99926    2    1    2    0    0  0.35527136788E-14  0.71054273576E-14  0.70603135784E+03  0.83830293893E+03  0.45196409056E+03 0.  0.
         25    1    3    3    0    0  0.38735467801E+02  0.10132966091E+03  0.31258676359E+03  0.35373171970E+03  0.12509000000E+03 0.  0.
         25    1    3    3    0    0  0.99861712440E+01 -0.28904081699E+02  0.15502183667E+03  0.20153026447E+03  0.12509000000E+03 0.  0.
         25    1    3    3    0    0 -0.48721639045E+02 -0.72425579211E+02  0.23842275758E+03  0.28304095475E+03  0.12509000000E+03 0.  0.
<mgrwt>
<rscale>  2 0.45196409E+03</rscale>
<asrwt>0</asrwt>
<pdfrwt beam="1">  1       21 0.11355399E+00 0.45196409E+03</pdfrwt>
<pdfrwt beam="2">  1       21 0.97258520E-02 0.45196409E+03</pdfrwt>
<totfact> 0.47078594E+04</totfact>
</mgrwt>
</event>
<event>
 6    0  0.1576925E-007  0.4503217E+03  0.7546771E-02  0.1027626E+00
         21   -1    0    0  502  501  0.00000000000E+00  0.00000000000E+00  0.71369835388E+02  0.71369835388E+02  0.00000000000E+00 0.  1.
         21   -1    0    0  501  502 -0.00000000000E+00 -0.00000000000E+00 -0.71034773398E+03  0.71034773398E+03  0.00000000000E+00 0.  1.
      99926    2    1    2    0    0 -0.26645352591E-14  0.00000000000E+00 -0.63897789859E+03  0.78171756936E+03  0.45032166656E+03 0.  0.
         25    1    3    3    0    0 -0.39040952383E+01  0.43415066684E+02 -0.14806000360E+03  0.19866902814E+03  0.12509000000E+03 0.  0.
         25    1    3    3    0    0 -0.79948333993E+02 -0.45241461096E+02 -0.18065541316E+03  0.23816467478E+03  0.12509000000E+03 0.  0.
         25    1    3    3    0    0  0.83852429232E+02  0.18263944113E+01 -0.31026248182E+03  0.34488386644E+03  0.12509000000E+03 0.  0.
<mgrwt>
<rscale>  2 0.45032167E+03</rscale>
<asrwt>0</asrwt>
<pdfrwt beam="1">  1       21 0.10495564E-01 0.45032167E+03</pdfrwt>
<pdfrwt beam="2">  1       21 0.10446290E+00 0.45032167E+03</pdfrwt>
<totfact> 0.50490538E+04</totfact>
</mgrwt>
</event>
<event>
 6    0  0.1576925E-007  0.4510406E+03  0.7546771E-02  0.1027412E+00
         21   -1    0    0  502  501  0.00000000000E+00  0.00000000000E+00  0.16021383429E+02  0.16021383429E+02  0.00000000000E+00 0. -1.
         21   -1    0    0  501  502 -0.00000000000E+00 -0.00000000000E+00 -0.31744703420E+04  0.31744703420E+04  0.00000000000E+00 0. -1.
      99926    2    1    2    0    0  0.00000000000E+00  0.00000000000E+00 -0.31584489586E+04  0.31904917254E+04  0.45104060365E+03 0.  0.
         25    1    3    3    0    0 -0.70868848482E+02 -0.63286537480E+02 -0.13417686867E+04  0.13509323804E+04  0.12509000000E+03 0.  0.
         25    1    3    3    0    0  0.28770573695E+02 -0.14864859540E+02 -0.10292165248E+04  0.10372959428E+04  0.12509000000E+03 0.  0.
         25    1    3    3    0    0  0.42098274787E+02  0.78151397020E+02 -0.78746374708E+03  0.80226340230E+03  0.12509000000E+03 0.  0.
<mgrwt>
<rscale>  2 0.45104060E+03</rscale>
<asrwt>0</asrwt>
<pdfrwt beam="1">  1       21 0.23560873E-02 0.45104060E+03</pdfrwt>
<pdfrwt beam="2">  1       21 0.46683357E+00 0.45104060E+03</pdfrwt>
<totfact> 0.23922698E+03</totfact>
</mgrwt>
</event>
<event>
 6    0  0.1576925E-007  0.4544984E+03  0.7546771E-02  0.1026389E+00
         21   -1    0    0  502  501  0.00000000000E+00  0.00000000000E+00  0.12083282300E+04  0.12083282300E+04  0.00000000000E+00 0.  1.
         21   -1    0    0  501  502 -0.00000000000E+00 -0.00000000000E+00 -0.42738554960E+02  0.42738554960E+02  0.00000000000E+00 0.  1.
      99926    2    1    2    0    0 -0.71054273576E-14  0.00000000000E+00  0.11655896751E+04  0.12510667850E+04  0.45449841571E+03 0.  0.
         25    1    3    3    0    0 -0.50638538836E+02  0.47119347527E+02  0.51378989920E+03  0.53330297500E+03  0.12509000000E+03 0.  0.
         25    1    3    3    0    0  0.65570777927E+02 -0.84910389539E+02  0.42124333706E+03  0.45233036410E+03  0.12509000000E+03 0.  0.
         25    1    3    3    0    0 -0.14932239092E+02  0.37791042012E+02  0.23055643883E+03  0.26543344591E+03  0.12509000000E+03 0.  0.
<mgrwt>
<rscale>  2 0.45449842E+03</rscale>
<asrwt>0</asrwt>
<pdfrwt beam="1">  1       21 0.17769531E+00 0.45449842E+03</pdfrwt>
<pdfrwt beam="2">  1       21 0.62850824E-02 0.45449842E+03</pdfrwt>
<totfact> 0.30689228E+04</totfact>
</mgrwt>
</event>
<event>
 6    0  0.1576925E-007  0.4557242E+03  0.7546771E-02  0.1026029E+00
         21   -1    0    0  502  501  0.00000000000E+00  0.00000000000E+00  0.60768890856E+03  0.60768890856E+03  0.00000000000E+00 0.  1.
         21   -1    0    0  501  502 -0.00000000000E+00 -0.00000000000E+00 -0.85440319927E+02  0.85440319927E+02  0.00000000000E+00 0.  1.
      99926    2    1    2    0    0  0.00000000000E+00  0.00000000000E+00  0.52224858863E+03  0.69312922849E+03  0.45572419187E+03 0.  0.
         25    1    3    3    0    0  0.59076379760E+02  0.34936837213E+02  0.82541364640E+02  0.16483684727E+03  0.12509000000E+03 0.  0.
         25    1    3    3    0    0  0.12796822294E+02 -0.55899195397E+02  0.28041847917E+03  0.31236278630E+03  0.12509000000E+03 0.  0.
         25    1    3    3    0    0 -0.71873202054E+02  0.20962358183E+02  0.15928874482E+03  0.21592959492E+03  0.12509000000E+03 0.  0.
<mgrwt>
<rscale>  2 0.45572419E+03</rscale>
<asrwt>0</asrwt>
<pdfrwt beam="1">  1       21 0.89366014E-01 0.45572419E+03</pdfrwt>
<pdfrwt beam="2">  1       21 0.12564753E-01 0.45572419E+03</pdfrwt>
<totfact> 0.52975017E+04</totfact>
</mgrwt>
</event>
<event>
 6    0  0.1576925E-007  0.4508793E+03  0.7546771E-02  0.1027460E+00
         21   -1    0    0  502  501  0.00000000000E+00  0.00000000000E+00  0.23200530443E+03  0.23200530443E+03  0.00000000000E+00 0.  1.
         21   -1    0    0  501  502 -0.00000000000E+00 -0.00000000000E+00 -0.21905976275E+03  0.21905976275E+03  0.00000000000E+00 0.  1.
      99926    2    1    2    0    0  0.00000000000E+00  0.00000000000E+00  0.12945541685E+02  0.45106506718E+03  0.45087926075E+03 0.  0.
         25    1    3    3    0    0  0.59172247042E+02 -0.10371181367E+02  0.35839193433E+02  0.14332087116E+03  0.12509000000E+03 0.  0.
         25    1    3    3    0    0 -0.87593596027E+02 -0.13445927370E+01 -0.73331796986E+02  0.16940928706E+03  0.12509000000E+03 0.  0.
         25    1    3    3    0    0  0.28421348985E+02  0.11715774104E+02  0.50438145238E+02  0.13833490896E+03  0.12509000000E+03 0.  0.
<mgrwt>
<rscale>  2 0.45087926E+03</rscale>
<asrwt>0</asrwt>
<pdfrwt beam="1">  1       21 0.34118427E-01 0.45087926E+03</pdfrwt>
<pdfrwt beam="2">  1       21 0.32214671E-01 0.45087926E+03</pdfrwt>
<totfact> 0.71145623E+04</totfact>
</mgrwt>
</event>
<event>
 6    0  0.1576925E-007  0.4763344E+03  0.7546771E-02  0.1020147E+00
         21   -1    0    0  502  501  0.00000000000E+00  0.00000000000E+00  0.38239055339E+03  0.38239055339E+03  0.00000000000E+00 0. -1.
         21   -1    0    0  501  502 -0.00000000000E+00 -0.00000000000E+00 -0.14833950687E+03  0.14833950687E+03  0.00000000000E+00 0. -1.
      99926    2    1    2    0    0  0.00000000000E+00 -0.71054273576E-14  0.23405104652E+03  0.53073006026E+03  0.47633444604E+03 0.  0.
         25    1    3    3    0    0  0.50317135679E+02  0.24553939018E+02 -0.21916369548E+02  0.13878957244E+03  0.12509000000E+03 0.  0.
         25    1    3    3    0    0 -0.39028139235E+02  0.54957177600E+02  0.85802178366E+02  0.16599099052E+03  0.12509000000E+03 0.  0.
         25    1    3    3    0    0 -0.11288996444E+02 -0.79511116618E+02  0.17016523770E+03  0.22594949730E+03  0.12509000000E+03 0.  0.
<mgrwt>
<rscale>  2 0.47633445E+03</rscale>
<asrwt>0</asrwt>
<pdfrwt beam="1">  1       21 0.56233905E-01 0.47633445E+03</pdfrwt>
<pdfrwt beam="2">  1       21 0.21814633E-01 0.47633445E+03</pdfrwt>
<totfact> 0.53513442E+04</totfact>
</mgrwt>
</event>
<event>
 6    0  0.1576925E-007  0.4482279E+03  0.7546771E-02  0.1028252E+00
         21   -1    0    0  502  501  0.00000000000E+00  0.00000000000E+00  0.11670757306E+04  0.11670757306E+04  0.00000000000E+00 0. -1.
         21   -1    0    0  501  502 -0.00000000000E+00 -0.00000000000E+00 -0.43036673492E+02  0.43036673492E+02  0.00000000000E+00 0. -1.
      99926    2    1    2    0    0  0.00000000000E+00  0.00000000000E+00  0.11240390572E+04  0.12101124041E+04  0.44822787580E+03 0.  0.
         25    1    3    3    0    0 -0.10033810859E+03 -0.27226722955E+02  0.38016796103E+03  0.41350237868E+03  0.12509000000E+03 0.  0.
         25    1    3    3    0    0  0.49157230915E+02 -0.28383226140E+02  0.40155521581E+03  0.42440091932E+03  0.12509000000E+03 0.  0.
         25    1    3    3    0    0  0.51180877671E+02  0.55609949095E+02  0.34231588032E+03  0.37220910614E+03  0.12509000000E+03 0.  0.
<mgrwt>
<rscale>  2 0.44822788E+03</rscale>
<asrwt>0</asrwt>
<pdfrwt beam="1">  1       21 0.17162876E+00 0.44822788E+03</pdfrwt>
<pdfrwt beam="2">  1       21 0.63289233E-02 0.44822788E+03</pdfrwt>
<totfact> 0.33573388E+04</totfact>
</mgrwt>
</event>
<event>
 6    0  0.1576925E-007  0.4533859E+03  0.7546771E-02  0.1026717E+00
         21   -1    0    0  502  501  0.00000000000E+00  0.00000000000E+00  0.66693569715E+02  0.66693569715E+02  0.00000000000E+00 0.  1.
         21   -1    0    0  501  502 -0.00000000000E+00 -0.00000000000E+00 -0.77053456048E+03  0.77053456048E+03  0.00000000000E+00 0.  1.
      99926    2    1    2    0    0  0.00000000000E+00 -0.71054273576E-14 -0.70384099076E+03  0.83722813019E+03  0.45338593021E+03 0.  0.
         25    1    3    3    0    0  0.87708816112E+02  0.34399923979E+02 -0.21832919756E+03  0.26868445768E+03  0.12509000000E+03 0.  0.
         25    1    3    3    0    0 -0.40149776954E+02  0.42132247556E+02 -0.27443087954E+03  0.30715948076E+03  0.12509000000E+03 0.  0.
         25    1    3    3    0    0 -0.47559039158E+02 -0.76532171535E+02 -0.21108091366E+03  0.26138419175E+03  0.12509000000E+03 0.  0.
<mgrwt>
<rscale>  2 0.45338593E+03</rscale>
<asrwt>0</asrwt>
<pdfrwt beam="1">  1       21 0.98078783E-02 0.45338593E+03</pdfrwt>
<pdfrwt beam="2">  1       21 0.11331390E+00 0.45338593E+03</pdfrwt>
<totfact> 0.46603582E+04</totfact>
</mgrwt>
</event>
<event>
 6    0  0.1576925E-007  0.4567245E+03  0.7546771E-02  0.1025735E+00
         21   -1    0    0  502  501  0.00000000000E+00  0.00000000000E+00  0.67954704462E+03  0.67954704462E+03  0.00000000000E+00 0.  1.
         21   -1    0    0  501  502 -0.00000000000E+00 -0.00000000000E+00 -0.76741302212E+02  0.76741302212E+02  0.00000000000E+00 0.  1.
      99926    2    1    2    0    0  0.00000000000E+00 -0.35527136788E-14  0.60280574241E+03  0.75628834683E+03  0.45672453456E+03 0.  0.
         25    1    3    3    0    0  0.34840094141E+02  0.18144414206E+02  0.10509590645E+03  0.16803484632E+03  0.12509000000E+03 0.  0.
         25    1    3    3    0    0  0.20033060652E+02 -0.91522362097E+02  0.28482399369E+03  0.32488441293E+03  0.12509000000E+03 0.  0.
         25    1    3    3    0    0 -0.54873154793E+02  0.73377947890E+02  0.21288584227E+03  0.26336908758E+03  0.12509000000E+03 0.  0.
<mgrwt>
<rscale>  2 0.45672453E+03</rscale>
<asrwt>0</asrwt>
<pdfrwt beam="1">  1       21 0.99933385E-01 0.45672453E+03</pdfrwt>
<pdfrwt beam="2">  1       21 0.11285486E-01 0.45672453E+03</pdfrwt>
<totfact> 0.49279954E+04</totfact>
</mgrwt>
</event>
<event>
 6    0  0.1576925E-007  0.4664969E+03  0.7546771E-02  0.1022914E+00
         21   -1    0    0  502  501  0.00000000000E+00  0.00000000000E+00  0.70619002071E+03  0.70619002071E+03  0.00000000000E+00 0. -1.
         21   -1    0    0  501  502 -0.00000000000E+00 -0.00000000000E+00 -0.77039955224E+02  0.77039955224E+02  0.00000000000E+00 0. -1.
      99926    2    1    2    0    0 -0.71054273576E-14  0.00000000000E+00  0.62915006548E+03  0.78322997593E+03  0.46649693493E+03 0.  0.
         25    1    3    3    0    0 -0.61982330801E+02  0.46355209118E+02  0.30569460844E+03  0.33924521585E+03  0.12509000000E+03 0.  0.
         25    1    3    3    0    0  0.98048804631E+02  0.10907443321E+02  0.14180303257E+03  0.21327950805E+03  0.12509000000E+03 0.  0.
         25    1    3    3    0    0 -0.36066473830E+02 -0.57262652439E+02  0.18165242447E+03  0.23070525203E+03  0.12509000000E+03 0.  0.
<mgrwt>
<rscale>  2 0.46649693E+03</rscale>
<asrwt>0</asrwt>
<pdfrwt beam="1">  1       21 0.10385147E+00 0.46649693E+03</pdfrwt>
<pdfrwt beam="2">  1       21 0.11329406E-01 0.46649693E+03</pdfrwt>
<totfact> 0.44438876E+04</totfact>
</mgrwt>
</event>
<event>
 6    0  0.1576925E-007  0.4236028E+03  0.7546771E-02  0.1035900E+00
         21   -1    0    0  502  501  0.00000000000E+00  0.00000000000E+00  0.17021048467E+04  0.17021048467E+04  0.00000000000E+00 0. -1.
         21   -1    0    0  501  502 -0.00000000000E+00 -0.00000000000E+00 -0.26355508433E+02  0.26355508433E+02  0.00000000000E+00 0. -1.
      99926    2    1    2    0    0 -0.22204460493E-15  0.00000000000E+00  0.16757493383E+04  0.17284603552E+04  0.42360282644E+03 0.  0.
         25    1    3    3    0    0 -0.93682660644E+01  0.73762788513E+02  0.68208876593E+03  0.69743910565E+03  0.12509000000E+03 0.  0.
         25    1    3    3    0    0 -0.15506663765E+01 -0.53638586471E+02  0.66130083810E+03  0.67516354248E+03  0.12509000000E+03 0.  0.
         25    1    3    3    0    0  0.10918932441E+02 -0.20124202042E+02  0.33235973428E+03  0.35585770705E+03  0.12509000000E+03 0.  0.
<mgrwt>
<rscale>  2 0.42360283E+03</rscale>
<asrwt>0</asrwt>
<pdfrwt beam="1">  1       21 0.25030946E+00 0.42360283E+03</pdfrwt>
<pdfrwt beam="2">  1       21 0.38758112E-02 0.42360283E+03</pdfrwt>
<totfact> 0.24016755E+04</totfact>
</mgrwt>
</event>
<event>
 6    0  0.1576925E-007  0.4528544E+03  0.7546771E-02  0.1026874E+00
         21   -1    0    0  502  501  0.00000000000E+00  0.00000000000E+00  0.15162834306E+03  0.15162834306E+03  0.00000000000E+00 0. -1.
         21   -1    0    0  501  502 -0.00000000000E+00 -0.00000000000E+00 -0.33812455391E+03  0.33812455391E+03  0.00000000000E+00 0. -1.
      99926    2    1    2    0    0  0.00000000000E+00  0.00000000000E+00 -0.18649621085E+03  0.48975289698E+03  0.45285435124E+03 0.  0.
         25    1    3    3    0    0  0.49603770147E+02 -0.58848806799E+02 -0.38012056878E+02  0.15171071367E+03  0.12509000000E+03 0.  0.
         25    1    3    3    0    0 -0.51951508897E+02 -0.43264821104E+02 -0.69921084214E+02  0.15845273787E+03  0.12509000000E+03 0.  0.
         25    1    3    3    0    0  0.23477387506E+01  0.10211362790E+03 -0.78563069756E+02  0.17958944543E+03  0.12509000000E+03 0.  0.
<mgrwt>
<rscale>  2 0.45285435E+03</rscale>
<asrwt>0</asrwt>
<pdfrwt beam="1">  1       21 0.22298286E-01 0.45285435E+03</pdfrwt>
<pdfrwt beam="2">  1       21 0.49724198E-01 0.45285435E+03</pdfrwt>
<totfact> 0.67132970E+04</totfact>
</mgrwt>
</event>
<event>
 6    0  0.1576925E-007  0.4543386E+03  0.7546771E-02  0.1026436E+00
         21   -1    0    0  502  501  0.00000000000E+00  0.00000000000E+00  0.27688641062E+03  0.27688641062E+03  0.00000000000E+00 0. -1.
         21   -1    0    0  501  502 -0.00000000000E+00 -0.00000000000E+00 -0.18637926831E+03  0.18637926831E+03  0.00000000000E+00 0. -1.
      99926    2    1    2    0    0  0.71054273576E-14 -0.17763568394E-14  0.90507142313E+02  0.46326567893E+03  0.45433858131E+03 0.  0.
         25    1    3    3    0    0 -0.16180413180E+01 -0.17150888690E+02 -0.65501774313E+02  0.14224894228E+03  0.12509000000E+03 0.  0.
         25    1    3    3    0    0  0.48463512494E+02  0.27605796554E+02  0.12046185258E+03  0.18239889822E+03  0.12509000000E+03 0.  0.
         25    1    3    3    0    0 -0.46845471176E+02 -0.10454907863E+02  0.35547064048E+02  0.13861783843E+03  0.12509000000E+03 0.  0.
<mgrwt>
<rscale>  2 0.45433858E+03</rscale>
<asrwt>0</asrwt>
<pdfrwt beam="1">  1       21 0.40718590E-01 0.45433858E+03</pdfrwt>
<pdfrwt beam="2">  1       21 0.27408716E-01 0.45433858E+03</pdfrwt>
<totfact> 0.68297552E+04</totfact>
</mgrwt>
</event>
<event>
 6    0  0.1576925E-007  0.4582499E+03  0.7546771E-02  0.1025290E+00
         21   -1    0    0  502  501  0.00000000000E+00  0.00000000000E+00  0.27143917767E+02  0.27143917767E+02  0.00000000000E+00 0. -1.
         21   -1    0    0  501  502 -0.00000000000E+00 -0.00000000000E+00 -0.19340704275E+04  0.19340704275E+04  0.00000000000E+00 0. -1.
      99926    2    1    2    0    0 -0.17763568394E-14  0.14210854715E-13 -0.19069265097E+04  0.19612143452E+04  0.45824992587E+03 0.  0.
         25    1    3    3    0    0  0.80623210296E+01  0.10236004132E+03 -0.79339545973E+03  0.80973232781E+03  0.12509000000E+03 0.  0.
         25    1    3    3    0    0 -0.23397522468E+02 -0.94633725061E+02 -0.75189123839E+03  0.76843407553E+03  0.12509000000E+03 0.  0.
         25    1    3    3    0    0  0.15335201438E+02 -0.77263162586E+01 -0.36163981158E+03  0.38304794189E+03  0.12509000000E+03 0.  0.
<mgrwt>
<rscale>  2 0.45824993E+03</rscale>
<asrwt>0</asrwt>
<pdfrwt beam="1">  1       21 0.39917523E-02 0.45824993E+03</pdfrwt>
<pdfrwt beam="2">  1       21 0.28442215E+00 0.45824993E+03</pdfrwt>
<totfact> 0.13997214E+04</totfact>
</mgrwt>
</event>
<event>
 6    0  0.1576925E-007  0.4617187E+03  0.7546771E-02  0.1024284E+00
         21   -1    0    0  502  501  0.00000000000E+00  0.00000000000E+00  0.34404405178E+02  0.34404405178E+02  0.00000000000E+00 0.  1.
         21   -1    0    0  501  502 -0.00000000000E+00 -0.00000000000E+00 -0.15491052596E+04  0.15491052596E+04  0.00000000000E+00 0.  1.
      99926    2    1    2    0    0  0.00000000000E+00 -0.71054273576E-14 -0.15147008544E+04  0.15835096648E+04  0.46171872397E+03 0.  0.
         25    1    3    3    0    0 -0.80898296779E+02 -0.52823102019E+02 -0.43143891531E+03  0.45947998898E+03  0.12509000000E+03 0.  0.
         25    1    3    3    0    0  0.43697305703E+02  0.86693141602E+02 -0.46445795628E+03  0.49070750613E+03  0.12509000000E+03 0.  0.
         25    1    3    3    0    0  0.37200991076E+02 -0.33870039584E+02 -0.61880398284E+03  0.63332216967E+03  0.12509000000E+03 0.  0.
<mgrwt>
<rscale>  2 0.46171872E+03</rscale>
<asrwt>0</asrwt>
<pdfrwt beam="1">  1       21 0.50594720E-02 0.46171872E+03</pdfrwt>
<pdfrwt beam="2">  1       21 0.22780957E+00 0.46171872E+03</pdfrwt>
<totfact> 0.20703129E+04</totfact>
</mgrwt>
</event>
<event>
 6    0  0.1576925E-007  0.4515354E+03  0.7546771E-02  0.1027265E+00
         21   -1    0    0  502  501  0.00000000000E+00  0.00000000000E+00  0.10581846360E+03  0.10581846360E+03  0.00000000000E+00 0. -1.
         21   -1    0    0  501  502 -0.00000000000E+00 -0.00000000000E+00 -0.48168401022E+03  0.48168401022E+03  0.00000000000E+00 0. -1.
      99926    2    1    2    0    0  0.00000000000E+00  0.00000000000E+00 -0.37586554662E+03  0.58750247382E+03  0.45153543340E+03 0.  0.
         25    1    3    3    0    0 -0.37351071192E+02 -0.29059938432E+01 -0.23124965233E+03  0.26557006067E+03  0.12509000000E+03 0.  0.
         25    1    3    3    0    0  0.60006968619E+02  0.50030179374E+02 -0.46726424311E+02  0.15470850642E+03  0.12509000000E+03 0.  0.
         25    1    3    3    0    0 -0.22655897427E+02 -0.47124185531E+02 -0.97889469982E+02  0.16722390673E+03  0.12509000000E+03 0.  0.
<mgrwt>
<rscale>  2 0.45153543E+03</rscale>
<asrwt>0</asrwt>
<pdfrwt beam="1">  1       21 0.15561539E-01 0.45153543E+03</pdfrwt>
<pdfrwt beam="2">  1       21 0.70835884E-01 0.45153543E+03</pdfrwt>
<totfact> 0.61110516E+04</totfact>
</mgrwt>
</event>
<event>
 6    0  0.1576925E-007  0.4564769E+03  0.7546771E-02  0.1025808E+00
         21   -1    0    0  502  501  0.00000000000E+00  0.00000000000E+00  0.24518177666E+03  0.24518177666E+03  0.00000000000E+00 0.  1.
         21   -1    0    0  501  502 -0.00000000000E+00 -0.00000000000E+00 -0.21246603817E+03  0.21246603817E+03  0.00000000000E+00 0.  1.
      99926    2    1    2    0    0  0.00000000000E+00  0.00000000000E+00  0.32715738482E+02  0.45764781483E+03  0.45647694671E+03 0.  0.
         25    1    3    3    0    0  0.28048250441E+02 -0.82851812613E+02  0.64029580720E+02  0.16552468853E+03  0.12509000000E+03 0.  0.
         25    1    3    3    0    0 -0.20337334217E+02  0.52135147560E+02 -0.74591003566E+02  0.15602245571E+03  0.12509000000E+03 0.  0.
         25    1    3    3    0    0 -0.77109162241E+01  0.30716665053E+02  0.43277161328E+02  0.13610067058E+03  0.12509000000E+03 0.  0.
<mgrwt>
<rscale>  2 0.45647695E+03</rscale>
<asrwt>0</asrwt>
<pdfrwt beam="1">  1       21 0.36056144E-01 0.45647695E+03</pdfrwt>
<pdfrwt beam="2">  1       21 0.31245006E-01 0.45647695E+03</pdfrwt>
<totfact> 0.67552715E+04</totfact>
</mgrwt>
</event>
<event>
 6    0  0.1576925E-007  0.4528875E+03  0.7546771E-02  0.1026864E+00
         21   -1    0    0  502  501  0.00000000000E+00  0.00000000000E+00  0.15205109076E+03  0.15205109076E+03  0.00000000000E+00 0. -1.
         21   -1    0    0  501  502 -0.00000000000E+00 -0.00000000000E+00 -0.33723384064E+03  0.33723384064E+03  0.00000000000E+00 0. -1.
      99926    2    1    2    0    0 -0.35527136788E-14  0.71054273576E-14 -0.18518274988E+03  0.48928493140E+03  0.45288750617E+03 0.  0.
         25    1    3    3    0    0 -0.40480095158E+01 -0.13674691419E+02 -0.16708842655E+03  0.20921145751E+03  0.12509000000E+03 0.  0.
         25    1    3    3    0    0 -0.21828260848E+02  0.63413199687E+02 -0.10510050578E+01  0.14193773134E+03  0.12509000000E+03 0.  0.
         25    1    3    3    0    0  0.25876270364E+02 -0.49738508267E+02 -0.17043318272E+02  0.13813574255E+03  0.12509000000E+03 0.  0.
<mgrwt>
<rscale>  2 0.45288751E+03</rscale>
<asrwt>0</asrwt>
<pdfrwt beam="1">  1       21 0.22360455E-01 0.45288751E+03</pdfrwt>
<pdfrwt beam="2">  1       21 0.49593211E-01 0.45288751E+03</pdfrwt>
<totfact> 0.67149258E+04</totfact>
</mgrwt>
</event>
<event>
 6    0  0.1576925E-007  0.4510711E+03  0.7546771E-02  0.1027403E+00
         21   -1    0    0  502  501  0.00000000000E+00  0.00000000000E+00  0.47949294533E+03  0.47949294533E+03  0.00000000000E+00 0.  1.
         21   -1    0    0  501  502 -0.00000000000E+00 -0.00000000000E+00 -0.10608347089E+03  0.10608347089E+03  0.00000000000E+00 0.  1.
      99926    2    1    2    0    0  0.32196467714E-14  0.00000000000E+00  0.37340947445E+03  0.58557641622E+03  0.45107106273E+03 0.  0.
         25    1    3    3    0    0  0.56527536816E+02  0.29546736359E+02  0.63646099187E+02  0.15416454226E+03  0.12509000000E+03 0.  0.
         25    1    3    3    0    0 -0.64098363295E+00 -0.79367104213E+02  0.20017247031E+03  0.24903026736E+03  0.12509000000E+03 0.  0.
         25    1    3    3    0    0 -0.55886553183E+02  0.49820367854E+02  0.10959090495E+03  0.18238160660E+03  0.12509000000E+03 0.  0.
<mgrwt>
<rscale>  2 0.45107106E+03</rscale>
<asrwt>0</asrwt>
<pdfrwt beam="1">  1       21 0.70513667E-01 0.45107106E+03</pdfrwt>
<pdfrwt beam="2">  1       21 0.15600511E-01 0.45107106E+03</pdfrwt>
<totfact> 0.61461591E+04</totfact>
</mgrwt>
</event>
<event>
 6    0  0.1576925E-007  0.4582615E+03  0.7546771E-02  0.1025287E+00
         21   -1    0    0  502  501  0.00000000000E+00  0.00000000000E+00  0.39919977538E+03  0.39919977538E+03  0.00000000000E+00 0.  1.
         21   -1    0    0  501  502 -0.00000000000E+00 -0.00000000000E+00 -0.13151536966E+03  0.13151536966E+03  0.00000000000E+00 0.  1.
      99926    2    1    2    0    0 -0.14210854715E-13 -0.35527136788E-14  0.26768440571E+03  0.53071514504E+03  0.45826152371E+03 0.  0.
         25    1    3    3    0    0 -0.93868838706E+02 -0.26713122923E+02  0.16147201074E+03  0.22637506084E+03  0.12509000000E+03 0.  0.
         25    1    3    3    0    0  0.91768029187E+02  0.16484958114E+02  0.34533402381E+02  0.15979107924E+03  0.12509000000E+03 0.  0.
         25    1    3    3    0    0  0.21008095186E+01  0.10228164809E+02  0.71678992588E+02  0.14454900496E+03  0.12509000000E+03 0.  0.
<mgrwt>
<rscale>  2 0.45826152E+03</rscale>
<asrwt>0</asrwt>
<pdfrwt beam="1">  1       21 0.58705849E-01 0.45826152E+03</pdfrwt>
<pdfrwt beam="2">  1       21 0.19340496E-01 0.45826152E+03</pdfrwt>
<totfact> 0.61551476E+04</totfact>
</mgrwt>
</event>
<event>
 6    0  0.1576925E-007  0.4688575E+03  0.7546771E-02  0.1022243E+00
         21   -1    0    0  502  501  0.00000000000E+00  0.00000000000E+00  0.70051591111E+02  0.70051591111E+02  0.00000000000E+00 0.  1.
         21   -1    0    0  501  502 -0.00000000000E+00 -0.00000000000E+00 -0.78451934085E+03  0.78451934085E+03  0.00000000000E+00 0.  1.
      99926    2    1    2    0    0  0.00000000000E+00  0.00000000000E+00 -0.71446774974E+03  0.85457093196E+03  0.46885745418E+03 0.  0.
         25    1    3    3    0    0 -0.87733721219E+02  0.32013362015E+02 -0.29253591780E+03  0.33158231631E+03  0.12509000000E+03 0.  0.
         25    1    3    3    0    0  0.81870221812E+02  0.48059614550E+02 -0.25497346826E+03  0.29945189494E+03  0.12509000000E+03 0.  0.
         25    1    3    3    0    0  0.58634994068E+01 -0.80072976564E+02 -0.16695836368E+03  0.22353672070E+03  0.12509000000E+03 0.  0.
<mgrwt>
<rscale>  2 0.46885745E+03</rscale>
<asrwt>0</asrwt>
<pdfrwt beam="1">  1       21 0.10301704E-01 0.46885745E+03</pdfrwt>
<pdfrwt beam="2">  1       21 0.11537050E+00 0.46885745E+03</pdfrwt>
<totfact> 0.40634989E+04</totfact>
</mgrwt>
</event>
<event>
 6    0  0.1576925E-007  0.4579656E+03  0.7546771E-02  0.1025373E+00
         21   -1    0    0  502  501  0.00000000000E+00  0.00000000000E+00  0.31620946778E+03  0.31620946778E+03  0.00000000000E+00 0. -1.
         21   -1    0    0  501  502 -0.00000000000E+00 -0.00000000000E+00 -0.16581766118E+03  0.16581766118E+03  0.00000000000E+00 0. -1.
      99926    2    1    2    0    0  0.35527136788E-14  0.00000000000E+00  0.15039180661E+03  0.48202712896E+03  0.45796556373E+03 0.  0.
         25    1    3    3    0    0  0.85579845817E+01 -0.65542719425E+02 -0.59975310244E+01  0.14160708191E+03  0.12509000000E+03 0.  0.
         25    1    3    3    0    0  0.27478255123E+02 -0.40499176574E+02  0.74769257531E+02  0.15373089403E+03  0.12509000000E+03 0.  0.
         25    1    3    3    0    0 -0.36036239705E+02  0.10604189600E+03  0.81620080100E+02  0.18668915302E+03  0.12509000000E+03 0.  0.
<mgrwt>
<rscale>  2 0.45796556E+03</rscale>
<asrwt>0</asrwt>
<pdfrwt beam="1">  1       21 0.46501392E-01 0.45796556E+03</pdfrwt>
<pdfrwt beam="2">  1       21 0.24384950E-01 0.45796556E+03</pdfrwt>
<totfact> 0.65009041E+04</totfact>
</mgrwt>
</event>
<event>
 6    0  0.1576925E-007  0.4609134E+03  0.7546771E-02  0.1024517E+00
         21   -1    0    0  502  501  0.00000000000E+00  0.00000000000E+00  0.29087797569E+03  0.29087797569E+03  0.00000000000E+00 0. -1.
         21   -1    0    0  501  502 -0.00000000000E+00 -0.00000000000E+00 -0.18258619022E+03  0.18258619022E+03  0.00000000000E+00 0. -1.
      99926    2    1    2    0    0 -0.17763568394E-14  0.00000000000E+00  0.10829178547E+03  0.47346416591E+03  0.46091344697E+03 0.  0.
         25    1    3    3    0    0  0.57215711949E+02  0.81275486775E+01 -0.35982669652E+02  0.14241473013E+03  0.12509000000E+03 0.  0.
         25    1    3    3    0    0 -0.64473683276E+02  0.46299021898E+02  0.12348932384E+03  0.19286673240E+03  0.12509000000E+03 0.  0.
         25    1    3    3    0    0  0.72579713267E+01 -0.54426570575E+02  0.20785131279E+02  0.13818270338E+03  0.12509000000E+03 0.  0.
<mgrwt>
<rscale>  2 0.46091345E+03</rscale>
<asrwt>0</asrwt>
<pdfrwt beam="1">  1       21 0.42776173E-01 0.46091345E+03</pdfrwt>
<pdfrwt beam="2">  1       21 0.26850910E-01 0.46091345E+03</pdfrwt>
<totfact> 0.64118044E+04</totfact>
</mgrwt>
</event>
<event>
 6    0  0.1576925E-007  0.4524676E+03  0.7546771E-02  0.1026989E+00
         21   -1    0    0  502  501  0.00000000000E+00  0.00000000000E+00  0.33202026587E+03  0.33202026587E+03  0.00000000000E+00 0.  1.
         21   -1    0    0  501  502 -0.00000000000E+00 -0.00000000000E+00 -0.15415245873E+03  0.15415245873E+03  0.00000000000E+00 0.  1.
      99926    2    1    2    0    0  0.00000000000E+00  0.71054273576E-14  0.17786780714E+03  0.48617272460E+03  0.45246763566E+03 0.  0.
         25    1    3    3    0    0 -0.10190442816E+03 -0.20242956883E+01  0.94818244807E+02  0.18715399515E+03  0.12509000000E+03 0.  0.
         25    1    3    3    0    0  0.68482380900E+02  0.46462783955E+02  0.35781824227E+02  0.15419621860E+03  0.12509000000E+03 0.  0.
         25    1    3    3    0    0  0.33422047255E+02 -0.44438488266E+02  0.47267738106E+02  0.14482251085E+03  0.12509000000E+03 0.  0.
<mgrwt>
<rscale>  2 0.45246764E+03</rscale>
<asrwt>0</asrwt>
<pdfrwt beam="1">  1       21 0.48826510E-01 0.45246764E+03</pdfrwt>
<pdfrwt beam="2">  1       21 0.22669479E-01 0.45246764E+03</pdfrwt>
<totfact> 0.67602294E+04</totfact>
</mgrwt>
</event>
<event>
 6    0  0.1576925E-007  0.4803940E+03  0.7546771E-02  0.1019027E+00
         21   -1    0    0  502  501  0.00000000000E+00  0.00000000000E+00  0.61567103492E+02  0.61567103492E+02  0.00000000000E+00 0. -1.
         21   -1    0    0  501  502 -0.00000000000E+00 -0.00000000000E+00 -0.93710099596E+03  0.93710099596E+03  0.00000000000E+00 0. -1.
      99926    2    1    2    0    0 -0.35527136788E-14  0.00000000000E+00 -0.87553389247E+03  0.99866809946E+03  0.48039397998E+03 0.  0.
         25    1    3    3    0    0 -0.11458739590E+02  0.37153293133E+02 -0.24099951198E+03  0.27429900251E+03  0.12509000000E+03 0.  0.
         25    1    3    3    0    0  0.12179196634E+03  0.88716374785E+01 -0.35298370033E+03  0.39389972051E+03  0.12509000000E+03 0.  0.
         25    1    3    3    0    0 -0.11033322675E+03 -0.46024930611E+02 -0.28155068016E+03  0.33046937644E+03  0.12509000000E+03 0.  0.
<mgrwt>
<rscale>  2 0.48039398E+03</rscale>
<asrwt>0</asrwt>
<pdfrwt beam="1">  1       21 0.90539864E-02 0.48039398E+03</pdfrwt>
<pdfrwt beam="2">  1       21 0.13780896E+00 0.48039398E+03</pdfrwt>
<totfact> 0.32316449E+04</totfact>
</mgrwt>
</event>
<event>
 6    0  0.1576925E-007  0.4486165E+03  0.7546771E-02  0.1028135E+00
         21   -1    0    0  502  501  0.00000000000E+00  0.00000000000E+00  0.19250441846E+03  0.19250441846E+03  0.00000000000E+00 0.  1.
         21   -1    0    0  501  502 -0.00000000000E+00 -0.00000000000E+00 -0.26136641292E+03  0.26136641292E+03  0.00000000000E+00 0.  1.
      99926    2    1    2    0    0  0.00000000000E+00  0.00000000000E+00 -0.68861994460E+02  0.45387083137E+03  0.44861649244E+03 0.  0.
         25    1    3    3    0    0 -0.23480930476E+02  0.84888433274E+02  0.17359449559E+02  0.15396836944E+03  0.12509000000E+03 0.  0.
         25    1    3    3    0    0 -0.32673003490E+02 -0.71433332923E+01 -0.43445465910E+02  0.13657806916E+03  0.12509000000E+03 0.  0.
         25    1    3    3    0    0  0.56153933966E+02 -0.77745099982E+02 -0.42775978109E+02  0.16332439277E+03  0.12509000000E+03 0.  0.
<mgrwt>
<rscale>  2 0.44861649E+03</rscale>
<asrwt>0</asrwt>
<pdfrwt beam="1">  1       21 0.28309474E-01 0.44861649E+03</pdfrwt>
<pdfrwt beam="2">  1       21 0.38436237E-01 0.44861649E+03</pdfrwt>
<totfact> 0.72237429E+04</totfact>
</mgrwt>
</event>
<event>
 6    0  0.1576925E-007  0.4590582E+03  0.7546771E-02  0.1025055E+00
         21   -1    0    0  502  501  0.00000000000E+00  0.00000000000E+00  0.22028956562E+03  0.22028956562E+03  0.00000000000E+00 0. -1.
         21   -1    0    0  501  502 -0.00000000000E+00 -0.00000000000E+00 -0.23915612426E+03  0.23915612426E+03  0.00000000000E+00 0. -1.
      99926    2    1    2    0    0 -0.71054273576E-14  0.00000000000E+00 -0.18866558640E+02  0.45944568987E+03  0.45905816070E+03 0.  0.
         25    1    3    3    0    0  0.95825961753E+02 -0.35450054666E+01  0.20408663607E+02  0.15893144327E+03  0.12509000000E+03 0.  0.
         25    1    3    3    0    0 -0.11591535559E+02 -0.25628714171E+02 -0.66631297609E+02  0.14449371131E+03  0.12509000000E+03 0.  0.
         25    1    3    3    0    0 -0.84234426194E+02  0.29173719637E+02  0.27356075362E+02  0.15602053529E+03  0.12509000000E+03 0.  0.
<mgrwt>
<rscale>  2 0.45905816E+03</rscale>
<asrwt>0</asrwt>
<pdfrwt beam="1">  1       21 0.32395525E-01 0.45905816E+03</pdfrwt>
<pdfrwt beam="2">  1       21 0.35170018E-01 0.45905816E+03</pdfrwt>
<totfact> 0.66056411E+04</totfact>
</mgrwt>
</event>
<event>
 6    0  0.1576925E-007  0.4512241E+03  0.7546771E-02  0.1027358E+00
         21   -1    0    0  502  501  0.00000000000E+00  0.00000000000E+00  0.17138902476E+04  0.17138902476E+04  0.00000000000E+00 0. -1.
         21   -1    0    0  501  502 -0.00000000000E+00 -0.00000000000E+00 -0.29698982101E+02  0.29698982101E+02  0.00000000000E+00 0. -1.
      99926    2    1    2    0    0  0.00000000000E+00  0.00000000000E+00  0.16841912655E+04  0.17435892297E+04  0.45122409415E+03 0.  0.
         25    1    3    3    0    0 -0.10373096526E+02 -0.55186020334E+01  0.42544328349E+03  0.44360742968E+03  0.12509000000E+03 0.  0.
         25    1    3    3    0    0  0.51646574450E+02  0.71733090290E+02  0.39341896816E+03  0.42218360639E+03  0.12509000000E+03 0.  0.
         25    1    3    3    0    0 -0.41273477925E+02 -0.66214488256E+02  0.86532901381E+03  0.87779819359E+03  0.12509000000E+03 0.  0.
<mgrwt>
<rscale>  2 0.45122409E+03</rscale>
<asrwt>0</asrwt>
<pdfrwt beam="1">  1       21 0.25204262E+00 0.45122409E+03</pdfrwt>
<pdfrwt beam="2">  1       21 0.43674985E-02 0.45122409E+03</pdfrwt>
<totfact> 0.18917520E+04</totfact>
</mgrwt>
</event>
<event>
 6    0  0.1576925E-007  0.4557258E+03  0.7546771E-02  0.1026028E+00
         21   -1    0    0  502  501  0.00000000000E+00  0.00000000000E+00  0.23322714400E+04  0.23322714400E+04  0.00000000000E+00 0. -1.
         21   -1    0    0  501  502 -0.00000000000E+00 -0.00000000000E+00 -0.22262203018E+02  0.22262203018E+02  0.00000000000E+00 0. -1.
      99926    2    1    2    0    0  0.35527136788E-14 -0.35527136788E-14  0.23100092370E+04  0.23545336430E+04  0.45572579602E+03 0.  0.
         25    1    3    3    0    0 -0.46772901127E+02  0.61131126583E+02  0.41520080651E+03  0.44041337031E+03  0.12509000000E+03 0.  0.
         25    1    3    3    0    0  0.25029068985E+02  0.56937613299E+01  0.90880189738E+03  0.91772941001E+03  0.12509000000E+03 0.  0.
         25    1    3    3    0    0  0.21743832142E+02 -0.66824887913E+02  0.98600653308E+03  0.99639086269E+03  0.12509000000E+03 0.  0.
<mgrwt>
<rscale>  2 0.45572580E+03</rscale>
<asrwt>0</asrwt>
<pdfrwt beam="1">  1       21 0.34298093E+00 0.45572580E+03</pdfrwt>
<pdfrwt beam="2">  1       21 0.32738550E-02 0.45572580E+03</pdfrwt>
<totfact> 0.86879618E+03</totfact>
</mgrwt>
</event>
<event>
 6    0  0.1576925E-007  0.4500847E+03  0.7546771E-02  0.1027697E+00
         21   -1    0    0  502  501  0.00000000000E+00  0.00000000000E+00  0.23692448090E+03  0.23692448090E+03  0.00000000000E+00 0.  1.
         21   -1    0    0  501  502 -0.00000000000E+00 -0.00000000000E+00 -0.21375609780E+03  0.21375609780E+03  0.00000000000E+00 0.  1.
      99926    2    1    2    0    0  0.00000000000E+00  0.69388939039E-16  0.23168383103E+02  0.45068057870E+03  0.45008466986E+03 0.  0.
         25    1    3    3    0    0  0.41930925679E+02 -0.51658405745E-01  0.10518305393E+03  0.16872814860E+03  0.12509000000E+03 0.  0.
         25    1    3    3    0    0 -0.12409211156E+02 -0.15044113995E+01 -0.87716173103E+02  0.15329020484E+03  0.12509000000E+03 0.  0.
         25    1    3    3    0    0 -0.29521714523E+02  0.15560698052E+01  0.57015022781E+01  0.12866222526E+03  0.12509000000E+03 0.  0.
<mgrwt>
<rscale>  2 0.45008467E+03</rscale>
<asrwt>0</asrwt>
<pdfrwt beam="1">  1       21 0.34841836E-01 0.45008467E+03</pdfrwt>
<pdfrwt beam="2">  1       21 0.31434720E-01 0.45008467E+03</pdfrwt>
<totfact> 0.71631776E+04</totfact>
</mgrwt>
</event>
<event>
 6    0  0.1576925E-007  0.4454724E+03  0.7546771E-02  0.1029081E+00
         21   -1    0    0  502  501  0.00000000000E+00  0.00000000000E+00  0.32346684386E+03  0.32346684386E+03  0.00000000000E+00 0.  1.
         21   -1    0    0  501  502 -0.00000000000E+00 -0.00000000000E+00 -0.15337404819E+03  0.15337404819E+03  0.00000000000E+00 0.  1.
      99926    2    1    2    0    0  0.35527136788E-14 -0.35527136788E-14  0.17009279567E+03  0.47684089206E+03  0.44547242024E+03 0.  0.
         25    1    3    3    0    0  0.49939351578E+02 -0.60231914690E+02  0.12702295491E+03  0.19468991129E+03  0.12509000000E+03 0.  0.
         25    1    3    3    0    0 -0.16746722406E+02 -0.14334688833E+02  0.38475017776E+02  0.13271688328E+03  0.12509000000E+03 0.  0.
         25    1    3    3    0    0 -0.33192629172E+02  0.74566603523E+02  0.45948229771E+01  0.14943409748E+03  0.12509000000E+03 0.  0.
<mgrwt>
<rscale>  2 0.44547242E+03</rscale>
<asrwt>0</asrwt>
<pdfrwt beam="1">  1       21 0.47568653E-01 0.44547242E+03</pdfrwt>
<pdfrwt beam="2">  1       21 0.22555007E-01 0.44547242E+03</pdfrwt>
<totfact> 0.72241684E+04</totfact>
</mgrwt>
</event>
<event>
 6    0  0.1576925E-007  0.4618508E+03  0.7546771E-02  0.1024246E+00
         21   -1    0    0  502  501  0.00000000000E+00  0.00000000000E+00  0.11853608078E+03  0.11853608078E+03  0.00000000000E+00 0. -1.
         21   -1    0    0  501  502 -0.00000000000E+00 -0.00000000000E+00 -0.44987594483E+03  0.44987594483E+03  0.00000000000E+00 0. -1.
      99926    2    1    2    0    0  0.00000000000E+00  0.00000000000E+00 -0.33133986405E+03  0.56841202561E+03  0.46185076091E+03 0.  0.
         25    1    3    3    0    0 -0.21057932934E+02 -0.89049535944E+02 -0.85166635552E+02  0.17684490466E+03  0.12509000000E+03 0.  0.
         25    1    3    3    0    0 -0.10620081256E+02  0.32557548866E+02 -0.20885143098E+03  0.24584387004E+03  0.12509000000E+03 0.  0.
         25    1    3    3    0    0  0.31678014190E+02  0.56491987078E+02 -0.37321797518E+02  0.14572325091E+03  0.12509000000E+03 0.  0.
<mgrwt>
<rscale>  2 0.46185076E+03</rscale>
<asrwt>0</asrwt>
<pdfrwt beam="1">  1       21 0.17431776E-01 0.46185076E+03</pdfrwt>
<pdfrwt beam="2">  1       21 0.66158228E-01 0.46185076E+03</pdfrwt>
<totfact> 0.57487536E+04</totfact>
</mgrwt>
</event>
<event>
 6    0  0.1576925E-007  0.4438296E+03  0.7546771E-02  0.1029578E+00
         21   -1    0    0  502  501  0.00000000000E+00  0.00000000000E+00  0.10485226670E+04  0.10485226670E+04  0.00000000000E+00 0. -1.
         21   -1    0    0  501  502 -0.00000000000E+00 -0.00000000000E+00 -0.46967211480E+02  0.46967211480E+02  0.00000000000E+00 0. -1.
      99926    2    1    2    0    0  0.00000000000E+00  0.00000000000E+00  0.10015554555E+04  0.10954898785E+04  0.44382963327E+03 0.  0.
         25    1    3    3    0    0  0.30462397760E+02 -0.51282860654E+02  0.55642001069E+03  0.57341836897E+03  0.12509000000E+03 0.  0.
         25    1    3    3    0    0 -0.49210171137E+02  0.15514285106E+02  0.17109200770E+03  0.21813371401E+03  0.12509000000E+03 0.  0.
         25    1    3    3    0    0  0.18747773377E+02  0.35768575548E+02  0.27404343710E+03  0.30393779548E+03  0.12509000000E+03 0.  0.
<mgrwt>
<rscale>  2 0.44382963E+03</rscale>
<asrwt>0</asrwt>
<pdfrwt beam="1">  1       21 0.15419449E+00 0.44382963E+03</pdfrwt>
<pdfrwt beam="2">  1       21 0.69069436E-02 0.44382963E+03</pdfrwt>
<totfact> 0.38934908E+04</totfact>
</mgrwt>
</event>
<event>
 6    0  0.1576925E-007  0.4544947E+03  0.7546771E-02  0.1026390E+00
         21   -1    0    0  502  501  0.00000000000E+00  0.00000000000E+00  0.62384535242E+02  0.62384535242E+02  0.00000000000E+00 0. -1.
         21   -1    0    0  501  502 -0.00000000000E+00 -0.00000000000E+00 -0.82779103676E+03  0.82779103676E+03  0.00000000000E+00 0. -1.
      99926    2    1    2    0    0  0.00000000000E+00  0.00000000000E+00 -0.76540650151E+03  0.89017557200E+03  0.45449470451E+03 0.  0.
         25    1    3    3    0    0 -0.34430711311E+02  0.30652818522E+02 -0.10458829403E+03  0.16944405718E+03  0.12509000000E+03 0.  0.
         25    1    3    3    0    0 -0.26175019016E+02 -0.65296434889E+02 -0.35979770348E+03  0.38736371998E+03  0.12509000000E+03 0.  0.
         25    1    3    3    0    0  0.60605730328E+02  0.34643616366E+02 -0.30102050401E+03  0.33336779484E+03  0.12509000000E+03 0.  0.
<mgrwt>
<rscale>  2 0.45449470E+03</rscale>
<asrwt>0</asrwt>
<pdfrwt beam="1">  1       21 0.91741966E-02 0.45449470E+03</pdfrwt>
<pdfrwt beam="2">  1       21 0.12173397E+00 0.45449470E+03</pdfrwt>
<totfact> 0.43834376E+04</totfact>
</mgrwt>
</event>
<event>
 6    0  0.1576925E-007  0.4505257E+03  0.7546771E-02  0.1027565E+00
         21   -1    0    0  502  501  0.00000000000E+00  0.00000000000E+00  0.59609832242E+02  0.59609832242E+02  0.00000000000E+00 0.  1.
         21   -1    0    0  501  502 -0.00000000000E+00 -0.00000000000E+00 -0.85125824874E+03  0.85125824874E+03  0.00000000000E+00 0.  1.
      99926    2    1    2    0    0  0.00000000000E+00  0.35527136788E-14 -0.79164841650E+03  0.91086808099E+03  0.45052574356E+03 0.  0.
         25    1    3    3    0    0 -0.41351162054E+02  0.29852115695E+02 -0.19516813406E+03  0.23735874972E+03  0.12509000000E+03 0.  0.
         25    1    3    3    0    0  0.27237741377E+02 -0.63545425441E+02 -0.14500155806E+03  0.20359979271E+03  0.12509000000E+03 0.  0.
         25    1    3    3    0    0  0.14113420677E+02  0.33693309745E+02 -0.45147872437E+03  0.46990953856E+03  0.12509000000E+03 0.  0.
<mgrwt>
<rscale>  2 0.45052574E+03</rscale>
<asrwt>0</asrwt>
<pdfrwt beam="1">  1       21 0.87661529E-02 0.45052574E+03</pdfrwt>
<pdfrwt beam="2">  1       21 0.12518502E+00 0.45052574E+03</pdfrwt>
<totfact> 0.44297795E+04</totfact>
</mgrwt>
</event>
<event>
 6    0  0.1576925E-007  0.4515000E+03  0.7546771E-02  0.1027276E+00
         21   -1    0    0  502  501  0.00000000000E+00  0.00000000000E+00  0.94767921630E+03  0.94767921630E+03  0.00000000000E+00 0. -1.
         21   -1    0    0  501  502 -0.00000000000E+00 -0.00000000000E+00 -0.53776699902E+02  0.53776699902E+02  0.00000000000E+00 0. -1.
      99926    2    1    2    0    0  0.35527136788E-14  0.71054273576E-14  0.89390251640E+03  0.10014559162E+04  0.45149999255E+03 0.  0.
         25    1    3    3    0    0 -0.12862332101E+02  0.49439151486E+02  0.13793845599E+03  0.19309115730E+03  0.12509000000E+03 0.  0.
         25    1    3    3    0    0 -0.40986553357E+02 -0.62936219734E+02  0.45317207040E+03  0.47608118930E+03  0.12509000000E+03 0.  0.
         25    1    3    3    0    0  0.53848885458E+02  0.13497068249E+02  0.30279199001E+03  0.33228356961E+03  0.12509000000E+03 0.  0.
<mgrwt>
<rscale>  2 0.45149999E+03</rscale>
<asrwt>0</asrwt>
<pdfrwt beam="1">  1       21 0.13936458E+00 0.45149999E+03</pdfrwt>
<pdfrwt beam="2">  1       21 0.79083388E-02 0.45149999E+03</pdfrwt>
<totfact> 0.40197780E+04</totfact>
</mgrwt>
</event>
<event>
 6    0  0.1576925E-007  0.4894068E+03  0.7546771E-02  0.1016581E+00
         21   -1    0    0  502  501  0.00000000000E+00  0.00000000000E+00  0.11160371334E+03  0.11160371334E+03  0.00000000000E+00 0.  1.
         21   -1    0    0  501  502 -0.00000000000E+00 -0.00000000000E+00 -0.53653904695E+03  0.53653904695E+03  0.00000000000E+00 0.  1.
      99926    2    1    2    0    0 -0.17763568394E-14 -0.71054273576E-14 -0.42493533361E+03  0.64814276030E+03  0.48940678374E+03 0.  0.
         25    1    3    3    0    0  0.10825842822E+02  0.58672332470E+02 -0.30110056916E+03  0.33146448123E+03  0.12509000000E+03 0.  0.
         25    1    3    3    0    0 -0.71001576440E+02 -0.46504172978E+02 -0.77194095456E+02  0.16973596683E+03  0.12509000000E+03 0.  0.
         25    1    3    3    0    0  0.60175733618E+02 -0.12168159491E+02 -0.46640668997E+02  0.14694231224E+03  0.12509000000E+03 0.  0.
<mgrwt>
<rscale>  2 0.48940678E+03</rscale>
<asrwt>0</asrwt>
<pdfrwt beam="1">  1       21 0.16412311E-01 0.48940678E+03</pdfrwt>
<pdfrwt beam="2">  1       21 0.78902801E-01 0.48940678E+03</pdfrwt>
<totfact> 0.42914118E+04</totfact>
</mgrwt>
</event>
<event>
 6    0  0.1576925E-007  0.4395317E+03  0.7546771E-02  0.1030891E+00
         21   -1    0    0  502  501  0.00000000000E+00  0.00000000000E+00  0.17107954303E+03  0.17107954303E+03  0.00000000000E+00 0.  1.
         21   -1    0    0  501  502 -0.00000000000E+00 -0.00000000000E+00 -0.28230743119E+03  0.28230743119E+03  0.00000000000E+00 0.  1.
      99926    2    1    2    0    0  0.00000000000E+00  0.00000000000E+00 -0.11122788816E+03  0.45338697422E+03  0.43953168860E+03 0.  0.
         25    1    3    3    0    0 -0.25067300233E+02 -0.80113621630E+02 -0.99443718698E+02  0.18050795883E+03  0.12509000000E+03 0.  0.
         25    1    3    3    0    0 -0.19998475032E+02  0.46678177328E+02  0.25743719470E+01  0.13502935508E+03  0.12509000000E+03 0.  0.
         25    1    3    3    0    0  0.45065775265E+02  0.33435444302E+02 -0.14358541407E+02  0.13784966031E+03  0.12509000000E+03 0.  0.
<mgrwt>
<rscale>  2 0.43953169E+03</rscale>
<asrwt>0</asrwt>
<pdfrwt beam="1">  1       21 0.25158757E-01 0.43953169E+03</pdfrwt>
<pdfrwt beam="2">  1       21 0.41515798E-01 0.43953169E+03</pdfrwt>
<totfact> 0.77809005E+04</totfact>
</mgrwt>
</event>
<event>
 6    0  0.1576925E-007  0.4561564E+03  0.7546771E-02  0.1025902E+00
         21   -1    0    0  502  501  0.00000000000E+00  0.00000000000E+00  0.49227864529E+02  0.49227864529E+02  0.00000000000E+00 0.  1.
         21   -1    0    0  501  502 -0.00000000000E+00 -0.00000000000E+00 -0.10567118548E+04  0.10567118548E+04  0.00000000000E+00 0.  1.
      99926    2    1    2    0    0  0.35527136788E-14  0.17763568394E-14 -0.10074839903E+04  0.11059397194E+04  0.45615641193E+03 0.  0.
         25    1    3    3    0    0  0.31333746954E+02  0.20248177296E+01 -0.20134538011E+03  0.23910954347E+03  0.12509000000E+03 0.  0.
         25    1    3    3    0    0  0.29154703396E+02 -0.38966332634E+02 -0.60425727141E+03  0.61898524212E+03  0.12509000000E+03 0.  0.
         25    1    3    3    0    0 -0.60488450350E+02  0.36941514904E+02 -0.20188133878E+03  0.24784493377E+03  0.12509000000E+03 0.  0.
<mgrwt>
<rscale>  2 0.45615641E+03</rscale>
<asrwt>0</asrwt>
<pdfrwt beam="1">  1       21 0.72393929E-02 0.45615641E+03</pdfrwt>
<pdfrwt beam="2">  1       21 0.15539878E+00 0.45615641E+03</pdfrwt>
<totfact> 0.34971411E+04</totfact>
</mgrwt>
</event>
<event>
 6    0  0.1576925E-007  0.4532161E+03  0.7546771E-02  0.1026767E+00
         21   -1    0    0  502  501  0.00000000000E+00  0.00000000000E+00  0.75395903827E+02  0.75395903827E+02  0.00000000000E+00 0.  1.
         21   -1    0    0  501  502 -0.00000000000E+00 -0.00000000000E+00 -0.68108751350E+03  0.68108751350E+03  0.00000000000E+00 0.  1.
      99926    2    1    2    0    0 -0.71054273576E-14  0.00000000000E+00 -0.60569160967E+03  0.75648341733E+03  0.45321610150E+03 0.  0.
         25    1    3    3    0    0  0.76042155855E+02  0.40560027590E+01 -0.16130029616E+03  0.21786269590E+03  0.12509000000E+03 0.  0.
         25    1    3    3    0    0 -0.28047038466E+02 -0.79219715179E+02 -0.21650347957E+03  0.26378715739E+03  0.12509000000E+03 0.  0.
         25    1    3    3    0    0 -0.47995117388E+02  0.75163712420E+02 -0.22788783395E+03  0.27483356403E+03  0.12509000000E+03 0.  0.
<mgrwt>
<rscale>  2 0.45321610E+03</rscale>
<asrwt>0</asrwt>
<pdfrwt beam="1">  1       21 0.11087633E-01 0.45321610E+03</pdfrwt>
<pdfrwt beam="2">  1       21 0.10015993E+00 0.45321610E+03</pdfrwt>
<totfact> 0.50646638E+04</totfact>
</mgrwt>
</event>
<event>
 6    0  0.1576925E-007  0.4674042E+03  0.7546771E-02  0.1022655E+00
         21   -1    0    0  502  501  0.00000000000E+00  0.00000000000E+00  0.11255010568E+04  0.11255010568E+04  0.00000000000E+00 0. -1.
         21   -1    0    0  501  502 -0.00000000000E+00 -0.00000000000E+00 -0.48526548323E+02  0.48526548323E+02  0.00000000000E+00 0. -1.
      99926    2    1    2    0    0  0.53290705182E-14 -0.71054273576E-14  0.10769745085E+04  0.11740276051E+04  0.46740424225E+03 0.  0.
         25    1    3    3    0    0 -0.13043287455E+02  0.39111629845E+02  0.42846263547E+03  0.44824946740E+03  0.12509000000E+03 0.  0.
         25    1    3    3    0    0 -0.51980127226E+02  0.62306527705E+02  0.25032665878E+03  0.29136743335E+03  0.12509000000E+03 0.  0.
         25    1    3    3    0    0  0.65023414680E+02 -0.10141815755E+03  0.39818521422E+03  0.43441070435E+03  0.12509000000E+03 0.  0.
<mgrwt>
<rscale>  2 0.46740424E+03</rscale>
<asrwt>0</asrwt>
<pdfrwt beam="1">  1       21 0.16551485E+00 0.46740424E+03</pdfrwt>
<pdfrwt beam="2">  1       21 0.71362578E-02 0.46740424E+03</pdfrwt>
<totfact> 0.29985464E+04</totfact>
</mgrwt>
</event>
<event>
 6    0  0.1576925E-007  0.4586591E+03  0.7546771E-02  0.1025171E+00
         21   -1    0    0  502  501  0.00000000000E+00  0.00000000000E+00  0.43381330476E+03  0.43381330476E+03  0.00000000000E+00 0.  1.
         21   -1    0    0  501  502 -0.00000000000E+00 -0.00000000000E+00 -0.12123195368E+03  0.12123195368E+03  0.00000000000E+00 0.  1.
      99926    2    1    2    0    0 -0.17763568394E-14  0.00000000000E+00  0.31258135108E+03  0.55504525845E+03  0.45865906497E+03 0.  0.
         25    1    3    3    0    0 -0.33950826973E+02  0.46907291457E+02  0.81434696466E+02  0.16010018905E+03  0.12509000000E+03 0.  0.
         25    1    3    3    0    0  0.13105031916E+02  0.31665404392E+02  0.20633385451E+03  0.24371214027E+03  0.12509000000E+03 0.  0.
         25    1    3    3    0    0  0.20845795056E+02 -0.78572695849E+02  0.24812800101E+02  0.15123292913E+03  0.12509000000E+03 0.  0.
<mgrwt>
<rscale>  2 0.45865906E+03</rscale>
<asrwt>0</asrwt>
<pdfrwt beam="1">  1       21 0.63796074E-01 0.45865906E+03</pdfrwt>
<pdfrwt beam="2">  1       21 0.17828229E-01 0.45865906E+03</pdfrwt>
<totfact> 0.59784883E+04</totfact>
</mgrwt>
</event>
<event>
 6    0  0.1576925E-007  0.4528595E+03  0.7546771E-02  0.1026873E+00
         21   -1    0    0  502  501  0.00000000000E+00  0.00000000000E+00  0.16814766098E+04  0.16814766098E+04  0.00000000000E+00 0. -1.
         21   -1    0    0  501  502 -0.00000000000E+00 -0.00000000000E+00 -0.30491314843E+02  0.30491314843E+02  0.00000000000E+00 0. -1.
      99926    2    1    2    0    0  0.00000000000E+00  0.00000000000E+00  0.16509852950E+04  0.17119679247E+04  0.45285950453E+03 0.  0.
         25    1    3    3    0    0  0.12509439998E+02 -0.82053129637E+02  0.33340110898E+03  0.36564054718E+03  0.12509000000E+03 0.  0.
         25    1    3    3    0    0  0.29293114633E+02  0.17996086856E+02  0.58434234687E+03  0.59856948816E+03  0.12509000000E+03 0.  0.
         25    1    3    3    0    0 -0.41802554630E+02  0.64057042781E+02  0.73324183912E+03  0.74775788932E+03  0.12509000000E+03 0.  0.
<mgrwt>
<rscale>  2 0.45285950E+03</rscale>
<asrwt>0</asrwt>
<pdfrwt beam="1">  1       21 0.24727591E+00 0.45285950E+03</pdfrwt>
<pdfrwt beam="2">  1       21 0.44840180E-02 0.45285950E+03</pdfrwt>
<totfact> 0.19333172E+04</totfact>
</mgrwt>
</event>
<event>
 6    0  0.1576925E-007  0.4564122E+03  0.7546771E-02  0.1025827E+00
         21   -1    0    0  502  501  0.00000000000E+00  0.00000000000E+00  0.20072517847E+03  0.20072517847E+03  0.00000000000E+00 0. -1.
         21   -1    0    0  501  502 -0.00000000000E+00 -0.00000000000E+00 -0.25944940996E+03  0.25944940996E+03  0.00000000000E+00 0. -1.
      99926    2    1    2    0    0  0.00000000000E+00  0.00000000000E+00 -0.58724231496E+02  0.46017458843E+03  0.45641222209E+03 0.  0.
         25    1    3    3    0    0 -0.22498645013E+02  0.30885101515E+02 -0.71065676518E+02  0.14885535597E+03  0.12509000000E+03 0.  0.
         25    1    3    3    0    0  0.18072212665E+02  0.70781943087E+02  0.33498062288E+02  0.14868193103E+03  0.12509000000E+03 0.  0.
         25    1    3    3    0    0  0.44264323473E+01 -0.10166704460E+03 -0.21156617266E+02  0.16263730143E+03  0.12509000000E+03 0.  0.
<mgrwt>
<rscale>  2 0.45641222E+03</rscale>
<asrwt>0</asrwt>
<pdfrwt beam="1">  1       21 0.29518409E-01 0.45641222E+03</pdfrwt>
<pdfrwt beam="2">  1       21 0.38154325E-01 0.45641222E+03</pdfrwt>
<totfact> 0.67405485E+04</totfact>
</mgrwt>
</event>
<event>
 6    0  0.1576925E-007  0.4660722E+03  0.7546771E-02  0.1023035E+00
         21   -1    0    0  502  501  0.00000000000E+00  0.00000000000E+00  0.23082231017E+03  0.23082231017E+03  0.00000000000E+00 0. -1.
         21   -1    0    0  501  502 -0.00000000000E+00 -0.00000000000E+00 -0.23527110978E+03  0.23527110978E+03  0.00000000000E+00 0. -1.
      99926    2    1    2    0    0  0.00000000000E+00  0.71054273576E-14 -0.44487996096E+01  0.46609341995E+03  0.46607218786E+03 0.  0.
         25    1    3    3    0    0  0.20332691832E+02 -0.37107016351E+02  0.66480326252E+02  0.14784279116E+03  0.12509000000E+03 0.  0.
         25    1    3    3    0    0  0.28281849084E+02 -0.44418360460E+02  0.19393611967E+02  0.13710023347E+03  0.12509000000E+03 0.  0.
         25    1    3    3    0    0 -0.48614540916E+02  0.81525376811E+02 -0.90322737828E+02  0.18115039531E+03  0.12509000000E+03 0.  0.
<mgrwt>
<rscale>  2 0.46607219E+03</rscale>
<asrwt>0</asrwt>
<pdfrwt beam="1">  1       21 0.33944457E-01 0.46607219E+03</pdfrwt>
<pdfrwt beam="2">  1       21 0.34598693E-01 0.46607219E+03</pdfrwt>
<totfact> 0.62072884E+04</totfact>
</mgrwt>
</event>
<event>
 6    0  0.1576925E-007  0.4557102E+03  0.7546771E-02  0.1026033E+00
         21   -1    0    0  502  501  0.00000000000E+00  0.00000000000E+00  0.65354916493E+03  0.65354916493E+03  0.00000000000E+00 0.  1.
         21   -1    0    0  501  502 -0.00000000000E+00 -0.00000000000E+00 -0.79440012484E+02  0.79440012484E+02  0.00000000000E+00 0.  1.
      99926    2    1    2    0    0  0.00000000000E+00  0.00000000000E+00  0.57410915245E+03  0.73298917742E+03  0.45571023171E+03 0.  0.
         25    1    3    3    0    0 -0.10289516507E+03  0.11130080146E+02  0.28267969603E+03  0.32598560141E+03  0.12509000000E+03 0.  0.
         25    1    3    3    0    0  0.33043132945E+02  0.17873178348E+02  0.18378378194E+03  0.22546681739E+03  0.12509000000E+03 0.  0.
         25    1    3    3    0    0  0.69852032129E+02 -0.29003258494E+02  0.10764567448E+03  0.18153675862E+03  0.12509000000E+03 0.  0.
<mgrwt>
<rscale>  2 0.45571023E+03</rscale>
<asrwt>0</asrwt>
<pdfrwt beam="1">  1       21 0.96110168E-01 0.45571023E+03</pdfrwt>
<pdfrwt beam="2">  1       21 0.11682355E-01 0.45571023E+03</pdfrwt>
<totfact> 0.50863573E+04</totfact>
</mgrwt>
</event>
<event>
 6    0  0.1576925E-007  0.4353320E+03  0.7546771E-02  0.1032189E+00
         21   -1    0    0  502  501  0.00000000000E+00  0.00000000000E+00  0.26551555245E+02  0.26551555245E+02  0.00000000000E+00 0. -1.
         21   -1    0    0  501  502 -0.00000000000E+00 -0.00000000000E+00 -0.17843961561E+04  0.17843961561E+04  0.00000000000E+00 0. -1.
      99926    2    1    2    0    0  0.00000000000E+00  0.88817841970E-15 -0.17578446008E+04  0.18109477113E+04  0.43533202555E+03 0.  0.
         25    1    3    3    0    0  0.58793004629E+02 -0.16146076621E+02 -0.49801018500E+03  0.51708700008E+03  0.12509000000E+03 0.  0.
         25    1    3    3    0    0  0.11786389294E+02  0.20743850903E+02 -0.34386806233E+03  0.36669057625E+03  0.12509000000E+03 0.  0.
         25    1    3    3    0    0 -0.70579393923E+02 -0.45977742816E+01 -0.91596635350E+03  0.92717013499E+03  0.12509000000E+03 0.  0.
<mgrwt>
<rscale>  2 0.43533203E+03</rscale>
<asrwt>0</asrwt>
<pdfrwt beam="1">  1       21 0.39046401E-02 0.43533203E+03</pdfrwt>
<pdfrwt beam="2">  1       21 0.26241122E+00 0.43533203E+03</pdfrwt>
<totfact> 0.19921849E+04</totfact>
</mgrwt>
</event>
<event>
 6    0  0.1576925E-007  0.4480482E+03  0.7546771E-02  0.1028306E+00
         21   -1    0    0  502  501  0.00000000000E+00  0.00000000000E+00  0.69874343448E+02  0.69874343448E+02  0.00000000000E+00 0. -1.
         21   -1    0    0  501  502 -0.00000000000E+00 -0.00000000000E+00 -0.71824340972E+03  0.71824340972E+03  0.00000000000E+00 0. -1.
      99926    2    1    2    0    0  0.00000000000E+00 -0.17763568394E-14 -0.64836906628E+03  0.78811775317E+03  0.44804815228E+03 0.  0.
         25    1    3    3    0    0  0.46430803261E+02 -0.86605660965E+02 -0.31059614339E+03  0.34896107575E+03  0.12509000000E+03 0.  0.
         25    1    3    3    0    0 -0.82539528390E+01  0.76534966974E+02 -0.14844861922E+03  0.20883062409E+03  0.12509000000E+03 0.  0.
         25    1    3    3    0    0 -0.38176850422E+02  0.10070693991E+02 -0.18932430367E+03  0.23032605333E+03  0.12509000000E+03 0.  0.
<mgrwt>
<rscale>  2 0.44804815E+03</rscale>
<asrwt>0</asrwt>
<pdfrwt beam="1">  1       21 0.10275639E-01 0.44804815E+03</pdfrwt>
<pdfrwt beam="2">  1       21 0.10562403E+00 0.44804815E+03</pdfrwt>
<totfact> 0.51075235E+04</totfact>
</mgrwt>
</event>
<event>
 6    0  0.1576925E-007  0.4688069E+03  0.7546771E-02  0.1022257E+00
         21   -1    0    0  502  501  0.00000000000E+00  0.00000000000E+00  0.10491649018E+03  0.10491649018E+03  0.00000000000E+00 0. -1.
         21   -1    0    0  501  502 -0.00000000000E+00 -0.00000000000E+00 -0.52370196915E+03  0.52370196915E+03  0.00000000000E+00 0. -1.
      99926    2    1    2    0    0  0.35527136788E-14  0.71054273576E-14 -0.41878547896E+03  0.62861845933E+03  0.46880687923E+03 0.  0.
         25    1    3    3    0    0 -0.50943787968E+02 -0.95746146570E+02 -0.21163544271E+03  0.26869994943E+03  0.12509000000E+03 0.  0.
         25    1    3    3    0    0  0.71748048938E+02  0.48861779502E+02 -0.70839782221E+02  0.16793164939E+03  0.12509000000E+03 0.  0.
         25    1    3    3    0    0 -0.20804260970E+02  0.46884367068E+02 -0.13631025403E+03  0.19198686050E+03  0.12509000000E+03 0.  0.
<mgrwt>
<rscale>  2 0.46880688E+03</rscale>
<asrwt>0</asrwt>
<pdfrwt beam="1">  1       21 0.15428895E-01 0.46880688E+03</pdfrwt>
<pdfrwt beam="2">  1       21 0.77014996E-01 0.46880688E+03</pdfrwt>
<totfact> 0.51143209E+04</totfact>
</mgrwt>
</event>
<event>
 6    0  0.1576925E-007  0.4497386E+03  0.7546771E-02  0.1027800E+00
         21   -1    0    0  502  501  0.00000000000E+00  0.00000000000E+00  0.46865881058E+03  0.46865881058E+03  0.00000000000E+00 0. -1.
         21   -1    0    0  501  502 -0.00000000000E+00 -0.00000000000E+00 -0.10789557813E+03  0.10789557813E+03  0.00000000000E+00 0. -1.
      99926    2    1    2    0    0  0.00000000000E+00  0.00000000000E+00  0.36076323245E+03  0.57655438870E+03  0.44973864993E+03 0.  0.
         25    1    3    3    0    0 -0.25244667844E+02 -0.38605472878E+01  0.11099264233E+02  0.12815185854E+03  0.12509000000E+03 0.  0.
         25    1    3    3    0    0 -0.45220224521E+02  0.16869344893E+02  0.19829768184E+03  0.23937193283E+03  0.12509000000E+03 0.  0.
         25    1    3    3    0    0  0.70464892366E+02 -0.13008797606E+02  0.15136628638E+03  0.20903059734E+03  0.12509000000E+03 0.  0.
<mgrwt>
<rscale>  2 0.44973865E+03</rscale>
<asrwt>0</asrwt>
<pdfrwt beam="1">  1       21 0.68920413E-01 0.44973865E+03</pdfrwt>
<pdfrwt beam="2">  1       21 0.15866997E-01 0.44973865E+03</pdfrwt>
<totfact> 0.62713442E+04</totfact>
</mgrwt>
</event>
<event>
 6    0  0.1576925E-007  0.4580076E+03  0.7546771E-02  0.1025361E+00
         21   -1    0    0  502  501  0.00000000000E+00  0.00000000000E+00  0.83219213944E+03  0.83219213944E+03  0.00000000000E+00 0.  1.
         21   -1    0    0  501  502 -0.00000000000E+00 -0.00000000000E+00 -0.63017589351E+02  0.63017589351E+02  0.00000000000E+00 0.  1.
      99926    2    1    2    0    0  0.31086244690E-14  0.00000000000E+00  0.76917455009E+03  0.89520972879E+03  0.45800760913E+03 0.  0.
         25    1    3    3    0    0  0.34892959165E+02 -0.77389732120E+01  0.23869262471E+03  0.27184386603E+03  0.12509000000E+03 0.  0.
         25    1    3    3    0    0 -0.37684441232E+02  0.66873123784E+02  0.11809577797E+03  0.18837795166E+03  0.12509000000E+03 0.  0.
         25    1    3    3    0    0  0.27914820671E+01 -0.59134150572E+02  0.41238614740E+03  0.43498791110E+03  0.12509000000E+03 0.  0.
<mgrwt>
<rscale>  2 0.45800761E+03</rscale>
<asrwt>0</asrwt>
<pdfrwt beam="1">  1       21 0.12238119E+00 0.45800761E+03</pdfrwt>
<pdfrwt beam="2">  1       21 0.92672930E-02 0.45800761E+03</pdfrwt>
<totfact> 0.42433293E+04</totfact>
</mgrwt>
</event>
<event>
 6    0  0.1576925E-007  0.4534397E+03  0.7546771E-02  0.1026701E+00
         21   -1    0    0  502  501  0.00000000000E+00  0.00000000000E+00  0.32365404245E+02  0.32365404245E+02  0.00000000000E+00 0. -1.
         21   -1    0    0  501  502 -0.00000000000E+00 -0.00000000000E+00 -0.15881741976E+04  0.15881741976E+04  0.00000000000E+00 0. -1.
      99926    2    1    2    0    0  0.35527136788E-14  0.00000000000E+00 -0.15558087934E+04  0.16205396019E+04  0.45343974205E+03 0.  0.
         25    1    3    3    0    0  0.82195215709E+02  0.44846014406E+02 -0.76491298156E+03  0.78070903412E+03  0.12509000000E+03 0.  0.
         25    1    3    3    0    0 -0.87104893785E+02 -0.23982105888E+02 -0.39403642837E+03  0.42317209136E+03  0.12509000000E+03 0.  0.
         25    1    3    3    0    0  0.49096780758E+01 -0.20863908519E+02 -0.39685938347E+03  0.41665847642E+03  0.12509000000E+03 0.  0.
<mgrwt>
<rscale>  2 0.45343974E+03</rscale>
<asrwt>0</asrwt>
<pdfrwt beam="1">  1       21 0.47596176E-02 0.45343974E+03</pdfrwt>
<pdfrwt beam="2">  1       21 0.23355506E+00 0.45343974E+03</pdfrwt>
<totfact> 0.21225568E+04</totfact>
</mgrwt>
</event>
<event>
 6    0  0.1576925E-007  0.4583484E+03  0.7546771E-02  0.1025261E+00
         21   -1    0    0  502  501  0.00000000000E+00  0.00000000000E+00  0.11843635921E+03  0.11843635921E+03  0.00000000000E+00 0.  1.
         21   -1    0    0  501  502 -0.00000000000E+00 -0.00000000000E+00 -0.44345179364E+03  0.44345179364E+03  0.00000000000E+00 0.  1.
      99926    2    1    2    0    0  0.00000000000E+00  0.71054273576E-14 -0.32501543443E+03  0.56188815285E+03  0.45834840863E+03 0.  0.
         25    1    3    3    0    0  0.44573404863E+02 -0.61594253708E+02 -0.37699387257E+02  0.15116015484E+03  0.12509000000E+03 0.  0.
         25    1    3    3    0    0  0.26655089818E+02  0.21999217034E+02 -0.19804972940E+03  0.23678188862E+03  0.12509000000E+03 0.  0.
         25    1    3    3    0    0 -0.71228494681E+02  0.39595036674E+02 -0.89266317769E+02  0.17394610939E+03  0.12509000000E+03 0.  0.
<mgrwt>
<rscale>  2 0.45834841E+03</rscale>
<asrwt>0</asrwt>
<pdfrwt beam="1">  1       21 0.17417111E-01 0.45834841E+03</pdfrwt>
<pdfrwt beam="2">  1       21 0.65213500E-01 0.45834841E+03</pdfrwt>
<totfact> 0.59496250E+04</totfact>
</mgrwt>
</event>
<event>
 6    0  0.1576925E-007  0.4567662E+03  0.7546771E-02  0.1025723E+00
         21   -1    0    0  502  501  0.00000000000E+00  0.00000000000E+00  0.35580698608E+03  0.35580698608E+03  0.00000000000E+00 0. -1.
         21   -1    0    0  501  502 -0.00000000000E+00 -0.00000000000E+00 -0.14659308550E+03  0.14659308550E+03  0.00000000000E+00 0. -1.
      99926    2    1    2    0    0  0.00000000000E+00  0.00000000000E+00  0.20921390058E+03  0.50240007158E+03  0.45676621561E+03 0.  0.
         25    1    3    3    0    0  0.19160982361E+02  0.89347898413E+02  0.12063722703E+03  0.19634418464E+03  0.12509000000E+03 0.  0.
         25    1    3    3    0    0 -0.49498229393E+02 -0.56262988475E+02  0.93228736618E+02  0.17307427312E+03  0.12509000000E+03 0.  0.
         25    1    3    3    0    0  0.30337247032E+02 -0.33084909938E+02 -0.46520630658E+01  0.13298161382E+03  0.12509000000E+03 0.  0.
<mgrwt>
<rscale>  2 0.45676622E+03</rscale>
<asrwt>0</asrwt>
<pdfrwt beam="1">  1       21 0.52324557E-01 0.45676622E+03</pdfrwt>
<pdfrwt beam="2">  1       21 0.21557807E-01 0.45676622E+03</pdfrwt>
<totfact> 0.64197596E+04</totfact>
</mgrwt>
</event>
<event>
 6    0  0.1576925E-007  0.4578527E+03  0.7546771E-02  0.1025406E+00
         21   -1    0    0  502  501  0.00000000000E+00  0.00000000000E+00  0.10451647784E+03  0.10451647784E+03  0.00000000000E+00 0.  1.
         21   -1    0    0  501  502 -0.00000000000E+00 -0.00000000000E+00 -0.50142595282E+03  0.50142595282E+03  0.00000000000E+00 0.  1.
      99926    2    1    2    0    0  0.35527136788E-14  0.00000000000E+00 -0.39690947498E+03  0.60594243067E+03  0.45785270334E+03 0.  0.
         25    1    3    3    0    0  0.90758288727E+02 -0.19983262818E+02 -0.22585750091E+03  0.27440028532E+03  0.12509000000E+03 0.  0.
         25    1    3    3    0    0 -0.64640245344E+02  0.12952322695E+02 -0.14181823708E+03  0.20026493565E+03  0.12509000000E+03 0.  0.
         25    1    3    3    0    0 -0.26118043383E+02  0.70309401230E+01 -0.29233736991E+02  0.13127720970E+03  0.12509000000E+03 0.  0.
<mgrwt>
<rscale>  2 0.45785270E+03</rscale>
<asrwt>0</asrwt>
<pdfrwt beam="1">  1       21 0.15370070E-01 0.45785270E+03</pdfrwt>
<pdfrwt beam="2">  1       21 0.73739112E-01 0.45785270E+03</pdfrwt>
<totfact> 0.57018093E+04</totfact>
</mgrwt>
</event>
<event>
 6    0  0.1576925E-007  0.4540514E+03  0.7546771E-02  0.1026521E+00
         21   -1    0    0  502  501  0.00000000000E+00  0.00000000000E+00  0.23591032267E+02  0.23591032267E+02  0.00000000000E+00 0. -1.
         21   -1    0    0  501  502 -0.00000000000E+00 -0.00000000000E+00 -0.21847572761E+04  0.21847572761E+04  0.00000000000E+00 0. -1.
      99926    2    1    2    0    0 -0.71054273576E-14 -0.14210854715E-13 -0.21611662438E+04  0.22083483084E+04  0.45405144817E+03 0.  0.
         25    1    3    3    0    0 -0.55331372463E+02  0.65306463717E+02 -0.75832913815E+03  0.77332857496E+03  0.12509000000E+03 0.  0.
         25    1    3    3    0    0  0.80657594449E+02  0.55376148036E+01 -0.55146852542E+03  0.57122793642E+03  0.12509000000E+03 0.  0.
         25    1    3    3    0    0 -0.25326221986E+02 -0.70844078521E+02 -0.85136858027E+03  0.86379179699E+03  0.12509000000E+03 0.  0.
<mgrwt>
<rscale>  2 0.45405145E+03</rscale>
<asrwt>0</asrwt>
<pdfrwt beam="1">  1       21 0.34692704E-02 0.45405145E+03</pdfrwt>
<pdfrwt beam="2">  1       21 0.32128774E+00 0.45405145E+03</pdfrwt>
<totfact> 0.10675307E+04</totfact>
</mgrwt>
</event>
<event>
 6    0  0.1576925E-007  0.4562840E+03  0.7546771E-02  0.1025864E+00
         21   -1    0    0  502  501  0.00000000000E+00  0.00000000000E+00  0.19312007006E+03  0.19312007006E+03  0.00000000000E+00 0.  1.
         21   -1    0    0  501  502 -0.00000000000E+00 -0.00000000000E+00 -0.26951512260E+03  0.26951512260E+03  0.00000000000E+00 0.  1.
      99926    2    1    2    0    0 -0.10658141036E-13  0.00000000000E+00 -0.76395052538E+02  0.46263519266E+03  0.45628403154E+03 0.  0.
         25    1    3    3    0    0  0.10925734383E+02  0.15863834953E+02  0.51879791363E+02  0.13678469864E+03  0.12509000000E+03 0.  0.
         25    1    3    3    0    0 -0.74969890136E+02 -0.51039779325E+02 -0.60820371619E+02  0.16604869528E+03  0.12509000000E+03 0.  0.
         25    1    3    3    0    0  0.64044155753E+02  0.35175944372E+02 -0.67454472282E+02  0.15980179874E+03  0.12509000000E+03 0.  0.
<mgrwt>
<rscale>  2 0.45628403E+03</rscale>
<asrwt>0</asrwt>
<pdfrwt beam="1">  1       21 0.28400010E-01 0.45628403E+03</pdfrwt>
<pdfrwt beam="2">  1       21 0.39634577E-01 0.45628403E+03</pdfrwt>
<totfact> 0.67296448E+04</totfact>
</mgrwt>
</event>
<event>
 6    0  0.1576925E-007  0.4532563E+03  0.7546771E-02  0.1026755E+00
         21   -1    0    0  502  501  0.00000000000E+00  0.00000000000E+00  0.94750578943E+03  0.94750578943E+03  0.00000000000E+00 0. -1.
         21   -1    0    0  501  502 -0.00000000000E+00 -0.00000000000E+00 -0.54205817516E+02  0.54205817516E+02  0.00000000000E+00 0. -1.
      99926    2    1    2    0    0  0.44408920985E-14 -0.71054273576E-14  0.89329997192E+03  0.10017116069E+04  0.45325633329E+03 0.  0.
         25    1    3    3    0    0 -0.37019266181E+01 -0.31140087813E+02  0.31578008531E+03  0.34109819657E+03  0.12509000000E+03 0.  0.
         25    1    3    3    0    0  0.80007151779E+02 -0.41797887745E+02  0.23670576376E+03  0.28253377577E+03  0.12509000000E+03 0.  0.
         25    1    3    3    0    0 -0.76305225161E+02  0.72937975559E+02  0.34081412285E+03  0.37807963460E+03  0.12509000000E+03 0.  0.
<mgrwt>
<rscale>  2 0.45325633E+03</rscale>
<asrwt>0</asrwt>
<pdfrwt beam="1">  1       21 0.13933908E+00 0.45325633E+03</pdfrwt>
<pdfrwt beam="2">  1       21 0.79714443E-02 0.45325633E+03</pdfrwt>
<totfact> 0.39637300E+04</totfact>
</mgrwt>
</event>
<event>
 6    0  0.1576925E-007  0.4523886E+03  0.7546771E-02  0.1027012E+00
         21   -1    0    0  502  501  0.00000000000E+00  0.00000000000E+00  0.26468741394E+03  0.26468741394E+03  0.00000000000E+00 0.  1.
         21   -1    0    0  501  502 -0.00000000000E+00 -0.00000000000E+00 -0.19329915957E+03  0.19329915957E+03  0.00000000000E+00 0.  1.
      99926    2    1    2    0    0  0.00000000000E+00  0.00000000000E+00  0.71388254363E+02  0.45798657351E+03  0.45238857043E+03 0.  0.
         25    1    3    3    0    0  0.22462982342E+02 -0.93327605148E+02  0.84023306854E+02  0.17866743311E+03  0.12509000000E+03 0.  0.
         25    1    3    3    0    0 -0.19974850703E+01  0.66199803631E+02  0.26322319872E+02  0.14396797064E+03  0.12509000000E+03 0.  0.
         25    1    3    3    0    0 -0.20465497272E+02  0.27127801517E+02 -0.38957372362E+02  0.13535116976E+03  0.12509000000E+03 0.  0.
<mgrwt>
<rscale>  2 0.45238857E+03</rscale>
<asrwt>0</asrwt>
<pdfrwt beam="1">  1       21 0.38924620E-01 0.45238857E+03</pdfrwt>
<pdfrwt beam="2">  1       21 0.28426347E-01 0.45238857E+03</pdfrwt>
<totfact> 0.69769187E+04</totfact>
</mgrwt>
</event>
<event>
 6    0  0.1576925E-007  0.4413511E+03  0.7546771E-02  0.1030333E+00
         21   -1    0    0  502  501  0.00000000000E+00  0.00000000000E+00  0.99571406040E+03  0.99571406040E+03  0.00000000000E+00 0.  1.
         21   -1    0    0  501  502 -0.00000000000E+00 -0.00000000000E+00 -0.48907311308E+02  0.48907311308E+02  0.00000000000E+00 0.  1.
      99926    2    1    2    0    0  0.00000000000E+00 -0.48849813084E-14  0.94680674909E+03  0.10446213717E+04  0.44135109618E+03 0.  0.
         25    1    3    3    0    0  0.24435024367E+02 -0.60597007423E+02  0.44613891570E+03  0.46792788752E+03  0.12509000000E+03 0.  0.
         25    1    3    3    0    0 -0.35081445708E+02 -0.31542869636E+01  0.14800065978E+03  0.19695776388E+03  0.12509000000E+03 0.  0.
         25    1    3    3    0    0  0.10646421342E+02  0.63751294387E+02  0.35266717362E+03  0.37973572030E+03  0.12509000000E+03 0.  0.
<mgrwt>
<rscale>  2 0.44135110E+03</rscale>
<asrwt>0</asrwt>
<pdfrwt beam="1">  1       21 0.14642853E+00 0.44135110E+03</pdfrwt>
<pdfrwt beam="2">  1       21 0.71922523E-02 0.44135110E+03</pdfrwt>
<totfact> 0.41749016E+04</totfact>
</mgrwt>
</event>
<event>
 6    0  0.1576925E-007  0.4577246E+03  0.7546771E-02  0.1025443E+00
         21   -1    0    0  502  501  0.00000000000E+00  0.00000000000E+00  0.44596217990E+03  0.44596217990E+03  0.00000000000E+00 0. -1.
         21   -1    0    0  501  502 -0.00000000000E+00 -0.00000000000E+00 -0.11744933093E+03  0.11744933093E+03  0.00000000000E+00 0. -1.
      99926    2    1    2    0    0  0.00000000000E+00 -0.35527136788E-14  0.32851284897E+03  0.56341151083E+03  0.45772463184E+03 0.  0.
         25    1    3    3    0    0  0.96077756607E+02 -0.31677504446E+02  0.20013093091E+03  0.25677674585E+03  0.12509000000E+03 0.  0.
         25    1    3    3    0    0 -0.40312915113E+02 -0.50451381186E+01  0.32541535848E+02  0.13548816996E+03  0.12509000000E+03 0.  0.
         25    1    3    3    0    0 -0.55764841494E+02  0.36722642564E+02  0.95840382213E+02  0.17114659502E+03  0.12509000000E+03 0.  0.
<mgrwt>
<rscale>  2 0.45772463E+03</rscale>
<asrwt>0</asrwt>
<pdfrwt beam="1">  1       21 0.65582673E-01 0.45772463E+03</pdfrwt>
<pdfrwt beam="2">  1       21 0.17271961E-01 0.45772463E+03</pdfrwt>
<totfact> 0.59692085E+04</totfact>
</mgrwt>
</event>
<event>
 6    0  0.1576925E-007  0.4546809E+03  0.7546771E-02  0.1026335E+00
         21   -1    0    0  502  501  0.00000000000E+00  0.00000000000E+00  0.23865134088E+03  0.23865134088E+03  0.00000000000E+00 0. -1.
         21   -1    0    0  501  502 -0.00000000000E+00 -0.00000000000E+00 -0.21656563954E+03  0.21656563954E+03  0.00000000000E+00 0. -1.
      99926    2    1    2    0    0  0.35527136788E-14  0.35527136788E-14  0.22085701345E+02  0.45521698042E+03  0.45468090026E+03 0.  0.
         25    1    3    3    0    0 -0.20063296528E+02  0.25964106452E+02 -0.41803458756E+01  0.12938954395E+03  0.12509000000E+03 0.  0.
         25    1    3    3    0    0  0.83903755320E+02 -0.34946896783E+02  0.81333858248E+02  0.17471070474E+03  0.12509000000E+03 0.  0.
         25    1    3    3    0    0 -0.63840458792E+02  0.89827903304E+01 -0.55067811028E+02  0.15111673174E+03  0.12509000000E+03 0.  0.
<mgrwt>
<rscale>  2 0.45468090E+03</rscale>
<asrwt>0</asrwt>
<pdfrwt beam="1">  1       21 0.35095785E-01 0.45468090E+03</pdfrwt>
<pdfrwt beam="2">  1       21 0.31847888E-01 0.45468090E+03</pdfrwt>
<totfact> 0.68704685E+04</totfact>
</mgrwt>
</event>
<event>
 6    0  0.1576925E-007  0.4562918E+03  0.7546771E-02  0.1025862E+00
         21   -1    0    0  502  501  0.00000000000E+00  0.00000000000E+00  0.58742928843E+02  0.58742928843E+02  0.00000000000E+00 0. -1.
         21   -1    0    0  501  502 -0.00000000000E+00 -0.00000000000E+00 -0.88607357197E+03  0.88607357197E+03  0.00000000000E+00 0. -1.
      99926    2    1    2    0    0  0.44408920985E-15 -0.14210854715E-13 -0.82733064313E+03  0.94481650081E+03  0.45629182236E+03 0.  0.
         25    1    3    3    0    0 -0.31259013033E+02  0.44678203331E+01 -0.18086157684E+03  0.22216098980E+03  0.12509000000E+03 0.  0.
         25    1    3    3    0    0  0.28389431216E+02  0.92521549335E+02 -0.25095906192E+03  0.29663808885E+03  0.12509000000E+03 0.  0.
         25    1    3    3    0    0  0.28695818170E+01 -0.96989369668E+02 -0.39551000437E+03  0.42601742217E+03  0.12509000000E+03 0.  0.
<mgrwt>
<rscale>  2 0.45629182E+03</rscale>
<asrwt>0</asrwt>
<pdfrwt beam="1">  1       21 0.86386656E-02 0.45629182E+03</pdfrwt>
<pdfrwt beam="2">  1       21 0.13030494E+00 0.45629182E+03</pdfrwt>
<totfact> 0.40936286E+04</totfact>
</mgrwt>
</event>
<event>
 6    0  0.1576925E-007  0.4676880E+03  0.7546771E-02  0.1022575E+00
         21   -1    0    0  502  501  0.00000000000E+00  0.00000000000E+00  0.17334661004E+02  0.17334661004E+02  0.00000000000E+00 0.  1.
         21   -1    0    0  501  502 -0.00000000000E+00 -0.00000000000E+00 -0.31545475250E+04  0.31545475250E+04  0.00000000000E+00 0.  1.
      99926    2    1    2    0    0  0.00000000000E+00 -0.35527136788E-14 -0.31372128639E+04  0.31718821860E+04  0.46768798131E+03 0.  0.
         25    1    3    3    0    0  0.61308170661E+00 -0.52549310233E+02 -0.18974442694E+04  0.19022891655E+04  0.12509000000E+03 0.  0.
         25    1    3    3    0    0  0.96328866261E+01 -0.21148866923E+02 -0.62666596822E+03  0.63945117946E+03  0.12509000000E+03 0.  0.
         25    1    3    3    0    0 -0.10245968333E+02  0.73698177157E+02 -0.61310262637E+03  0.63014184097E+03  0.12509000000E+03 0.  0.
<mgrwt>
<rscale>  2 0.46768798E+03</rscale>
<asrwt>0</asrwt>
<pdfrwt beam="1">  1       21 0.25492134E-02 0.46768798E+03</pdfrwt>
<pdfrwt beam="2">  1       21 0.46390431E+00 0.46768798E+03</pdfrwt>
<totfact> 0.21763033E+03</totfact>
</mgrwt>
</event>
<event>
 6    0  0.1576925E-007  0.4579977E+03  0.7546771E-02  0.1025364E+00
         21   -1    0    0  502  501  0.00000000000E+00  0.00000000000E+00  0.24264271403E+04  0.24264271403E+04  0.00000000000E+00 0. -1.
         21   -1    0    0  501  502 -0.00000000000E+00 -0.00000000000E+00 -0.21612217361E+02  0.21612217361E+02  0.00000000000E+00 0. -1.
      99926    2    1    2    0    0  0.00000000000E+00  0.00000000000E+00  0.24048149229E+04  0.24480393577E+04  0.45799768894E+03 0.  0.
         25    1    3    3    0    0 -0.46181635776E+02  0.19766087653E+02  0.43087726781E+03  0.45147111726E+03  0.12509000000E+03 0.  0.
         25    1    3    3    0    0  0.27592445184E+02  0.65774045885E+02  0.11014661981E+04  0.11108388100E+04  0.12509000000E+03 0.  0.
         25    1    3    3    0    0  0.18589190592E+02 -0.85540133538E+02  0.87247145705E+03  0.88572943042E+03  0.12509000000E+03 0.  0.
<mgrwt>
<rscale>  2 0.45799769E+03</rscale>
<asrwt>0</asrwt>
<pdfrwt beam="1">  1       21 0.35682733E+00 0.45799769E+03</pdfrwt>
<pdfrwt beam="2">  1       21 0.31782689E-02 0.45799769E+03</pdfrwt>
<totfact> 0.75019185E+03</totfact>
</mgrwt>
</event>
<event>
 6    0  0.1576925E-007  0.4559214E+03  0.7546771E-02  0.1025971E+00
         21   -1    0    0  502  501  0.00000000000E+00  0.00000000000E+00  0.66896835713E+02  0.66896835713E+02  0.00000000000E+00 0. -1.
         21   -1    0    0  501  502 -0.00000000000E+00 -0.00000000000E+00 -0.77680932359E+03  0.77680932359E+03  0.00000000000E+00 0. -1.
      99926    2    1    2    0    0  0.00000000000E+00  0.00000000000E+00 -0.70991248788E+03  0.84370615930E+03  0.45592142174E+03 0.  0.
         25    1    3    3    0    0 -0.31329243589E+02 -0.54032069816E+02 -0.24206859434E+03  0.27954552140E+03  0.12509000000E+03 0.  0.
         25    1    3    3    0    0  0.42654885581E+02  0.77999563719E+02 -0.12396183378E+03  0.19727497444E+03  0.12509000000E+03 0.  0.
         25    1    3    3    0    0 -0.11325641992E+02 -0.23967493903E+02 -0.34388205976E+03  0.36688566346E+03  0.12509000000E+03 0.  0.
<mgrwt>
<rscale>  2 0.45592142E+03</rscale>
<asrwt>0</asrwt>
<pdfrwt beam="1">  1       21 0.98377699E-02 0.45592142E+03</pdfrwt>
<pdfrwt beam="2">  1       21 0.11423667E+00 0.45592142E+03</pdfrwt>
<totfact> 0.45393226E+04</totfact>
</mgrwt>
</event>
<event>
 6    0  0.1576925E-007  0.4535054E+03  0.7546771E-02  0.1026682E+00
         21   -1    0    0  502  501  0.00000000000E+00  0.00000000000E+00  0.30770207095E+03  0.30770207095E+03  0.00000000000E+00 0.  1.
         21   -1    0    0  501  502 -0.00000000000E+00 -0.00000000000E+00 -0.16709923297E+03  0.16709923297E+03  0.00000000000E+00 0.  1.
      99926    2    1    2    0    0  0.14210854715E-13  0.00000000000E+00  0.14060283798E+03  0.47480130392E+03  0.45350536949E+03 0.  0.
         25    1    3    3    0    0 -0.99676948807E+01  0.25036588090E+01  0.74576725404E+02  0.14599595652E+03  0.12509000000E+03 0.  0.
         25    1    3    3    0    0 -0.87749796993E+02 -0.37010935672E+02  0.52716625096E+02  0.16582034523E+03  0.12509000000E+03 0.  0.
         25    1    3    3    0    0  0.97717491874E+02  0.34507276863E+02  0.13309487482E+02  0.16298500217E+03  0.12509000000E+03 0.  0.
<mgrwt>
<rscale>  2 0.45350537E+03</rscale>
<asrwt>0</asrwt>
<pdfrwt beam="1">  1       21 0.45250304E-01 0.45350537E+03</pdfrwt>
<pdfrwt beam="2">  1       21 0.24573417E-01 0.45350537E+03</pdfrwt>
<totfact> 0.67882138E+04</totfact>
</mgrwt>
</event>
<event>
 6    0  0.1576925E-007  0.4850900E+03  0.7546771E-02  0.1017746E+00
         21   -1    0    0  502  501  0.00000000000E+00  0.00000000000E+00  0.88528966377E+03  0.88528966377E+03  0.00000000000E+00 0. -1.
         21   -1    0    0  501  502 -0.00000000000E+00 -0.00000000000E+00 -0.66450647172E+02  0.66450647172E+02  0.00000000000E+00 0. -1.
      99926    2    1    2    0    0  0.00000000000E+00  0.00000000000E+00  0.81883901660E+03  0.95174031095E+03  0.48508997554E+03 0.  0.
         25    1    3    3    0    0  0.98525540410E+01  0.50780638225E+02  0.29172181927E+03  0.32159737869E+03  0.12509000000E+03 0.  0.
         25    1    3    3    0    0 -0.45748035387E+02  0.50564282118E+02  0.39145914213E+03  0.41657820085E+03  0.12509000000E+03 0.  0.
         25    1    3    3    0    0  0.35895481346E+02 -0.10134492034E+03  0.13565805520E+03  0.21356473141E+03  0.12509000000E+03 0.  0.
<mgrwt>
<rscale>  2 0.48508998E+03</rscale>
<asrwt>0</asrwt>
<pdfrwt beam="1">  1       21 0.13018965E+00 0.48508998E+03</pdfrwt>
<pdfrwt beam="2">  1       21 0.97721546E-02 0.48508998E+03</pdfrwt>
<totfact> 0.32672788E+04</totfact>
</mgrwt>
</event>
<event>
 6    0  0.1576925E-007  0.4469109E+03  0.7546771E-02  0.1028647E+00
         21   -1    0    0  502  501  0.00000000000E+00  0.00000000000E+00  0.20741902160E+02  0.20741902160E+02  0.00000000000E+00 0.  1.
         21   -1    0    0  501  502 -0.00000000000E+00 -0.00000000000E+00 -0.24073172929E+04  0.24073172929E+04  0.00000000000E+00 0.  1.
      99926    2    1    2    0    0 -0.88817841970E-15  0.00000000000E+00 -0.23865753907E+04  0.24280591950E+04  0.44691090726E+03 0.  0.
         25    1    3    3    0    0  0.11116203142E+02  0.88865116808E+02 -0.64586519072E+03  0.66393518632E+03  0.12509000000E+03 0.  0.
         25    1    3    3    0    0 -0.72988878562E+01 -0.10064202228E+03 -0.99254376679E+03  0.10054713957E+04  0.12509000000E+03 0.  0.
         25    1    3    3    0    0 -0.38173152854E+01  0.11776905473E+02 -0.74816643318E+03  0.75865261302E+03  0.12509000000E+03 0.  0.
<mgrwt>
<rscale>  2 0.44691091E+03</rscale>
<asrwt>0</asrwt>
<pdfrwt beam="1">  1       21 0.30502811E-02 0.44691091E+03</pdfrwt>
<pdfrwt beam="2">  1       21 0.35401710E+00 0.44691091E+03</pdfrwt>
<totfact> 0.84128001E+03</totfact>
</mgrwt>
</event>
<event>
 6    0  0.1576925E-007  0.4866411E+03  0.7546771E-02  0.1017326E+00
         21   -1    0    0  502  501  0.00000000000E+00  0.00000000000E+00  0.22424490718E+03  0.22424490718E+03  0.00000000000E+00 0.  1.
         21   -1    0    0  501  502 -0.00000000000E+00 -0.00000000000E+00 -0.26401887526E+03  0.26401887526E+03  0.00000000000E+00 0.  1.
      99926    2    1    2    0    0  0.71054273576E-14 -0.88817841970E-15 -0.39773968079E+02  0.48826378243E+03  0.48664109228E+03 0.  0.
         25    1    3    3    0    0 -0.55780761298E+02  0.49000360184E+01 -0.34587030830E+02  0.14134806149E+03  0.12509000000E+03 0.  0.
         25    1    3    3    0    0 -0.45147242853E+02 -0.44588803114E+02  0.79213663357E+02  0.16108614920E+03  0.12509000000E+03 0.  0.
         25    1    3    3    0    0  0.10092800415E+03  0.39688767096E+02 -0.84400600606E+02  0.18582957175E+03  0.12509000000E+03 0.  0.
<mgrwt>
<rscale>  2 0.48664109E+03</rscale>
<asrwt>0</asrwt>
<pdfrwt beam="1">  1       21 0.32977192E-01 0.48664109E+03</pdfrwt>
<pdfrwt beam="2">  1       21 0.38826305E-01 0.48664109E+03</pdfrwt>
<totfact> 0.51807303E+04</totfact>
</mgrwt>
</event>
<event>
 6    0  0.1576925E-007  0.4539253E+03  0.7546771E-02  0.1026558E+00
         21   -1    0    0  502  501  0.00000000000E+00  0.00000000000E+00  0.17868792344E+02  0.17868792344E+02  0.00000000000E+00 0.  1.
         21   -1    0    0  501  502 -0.00000000000E+00 -0.00000000000E+00 -0.28827935362E+04  0.28827935362E+04  0.00000000000E+00 0.  1.
      99926    2    1    2    0    0  0.00000000000E+00  0.00000000000E+00 -0.28649247439E+04  0.29006623285E+04  0.45392527609E+03 0.  0.
         25    1    3    3    0    0 -0.32681222857E+02  0.13872842222E+02 -0.67916158066E+03  0.69149727319E+03  0.12509000000E+03 0.  0.
         25    1    3    3    0    0  0.20378827604E+02 -0.10568845766E+03 -0.11120378259E+04  0.11242157182E+04  0.12509000000E+03 0.  0.
         25    1    3    3    0    0  0.12302395254E+02  0.91815615433E+02 -0.10737253373E+04  0.10849493372E+04  0.12509000000E+03 0.  0.
<mgrwt>
<rscale>  2 0.45392528E+03</rscale>
<asrwt>0</asrwt>
<pdfrwt beam="1">  1       21 0.26277665E-02 0.45392528E+03</pdfrwt>
<pdfrwt beam="2">  1       21 0.42393975E+00 0.45392528E+03</pdfrwt>
<totfact> 0.38716460E+03</totfact>
</mgrwt>
</event>
<event>
 6    0  0.1576925E-007  0.4492538E+03  0.7546771E-02  0.1027945E+00
         21   -1    0    0  502  501  0.00000000000E+00  0.00000000000E+00  0.28315070206E+03  0.28315070206E+03  0.00000000000E+00 0.  1.
         21   -1    0    0  501  502 -0.00000000000E+00 -0.00000000000E+00 -0.17819923426E+03  0.17819923426E+03  0.00000000000E+00 0.  1.
      99926    2    1    2    0    0  0.00000000000E+00  0.00000000000E+00  0.10495146780E+03  0.46134993631E+03  0.44925377365E+03 0.  0.
         25    1    3    3    0    0 -0.79083161255E+01  0.69667353422E+02 -0.77689628462E+01  0.14361039823E+03  0.12509000000E+03 0.  0.
         25    1    3    3    0    0 -0.62146976854E+02 -0.38302722964E+02  0.25634163024E+02  0.14708488615E+03  0.12509000000E+03 0.  0.
         25    1    3    3    0    0  0.70055292980E+02 -0.31364630458E+02  0.87086267626E+02  0.17065465194E+03  0.12509000000E+03 0.  0.
<mgrwt>
<rscale>  2 0.44925377E+03</rscale>
<asrwt>0</asrwt>
<pdfrwt beam="1">  1       21 0.41639809E-01 0.44925377E+03</pdfrwt>
<pdfrwt beam="2">  1       21 0.26205770E-01 0.44925377E+03</pdfrwt>
<totfact> 0.71278622E+04</totfact>
</mgrwt>
</event>
<event>
 6    0  0.1576925E-007  0.4542054E+03  0.7546771E-02  0.1026475E+00
         21   -1    0    0  502  501  0.00000000000E+00  0.00000000000E+00  0.88981825935E+03  0.88981825935E+03  0.00000000000E+00 0. -1.
         21   -1    0    0  501  502 -0.00000000000E+00 -0.00000000000E+00 -0.57962001745E+02  0.57962001745E+02  0.00000000000E+00 0. -1.
      99926    2    1    2    0    0  0.00000000000E+00  0.00000000000E+00  0.83185625760E+03  0.94778026109E+03  0.45420544911E+03 0.  0.
         25    1    3    3    0    0 -0.43814001152E+02 -0.24364260198E+02  0.24160948931E+03  0.27665129187E+03  0.12509000000E+03 0.  0.
         25    1    3    3    0    0  0.41295025427E+02  0.65174897111E+02  0.47148721701E+03  0.49386308856E+03  0.12509000000E+03 0.  0.
         25    1    3    3    0    0  0.25189757246E+01 -0.40810636913E+02  0.11875955128E+03  0.17726588066E+03  0.12509000000E+03 0.  0.
<mgrwt>
<rscale>  2 0.45420545E+03</rscale>
<asrwt>0</asrwt>
<pdfrwt beam="1">  1       21 0.13085562E+00 0.45420545E+03</pdfrwt>
<pdfrwt beam="2">  1       21 0.85238244E-02 0.45420545E+03</pdfrwt>
<totfact> 0.41488000E+04</totfact>
</mgrwt>
</event>
<event>
 6    0  0.1576925E-007  0.4553863E+03  0.7546771E-02  0.1026128E+00
         21   -1    0    0  502  501  0.00000000000E+00  0.00000000000E+00  0.51457645413E+03  0.51457645413E+03  0.00000000000E+00 0.  1.
         21   -1    0    0  501  502 -0.00000000000E+00 -0.00000000000E+00 -0.10075116363E+03  0.10075116363E+03  0.00000000000E+00 0.  1.
      99926    2    1    2    0    0 -0.35527136788E-14  0.14210854715E-13  0.41382529050E+03  0.61532761777E+03  0.45538632624E+03 0.  0.
         25    1    3    3    0    0  0.55218945604E+00  0.92345279027E+02  0.12650192596E+03  0.20044500703E+03  0.12509000000E+03 0.  0.
         25    1    3    3    0    0 -0.27016391363E+02 -0.66310303307E+01  0.62923383558E+02  0.14276104603E+03  0.12509000000E+03 0.  0.
         25    1    3    3    0    0  0.26464201907E+02 -0.85714248697E+02  0.22439998098E+03  0.27212156470E+03  0.12509000000E+03 0.  0.
<mgrwt>
<rscale>  2 0.45538633E+03</rscale>
<asrwt>0</asrwt>
<pdfrwt beam="1">  1       21 0.75673007E-01 0.45538633E+03</pdfrwt>
<pdfrwt beam="2">  1       21 0.14816348E-01 0.45538633E+03</pdfrwt>
<totfact> 0.57568749E+04</totfact>
</mgrwt>
</event>
<event>
 6    0  0.1576925E-007  0.4569001E+03  0.7546771E-02  0.1025684E+00
         21   -1    0    0  502  501  0.00000000000E+00  0.00000000000E+00  0.21999443366E+03  0.21999443366E+03  0.00000000000E+00 0. -1.
         21   -1    0    0  501  502 -0.00000000000E+00 -0.00000000000E+00 -0.23723066794E+03  0.23723066794E+03  0.00000000000E+00 0. -1.
      99926    2    1    2    0    0  0.00000000000E+00 -0.35527136788E-14 -0.17236234288E+02  0.45722510160E+03  0.45690010479E+03 0.  0.
         25    1    3    3    0    0 -0.41095601575E+02  0.23646919262E+02 -0.12125906740E+02  0.13432263761E+03  0.12509000000E+03 0.  0.
         25    1    3    3    0    0  0.97116870426E+02  0.50997494741E+02 -0.10861588082E+02  0.16672706195E+03  0.12509000000E+03 0.  0.
         25    1    3    3    0    0 -0.56021268851E+02 -0.74644414003E+02  0.57512605341E+01  0.15617540204E+03  0.12509000000E+03 0.  0.
<mgrwt>
<rscale>  2 0.45690010E+03</rscale>
<asrwt>0</asrwt>
<pdfrwt beam="1">  1       21 0.32352123E-01 0.45690010E+03</pdfrwt>
<pdfrwt beam="2">  1       21 0.34886863E-01 0.45690010E+03</pdfrwt>
<totfact> 0.67356130E+04</totfact>
</mgrwt>
</event>
<event>
 6    0  0.1576925E-007  0.4529567E+03  0.7546771E-02  0.1026844E+00
         21   -1    0    0  502  501  0.00000000000E+00  0.00000000000E+00  0.21261800381E+02  0.21261800381E+02  0.00000000000E+00 0.  1.
         21   -1    0    0  501  502 -0.00000000000E+00 -0.00000000000E+00 -0.24124227375E+04  0.24124227375E+04  0.00000000000E+00 0.  1.
      99926    2    1    2    0    0  0.00000000000E+00  0.71054273576E-14 -0.23911609371E+04  0.24336845379E+04  0.45295673383E+03 0.  0.
         25    1    3    3    0    0 -0.18529633777E+02  0.16302901695E+02 -0.68444629603E+03  0.69622077833E+03  0.12509000000E+03 0.  0.
         25    1    3    3    0    0  0.10511711427E+03 -0.37956121712E+02 -0.75380819650E+03  0.77224645036E+03  0.12509000000E+03 0.  0.
         25    1    3    3    0    0 -0.86587480492E+02  0.21653220017E+02 -0.95290644457E+03  0.96521730917E+03  0.12509000000E+03 0.  0.
<mgrwt>
<rscale>  2 0.45295673E+03</rscale>
<asrwt>0</asrwt>
<pdfrwt beam="1">  1       21 0.31267369E-02 0.45295673E+03</pdfrwt>
<pdfrwt beam="2">  1       21 0.35476787E+00 0.45295673E+03</pdfrwt>
<totfact> 0.79600181E+03</totfact>
</mgrwt>
</event>
<event>
 6    0  0.1576925E-007  0.4556250E+03  0.7546771E-02  0.1026058E+00
         21   -1    0    0  502  501  0.00000000000E+00  0.00000000000E+00  0.71645555920E+02  0.71645555920E+02  0.00000000000E+00 0.  1.
         21   -1    0    0  501  502 -0.00000000000E+00 -0.00000000000E+00 -0.72437895200E+03  0.72437895200E+03  0.00000000000E+00 0.  1.
      99926    2    1    2    0    0 -0.17763568394E-14  0.00000000000E+00 -0.65273339608E+03  0.79602450792E+03  0.45562498927E+03 0.  0.
         25    1    3    3    0    0  0.80245944632E+01  0.68975143256E+02 -0.24265081438E+03  0.28168935075E+03  0.12509000000E+03 0.  0.
         25    1    3    3    0    0  0.37111911152E+02 -0.95169487284E+02 -0.29592903655E+03  0.33712909698E+03  0.12509000000E+03 0.  0.
         25    1    3    3    0    0 -0.45136505615E+02  0.26194344027E+02 -0.11415354514E+03  0.17720606019E+03  0.12509000000E+03 0.  0.
<mgrwt>
<rscale>  2 0.45562499E+03</rscale>
<asrwt>0</asrwt>
<pdfrwt beam="1">  1       21 0.10536111E-01 0.45562499E+03</pdfrwt>
<pdfrwt beam="2">  1       21 0.10652632E+00 0.45562499E+03</pdfrwt>
<totfact> 0.47723192E+04</totfact>
</mgrwt>
</event>
<event>
 6    0  0.1576925E-007  0.4587055E+03  0.7546771E-02  0.1025157E+00
         21   -1    0    0  502  501  0.00000000000E+00  0.00000000000E+00  0.97444116449E+02  0.97444116449E+02  0.00000000000E+00 0.  1.
         21   -1    0    0  501  502 -0.00000000000E+00 -0.00000000000E+00 -0.53982422152E+03  0.53982422152E+03  0.00000000000E+00 0.  1.
      99926    2    1    2    0    0  0.53290705182E-14  0.00000000000E+00 -0.44238010508E+03  0.63726833797E+03  0.45870554522E+03 0.  0.
         25    1    3    3    0    0 -0.58207191520E+02 -0.67004023085E+02 -0.15275673709E+03  0.21647111835E+03  0.12509000000E+03 0.  0.
         25    1    3    3    0    0  0.69891675698E+02  0.92888958406E+02 -0.20643399046E+03  0.26790988306E+03  0.12509000000E+03 0.  0.
         25    1    3    3    0    0 -0.11684484179E+02 -0.25884935321E+02 -0.83189377529E+02  0.15288733656E+03  0.12509000000E+03 0.  0.
<mgrwt>
<rscale>  2 0.45870555E+03</rscale>
<asrwt>0</asrwt>
<pdfrwt beam="1">  1       21 0.14330017E-01 0.45870555E+03</pdfrwt>
<pdfrwt beam="2">  1       21 0.79385915E-01 0.45870555E+03</pdfrwt>
<totfact> 0.54820047E+04</totfact>
</mgrwt>
</event>
<event>
 6    0  0.1576925E-007  0.4537653E+03  0.7546771E-02  0.1026605E+00
         21   -1    0    0  502  501  0.00000000000E+00  0.00000000000E+00  0.36128595898E+03  0.36128595898E+03  0.00000000000E+00 0. -1.
         21   -1    0    0  501  502 -0.00000000000E+00 -0.00000000000E+00 -0.14247921951E+03  0.14247921951E+03  0.00000000000E+00 0. -1.
      99926    2    1    2    0    0  0.53290705182E-14 -0.35527136788E-14  0.21880673946E+03  0.50376517849E+03  0.45376532021E+03 0.  0.
         25    1    3    3    0    0 -0.60928036372E+02 -0.25663606556E+02 -0.74310172667E+01  0.14168124236E+03  0.12509000000E+03 0.  0.
         25    1    3    3    0    0 -0.90770906409E+01  0.24753171578E+02  0.56096733514E+02  0.13960467288E+03  0.12509000000E+03 0.  0.
         25    1    3    3    0    0  0.70005127013E+02  0.91043497894E+00  0.17014102321E+03  0.22247926326E+03  0.12509000000E+03 0.  0.
<mgrwt>
<rscale>  2 0.45376532E+03</rscale>
<asrwt>0</asrwt>
<pdfrwt beam="1">  1       21 0.53130288E-01 0.45376532E+03</pdfrwt>
<pdfrwt beam="2">  1       21 0.20952826E-01 0.45376532E+03</pdfrwt>
<totfact> 0.65647952E+04</totfact>
</mgrwt>
</event>
<event>
 6    0  0.1576925E-007  0.4573307E+03  0.7546771E-02  0.1025558E+00
         21   -1    0    0  502  501  0.00000000000E+00  0.00000000000E+00  0.26245433748E+03  0.26245433748E+03  0.00000000000E+00 0.  1.
         21   -1    0    0  501  502 -0.00000000000E+00 -0.00000000000E+00 -0.19922644317E+03  0.19922644317E+03  0.00000000000E+00 0.  1.
      99926    2    1    2    0    0  0.00000000000E+00  0.00000000000E+00  0.63227894316E+02  0.46168078065E+03  0.45733070813E+03 0.  0.
         25    1    3    3    0    0 -0.74801111610E+02 -0.35295905569E+02  0.89427467863E+02  0.17460179654E+03  0.12509000000E+03 0.  0.
         25    1    3    3    0    0  0.42774125664E+02  0.69053094144E+02  0.77964274404E+01  0.14935276368E+03  0.12509000000E+03 0.  0.
         25    1    3    3    0    0  0.32026985946E+02 -0.33757188576E+02 -0.33996000987E+02  0.13772622042E+03  0.12509000000E+03 0.  0.
<mgrwt>
<rscale>  2 0.45733071E+03</rscale>
<asrwt>0</asrwt>
<pdfrwt beam="1">  1       21 0.38596226E-01 0.45733071E+03</pdfrwt>
<pdfrwt beam="2">  1       21 0.29298006E-01 0.45733071E+03</pdfrwt>
<totfact> 0.66807844E+04</totfact>
</mgrwt>
</event>
<event>
 6    0  0.1576925E-007  0.4544537E+03  0.7546771E-02  0.1026402E+00
         21   -1    0    0  502  501  0.00000000000E+00  0.00000000000E+00  0.48656805794E+03  0.48656805794E+03  0.00000000000E+00 0. -1.
         21   -1    0    0  501  502 -0.00000000000E+00 -0.00000000000E+00 -0.10611473992E+03  0.10611473992E+03  0.00000000000E+00 0. -1.
      99926    2    1    2    0    0 -0.71054273576E-14  0.00000000000E+00  0.38045331802E+03  0.59268279786E+03  0.45445370688E+03 0.  0.
         25    1    3    3    0    0 -0.40966324271E+02 -0.59054451933E+02  0.23730584115E+03  0.27771791149E+03  0.12509000000E+03 0.  0.
         25    1    3    3    0    0  0.63917268437E+02  0.16159324767E+02  0.43965375217E+02  0.14807769346E+03  0.12509000000E+03 0.  0.
         25    1    3    3    0    0 -0.22950944166E+02  0.42895127165E+02  0.99182101646E+02  0.16688719292E+03  0.12509000000E+03 0.  0.
<mgrwt>
<rscale>  2 0.45445371E+03</rscale>
<asrwt>0</asrwt>
<pdfrwt beam="1">  1       21 0.71554125E-01 0.45445371E+03</pdfrwt>
<pdfrwt beam="2">  1       21 0.15605109E-01 0.45445371E+03</pdfrwt>
<totfact> 0.59386910E+04</totfact>
</mgrwt>
</event>
<event>
 6    0  0.1576925E-007  0.4508226E+03  0.7546771E-02  0.1027477E+00
         21   -1    0    0  502  501  0.00000000000E+00  0.00000000000E+00  0.80785979936E+02  0.80785979936E+02  0.00000000000E+00 0.  1.
         21   -1    0    0  501  502 -0.00000000000E+00 -0.00000000000E+00 -0.62894885131E+03  0.62894885131E+03  0.00000000000E+00 0.  1.
      99926    2    1    2    0    0  0.17763568394E-14  0.00000000000E+00 -0.54816287138E+03  0.70973483125E+03  0.45082257833E+03 0.  0.
         25    1    3    3    0    0  0.28568386598E+02  0.86630980269E+02 -0.32755697698E+03  0.36230120166E+03  0.12509000000E+03 0.  0.
         25    1    3    3    0    0 -0.37121928403E+01 -0.44323232654E+02 -0.12656579005E+03  0.18342501640E+03  0.12509000000E+03 0.  0.
         25    1    3    3    0    0 -0.24856193758E+02 -0.42307747615E+02 -0.94040104346E+02  0.16400861319E+03  0.12509000000E+03 0.  0.
<mgrwt>
<rscale>  2 0.45082258E+03</rscale>
<asrwt>0</asrwt>
<pdfrwt beam="1">  1       21 0.11880291E-01 0.45082258E+03</pdfrwt>
<pdfrwt beam="2">  1       21 0.92492476E-01 0.45082258E+03</pdfrwt>
<totfact> 0.54135024E+04</totfact>
</mgrwt>
</event>
<event>
 6    0  0.1576925E-007  0.4541804E+03  0.7546771E-02  0.1026483E+00
         21   -1    0    0  502  501  0.00000000000E+00  0.00000000000E+00  0.55943209986E+02  0.55943209986E+02  0.00000000000E+00 0.  1.
         21   -1    0    0  501  502 -0.00000000000E+00 -0.00000000000E+00 -0.92182694646E+03  0.92182694646E+03  0.00000000000E+00 0.  1.
      99926    2    1    2    0    0  0.00000000000E+00  0.00000000000E+00 -0.86588373647E+03  0.97777015644E+03  0.45418039780E+03 0.  0.
         25    1    3    3    0    0 -0.29550113505E+02  0.40527826248E+02 -0.32923692132E+03  0.35575296537E+03  0.12509000000E+03 0.  0.
         25    1    3    3    0    0  0.60457824103E+02 -0.34876164868E+02 -0.43446412034E+03  0.45746920698E+03  0.12509000000E+03 0.  0.
         25    1    3    3    0    0 -0.30907710598E+02 -0.56516613806E+01 -0.10218269481E+03  0.16454798409E+03  0.12509000000E+03 0.  0.
<mgrwt>
<rscale>  2 0.45418040E+03</rscale>
<asrwt>0</asrwt>
<pdfrwt beam="1">  1       21 0.82269425E-02 0.45418040E+03</pdfrwt>
<pdfrwt beam="2">  1       21 0.13556279E+00 0.45418040E+03</pdfrwt>
<totfact> 0.40293759E+04</totfact>
</mgrwt>
</event>
<event>
 6    0  0.1576925E-007  0.4537768E+03  0.7546771E-02  0.1026602E+00
         21   -1    0    0  502  501  0.00000000000E+00  0.00000000000E+00  0.34960531202E+03  0.34960531202E+03  0.00000000000E+00 0. -1.
         21   -1    0    0  501  502 -0.00000000000E+00 -0.00000000000E+00 -0.14724703368E+03  0.14724703368E+03  0.00000000000E+00 0. -1.
      99926    2    1    2    0    0  0.00000000000E+00  0.00000000000E+00  0.20235827834E+03  0.49685234569E+03  0.45377679602E+03 0.  0.
         25    1    3    3    0    0  0.30906892871E+02 -0.50002479567E+01  0.93155858380E+02  0.15907784433E+03  0.12509000000E+03 0.  0.
         25    1    3    3    0    0 -0.44769286851E+02  0.92777013233E+02  0.28950158375E+02  0.16461313131E+03  0.12509000000E+03 0.  0.
         25    1    3    3    0    0  0.13862393980E+02 -0.87776765276E+02  0.80252261585E+02  0.17316137005E+03  0.12509000000E+03 0.  0.
<mgrwt>
<rscale>  2 0.45377680E+03</rscale>
<asrwt>0</asrwt>
<pdfrwt beam="1">  1       21 0.51412546E-01 0.45377680E+03</pdfrwt>
<pdfrwt beam="2">  1       21 0.21653976E-01 0.45377680E+03</pdfrwt>
<totfact> 0.66132188E+04</totfact>
</mgrwt>
</event>
<event>
 6    0  0.1576925E-007  0.4775716E+03  0.7546771E-02  0.1019805E+00
         21   -1    0    0  502  501  0.00000000000E+00  0.00000000000E+00  0.19441501706E+02  0.19441501706E+02  0.00000000000E+00 0. -1.
         21   -1    0    0  501  502 -0.00000000000E+00 -0.00000000000E+00 -0.29328318675E+04  0.29328318675E+04  0.00000000000E+00 0. -1.
      99926    2    1    2    0    0 -0.71054273576E-14  0.71054273576E-14 -0.29133903658E+04  0.29522733692E+04  0.47757158942E+03 0.  0.
         25    1    3    3    0    0  0.61997889925E+01  0.78684292805E+02 -0.14472900304E+04  0.14548283732E+04  0.12509000000E+03 0.  0.
         25    1    3    3    0    0  0.37967746138E+02 -0.68894907350E+02 -0.47489193625E+03  0.49735089949E+03  0.12509000000E+03 0.  0.
         25    1    3    3    0    0 -0.44167535131E+02 -0.97893854549E+01 -0.99120839916E+03  0.10000940965E+04  0.12509000000E+03 0.  0.
<mgrwt>
<rscale>  2 0.47757159E+03</rscale>
<asrwt>0</asrwt>
<pdfrwt beam="1">  1       21 0.28590460E-02 0.47757159E+03</pdfrwt>
<pdfrwt beam="2">  1       21 0.43129856E+00 0.47757159E+03</pdfrwt>
<totfact> 0.29661268E+03</totfact>
</mgrwt>
</event>
<event>
 6    0  0.1576925E-007  0.4539839E+03  0.7546771E-02  0.1026541E+00
         21   -1    0    0  502  501  0.00000000000E+00  0.00000000000E+00  0.12443184724E+04  0.12443184724E+04  0.00000000000E+00 0.  1.
         21   -1    0    0  501  502 -0.00000000000E+00 -0.00000000000E+00 -0.41408494003E+02  0.41408494003E+02  0.00000000000E+00 0.  1.
      99926    2    1    2    0    0  0.35527136788E-14 -0.10880185641E-13  0.12029099784E+04  0.12857269664E+04  0.45398393805E+03 0.  0.
         25    1    3    3    0    0  0.23952407782E+02 -0.87556755131E+02  0.52903006135E+03  0.55114446121E+03  0.12509000000E+03 0.  0.
         25    1    3    3    0    0  0.31047724384E+02 -0.12812048381E+01  0.27596403515E+03  0.30458046469E+03  0.12509000000E+03 0.  0.
         25    1    3    3    0    0 -0.55000132166E+02  0.88837959969E+02  0.39791588187E+03  0.43000204048E+03  0.12509000000E+03 0.  0.
<mgrwt>
<rscale>  2 0.45398394E+03</rscale>
<asrwt>0</asrwt>
<pdfrwt beam="1">  1       21 0.18298799E+00 0.45398394E+03</pdfrwt>
<pdfrwt beam="2">  1       21 0.60894852E-02 0.45398394E+03</pdfrwt>
<totfact> 0.29766674E+04</totfact>
</mgrwt>
</event>
<event>
 6    0  0.1576925E-007  0.4546561E+03  0.7546771E-02  0.1026343E+00
         21   -1    0    0  502  501  0.00000000000E+00  0.00000000000E+00  0.36169962316E+02  0.36169962316E+02  0.00000000000E+00 0.  1.
         21   -1    0    0  501  502 -0.00000000000E+00 -0.00000000000E+00 -0.14287559391E+04  0.14287559391E+04  0.00000000000E+00 0.  1.
      99926    2    1    2    0    0  0.00000000000E+00  0.00000000000E+00 -0.13925859768E+04  0.14649259015E+04  0.45465612710E+03 0.  0.
         25    1    3    3    0    0  0.52105926809E+02  0.80118544870E+01 -0.27830647021E+03  0.30964692293E+03  0.12509000000E+03 0.  0.
         25    1    3    3    0    0 -0.22753220030E+02  0.50250939041E+02 -0.78849244245E+03  0.80025664996E+03  0.12509000000E+03 0.  0.
         25    1    3    3    0    0 -0.29352706779E+02 -0.58262793528E+02 -0.32578706416E+03  0.35502232856E+03  0.12509000000E+03 0.  0.
<mgrwt>
<rscale>  2 0.45465613E+03</rscale>
<asrwt>0</asrwt>
<pdfrwt beam="1">  1       21 0.53191128E-02 0.45465613E+03</pdfrwt>
<pdfrwt beam="2">  1       21 0.21011114E+00 0.45465613E+03</pdfrwt>
<totfact> 0.24717824E+04</totfact>
</mgrwt>
</event>
<event>
 6    0  0.1576925E-007  0.4564553E+03  0.7546771E-02  0.1025814E+00
         21   -1    0    0  502  501  0.00000000000E+00  0.00000000000E+00  0.16469845387E+04  0.16469845387E+04  0.00000000000E+00 0.  1.
         21   -1    0    0  501  502 -0.00000000000E+00 -0.00000000000E+00 -0.31626199671E+02  0.31626199671E+02  0.00000000000E+00 0.  1.
      99926    2    1    2    0    0  0.00000000000E+00  0.00000000000E+00  0.16153583390E+04  0.16786107383E+04  0.45645530723E+03 0.  0.
         25    1    3    3    0    0  0.34786781243E+02 -0.87016451384E+02  0.37224729182E+03  0.40372953487E+03  0.12509000000E+03 0.  0.
         25    1    3    3    0    0 -0.37618014951E+02  0.87367367172E+02  0.73185229911E+03  0.74853421279E+03  0.12509000000E+03 0.  0.
         25    1    3    3    0    0  0.28312337083E+01 -0.35091578796E+00  0.51125874806E+03  0.52634699068E+03  0.12509000000E+03 0.  0.
<mgrwt>
<rscale>  2 0.45645531E+03</rscale>
<asrwt>0</asrwt>
<pdfrwt beam="1">  1       21 0.24220355E+00 0.45645531E+03</pdfrwt>
<pdfrwt beam="2">  1       21 0.46509128E-02 0.45645531E+03</pdfrwt>
<totfact> 0.19489206E+04</totfact>
</mgrwt>
</event>
<event>
 6    0  0.1576925E-007  0.4284680E+03  0.7546771E-02  0.1034345E+00
         21   -1    0    0  502  501  0.00000000000E+00  0.00000000000E+00  0.25115276686E+04  0.25115276686E+04  0.00000000000E+00 0.  1.
         21   -1    0    0  501  502 -0.00000000000E+00 -0.00000000000E+00 -0.18274219745E+02  0.18274219745E+02  0.00000000000E+00 0.  1.
      99926    2    1    2    0    0  0.00000000000E+00  0.00000000000E+00  0.24932534489E+04  0.25298018884E+04  0.42846800819E+03 0.  0.
         25    1    3    3    0    0 -0.21485697539E+02 -0.50125269260E+02  0.73528383189E+03  0.74783955455E+03  0.12509000000E+03 0.  0.
         25    1    3    3    0    0 -0.51959165442E+02  0.45286877681E+02  0.10091951850E+04  0.10192512378E+04  0.12509000000E+03 0.  0.
         25    1    3    3    0    0  0.73444862981E+02  0.48383915787E+01  0.74877443194E+03  0.76271109600E+03  0.12509000000E+03 0.  0.
<mgrwt>
<rscale>  2 0.42846801E+03</rscale>
<asrwt>0</asrwt>
<pdfrwt beam="1">  1       21 0.36934207E+00 0.42846801E+03</pdfrwt>
<pdfrwt beam="2">  1       21 0.26873870E-02 0.42846801E+03</pdfrwt>
<totfact> 0.84434007E+03</totfact>
</mgrwt>
</event>
<event>
 6    0  0.1576925E-007  0.4507427E+03  0.7546771E-02  0.1027501E+00
         21   -1    0    0  502  501  0.00000000000E+00  0.00000000000E+00  0.44015776721E+03  0.44015776721E+03  0.00000000000E+00 0.  1.
         21   -1    0    0  501  502 -0.00000000000E+00 -0.00000000000E+00 -0.11539554731E+03  0.11539554731E+03  0.00000000000E+00 0.  1.
      99926    2    1    2    0    0  0.00000000000E+00 -0.71054273576E-14  0.32476221990E+03  0.55555331451E+03  0.45074270465E+03 0.  0.
         25    1    3    3    0    0 -0.72374845368E+02 -0.45689805000E+02  0.72680407732E+02  0.16809409951E+03  0.12509000000E+03 0.  0.
         25    1    3    3    0    0  0.18449443182E+02 -0.36367054738E+02  0.84138894735E+02  0.15617236097E+03  0.12509000000E+03 0.  0.
         25    1    3    3    0    0  0.53925402186E+02  0.82056859738E+02  0.16794291743E+03  0.23128685403E+03  0.12509000000E+03 0.  0.
<mgrwt>
<rscale>  2 0.45074270E+03</rscale>
<asrwt>0</asrwt>
<pdfrwt beam="1">  1       21 0.64729083E-01 0.45074270E+03</pdfrwt>
<pdfrwt beam="2">  1       21 0.16969934E-01 0.45074270E+03</pdfrwt>
<totfact> 0.63616608E+04</totfact>
</mgrwt>
</event>
<event>
 6    0  0.1576925E-007  0.4821347E+03  0.7546771E-02  0.1018550E+00
         21   -1    0    0  502  501  0.00000000000E+00  0.00000000000E+00  0.55640943328E+03  0.55640943328E+03  0.00000000000E+00 0. -1.
         21   -1    0    0  501  502 -0.00000000000E+00 -0.00000000000E+00 -0.10444371492E+03  0.10444371492E+03  0.00000000000E+00 0. -1.
      99926    2    1    2    0    0 -0.71054273576E-14 -0.71054273576E-14  0.45196571837E+03  0.66085314820E+03  0.48213470411E+03 0.  0.
         25    1    3    3    0    0 -0.58379673525E+02 -0.58568713678E+02  0.21363466014E+03  0.26100911214E+03  0.12509000000E+03 0.  0.
         25    1    3    3    0    0  0.89879728745E+02  0.92075746877E+02  0.18061139983E+03  0.25460615596E+03  0.12509000000E+03 0.  0.
         25    1    3    3    0    0 -0.31500055220E+02 -0.33507033199E+02  0.57719658390E+02  0.14523788010E+03  0.12509000000E+03 0.  0.
<mgrwt>
<rscale>  2 0.48213470E+03</rscale>
<asrwt>0</asrwt>
<pdfrwt beam="1">  1       21 0.81824915E-01 0.48213470E+03</pdfrwt>
<pdfrwt beam="2">  1       21 0.15359370E-01 0.48213470E+03</pdfrwt>
<totfact> 0.44713515E+04</totfact>
</mgrwt>
</event>
<event>
 6    0  0.1576925E-007  0.4555829E+03  0.7546771E-02  0.1026070E+00
         21   -1    0    0  502  501  0.00000000000E+00  0.00000000000E+00  0.70872983234E+02  0.70872983234E+02  0.00000000000E+00 0. -1.
         21   -1    0    0  501  502 -0.00000000000E+00 -0.00000000000E+00 -0.73214005132E+03  0.73214005132E+03  0.00000000000E+00 0. -1.
      99926    2    1    2    0    0  0.00000000000E+00 -0.35527136788E-14 -0.66126706809E+03  0.80301303456E+03  0.45558292146E+03 0.  0.
         25    1    3    3    0    0  0.12828207562E+02  0.14920084909E+02 -0.22484028812E+03  0.25804618793E+03  0.12509000000E+03 0.  0.
         25    1    3    3    0    0  0.81167159299E+02 -0.27288320254E+02 -0.12601658518E+03  0.19713053546E+03  0.12509000000E+03 0.  0.
         25    1    3    3    0    0 -0.93995366861E+02  0.12368235344E+02 -0.31041019479E+03  0.34783631116E+03  0.12509000000E+03 0.  0.
<mgrwt>
<rscale>  2 0.45558292E+03</rscale>
<asrwt>0</asrwt>
<pdfrwt beam="1">  1       21 0.10422498E-01 0.45558292E+03</pdfrwt>
<pdfrwt beam="2">  1       21 0.10766765E+00 0.45558292E+03</pdfrwt>
<totfact> 0.47402200E+04</totfact>
</mgrwt>
</event>
<event>
 6    0  0.1576925E-007  0.4549528E+03  0.7546771E-02  0.1026255E+00
         21   -1    0    0  502  501  0.00000000000E+00  0.00000000000E+00  0.12811741991E+03  0.12811741991E+03  0.00000000000E+00 0.  1.
         21   -1    0    0  501  502 -0.00000000000E+00 -0.00000000000E+00 -0.40389131883E+03  0.40389131883E+03  0.00000000000E+00 0.  1.
      99926    2    1    2    0    0  0.35527136788E-14 -0.35527136788E-14 -0.27577389891E+03  0.53200873874E+03  0.45495280500E+03 0.  0.
         25    1    3    3    0    0 -0.16647597618E+02  0.85080303781E+02 -0.15667486473E+03  0.21842692585E+03  0.12509000000E+03 0.  0.
         25    1    3    3    0    0  0.47739717759E+02 -0.89605772078E+02 -0.66518278181E+02  0.17429992677E+03  0.12509000000E+03 0.  0.
         25    1    3    3    0    0 -0.31092120141E+02  0.45254682966E+01 -0.52580755995E+02  0.13928188611E+03  0.12509000000E+03 0.  0.
<mgrwt>
<rscale>  2 0.45495280E+03</rscale>
<asrwt>0</asrwt>
<pdfrwt beam="1">  1       21 0.18840797E-01 0.45495280E+03</pdfrwt>
<pdfrwt beam="2">  1       21 0.59395783E-01 0.45495280E+03</pdfrwt>
<totfact> 0.63094319E+04</totfact>
</mgrwt>
</event>
<event>
 6    0  0.1576925E-007  0.4505553E+03  0.7546771E-02  0.1027557E+00
         21   -1    0    0  502  501  0.00000000000E+00  0.00000000000E+00  0.10303384936E+04  0.10303384936E+04  0.00000000000E+00 0.  1.
         21   -1    0    0  501  502 -0.00000000000E+00 -0.00000000000E+00 -0.49255687026E+02  0.49255687026E+02  0.00000000000E+00 0.  1.
      99926    2    1    2    0    0  0.00000000000E+00  0.35527136788E-14  0.98108280654E+03  0.10795941806E+04  0.45055534785E+03 0.  0.
         25    1    3    3    0    0 -0.46174877034E+02 -0.31861376399E+02  0.50387543189E+03  0.52219270919E+03  0.12509000000E+03 0.  0.
         25    1    3    3    0    0 -0.23356190711E+02  0.16790881092E+02  0.13557226309E+03  0.18669438115E+03  0.12509000000E+03 0.  0.
         25    1    3    3    0    0  0.69531067746E+02  0.15070495308E+02  0.34163511156E+03  0.37070709025E+03  0.12509000000E+03 0.  0.
<mgrwt>
<rscale>  2 0.45055535E+03</rscale>
<asrwt>0</asrwt>
<pdfrwt beam="1">  1       21 0.15152035E+00 0.45055535E+03</pdfrwt>
<pdfrwt beam="2">  1       21 0.72434840E-02 0.45055535E+03</pdfrwt>
<totfact> 0.37493384E+04</totfact>
</mgrwt>
</event>
<event>
 6    0  0.1576925E-007  0.4592008E+03  0.7546771E-02  0.1025013E+00
         21   -1    0    0  502  501  0.00000000000E+00  0.00000000000E+00  0.15179681170E+03  0.15179681170E+03  0.00000000000E+00 0. -1.
         21   -1    0    0  501  502 -0.00000000000E+00 -0.00000000000E+00 -0.34728229285E+03  0.34728229285E+03  0.00000000000E+00 0. -1.
      99926    2    1    2    0    0  0.00000000000E+00  0.71054273576E-14 -0.19548548116E+03  0.49907910455E+03  0.45920080494E+03 0.  0.
         25    1    3    3    0    0  0.19564649508E+02 -0.40357823094E+02 -0.59414101915E+02  0.14556466948E+03  0.12509000000E+03 0.  0.
         25    1    3    3    0    0 -0.72643821562E+02 -0.49035691647E+02 -0.20782109424E+02  0.15414612560E+03  0.12509000000E+03 0.  0.
         25    1    3    3    0    0  0.53079172055E+02  0.89393514741E+02 -0.11528926982E+03  0.19936830946E+03  0.12509000000E+03 0.  0.
<mgrwt>
<rscale>  2 0.45920080E+03</rscale>
<asrwt>0</asrwt>
<pdfrwt beam="1">  1       21 0.22323061E-01 0.45920080E+03</pdfrwt>
<pdfrwt beam="2">  1       21 0.51070925E-01 0.45920080E+03</pdfrwt>
<totfact> 0.63201346E+04</totfact>
</mgrwt>
</event>
<event>
 6    0  0.1576925E-007  0.4572187E+03  0.7546771E-02  0.1025591E+00
         21   -1    0    0  502  501  0.00000000000E+00  0.00000000000E+00  0.22566489085E+03  0.22566489085E+03  0.00000000000E+00 0.  1.
         21   -1    0    0  501  502 -0.00000000000E+00 -0.00000000000E+00 -0.23159221836E+03  0.23159221836E+03  0.00000000000E+00 0.  1.
      99926    2    1    2    0    0 -0.71054273576E-14  0.00000000000E+00 -0.59273275141E+01  0.45725710921E+03  0.45721869025E+03 0.  0.
         25    1    3    3    0    0 -0.33805294351E+02  0.65680591647E+01 -0.10014621928E+03  0.16389847669E+03  0.12509000000E+03 0.  0.
         25    1    3    3    0    0 -0.16460657762E+02 -0.11266419387E+02 -0.36152577740E+01  0.12672199355E+03  0.12509000000E+03 0.  0.
         25    1    3    3    0    0  0.50265952114E+02  0.46983602221E+01  0.97834149537E+02  0.16663663897E+03  0.12509000000E+03 0.  0.
<mgrwt>
<rscale>  2 0.45721869E+03</rscale>
<asrwt>0</asrwt>
<pdfrwt beam="1">  1       21 0.33186014E-01 0.45721869E+03</pdfrwt>
<pdfrwt beam="2">  1       21 0.34057679E-01 0.45721869E+03</pdfrwt>
<totfact> 0.67183515E+04</totfact>
</mgrwt>
</event>
<event>
 6    0  0.1576925E-007  0.4730794E+03  0.7546771E-02  0.1021055E+00
         21   -1    0    0  502  501  0.00000000000E+00  0.00000000000E+00  0.15106901730E+03  0.15106901730E+03  0.00000000000E+00 0.  1.
         21   -1    0    0  501  502 -0.00000000000E+00 -0.00000000000E+00 -0.37036741463E+03  0.37036741463E+03  0.00000000000E+00 0.  1.
      99926    2    1    2    0    0  0.00000000000E+00  0.71054273576E-14 -0.21929839733E+03  0.52143643192E+03  0.47307944942E+03 0.  0.
         25    1    3    3    0    0  0.41244637756E+02  0.60498242469E+02  0.16743660487E+02  0.14590755893E+03  0.12509000000E+03 0.  0.
         25    1    3    3    0    0 -0.76768624640E+02 -0.16339493593E+02 -0.16312953242E+03  0.22004352576E+03  0.12509000000E+03 0.  0.
         25    1    3    3    0    0  0.35523986884E+02 -0.44158748876E+02 -0.72912525399E+02  0.15548534724E+03  0.12509000000E+03 0.  0.
<mgrwt>
<rscale>  2 0.47307945E+03</rscale>
<asrwt>0</asrwt>
<pdfrwt beam="1">  1       21 0.22216032E-01 0.47307945E+03</pdfrwt>
<pdfrwt beam="2">  1       21 0.54465795E-01 0.47307945E+03</pdfrwt>
<totfact> 0.55403305E+04</totfact>
</mgrwt>
</event>
<event>
 6    0  0.1576925E-007  0.4548536E+03  0.7546771E-02  0.1026284E+00
         21   -1    0    0  502  501  0.00000000000E+00  0.00000000000E+00  0.32047199694E+03  0.32047199694E+03  0.00000000000E+00 0.  1.
         21   -1    0    0  501  502 -0.00000000000E+00 -0.00000000000E+00 -0.16139613239E+03  0.16139613239E+03  0.00000000000E+00 0.  1.
      99926    2    1    2    0    0  0.00000000000E+00  0.00000000000E+00  0.15907586456E+03  0.48186812933E+03  0.45485356257E+03 0.  0.
         25    1    3    3    0    0  0.34434953815E+02  0.43520027971E+02  0.12024106189E+03  0.18216799923E+03  0.12509000000E+03 0.  0.
         25    1    3    3    0    0  0.58024127936E+02 -0.21642158427E+02  0.27042298974E+02  0.14217586461E+03  0.12509000000E+03 0.  0.
         25    1    3    3    0    0 -0.92459081751E+02 -0.21877869544E+02  0.11792503690E+02  0.15752426549E+03  0.12509000000E+03 0.  0.
<mgrwt>
<rscale>  2 0.45485356E+03</rscale>
<asrwt>0</asrwt>
<pdfrwt beam="1">  1       21 0.47128235E-01 0.45485356E+03</pdfrwt>
<pdfrwt beam="2">  1       21 0.23734725E-01 0.45485356E+03</pdfrwt>
<totfact> 0.66641795E+04</totfact>
</mgrwt>
</event>
<event>
 6    0  0.1576925E-007  0.4563243E+03  0.7546771E-02  0.1025853E+00
         21   -1    0    0  502  501  0.00000000000E+00  0.00000000000E+00  0.24229426203E+03  0.24229426203E+03  0.00000000000E+00 0. -1.
         21   -1    0    0  501  502 -0.00000000000E+00 -0.00000000000E+00 -0.21485431675E+03  0.21485431675E+03  0.00000000000E+00 0. -1.
      99926    2    1    2    0    0 -0.17763568394E-14  0.71054273576E-14  0.27439945279E+02  0.45714857879E+03  0.45632430627E+03 0.  0.
         25    1    3    3    0    0  0.25896443621E+02 -0.86831701871E+02 -0.20358796346E+02  0.15579588868E+03  0.12509000000E+03 0.  0.
         25    1    3    3    0    0  0.93389215462E+01 -0.21663154354E+02  0.86284761406E+01  0.12758709344E+03  0.12509000000E+03 0.  0.
         25    1    3    3    0    0 -0.35235365167E+02  0.10849485622E+03  0.39170265484E+02  0.17376559666E+03  0.12509000000E+03 0.  0.
<mgrwt>
<rscale>  2 0.45632431E+03</rscale>
<asrwt>0</asrwt>
<pdfrwt beam="1">  1       21 0.35631509E-01 0.45632431E+03</pdfrwt>
<pdfrwt beam="2">  1       21 0.31596223E-01 0.45632431E+03</pdfrwt>
<totfact> 0.67670841E+04</totfact>
</mgrwt>
</event>
<event>
 6    0  0.1576925E-007  0.4522407E+03  0.7546771E-02  0.1027056E+00
         21   -1    0    0  502  501  0.00000000000E+00  0.00000000000E+00  0.12936128514E+04  0.12936128514E+04  0.00000000000E+00 0. -1.
         21   -1    0    0  501  502 -0.00000000000E+00 -0.00000000000E+00 -0.39525286051E+02  0.39525286051E+02  0.00000000000E+00 0. -1.
      99926    2    1    2    0    0 -0.35527136788E-14  0.35527136788E-14  0.12540875653E+04  0.13331381374E+04  0.45224072346E+03 0.  0.
         25    1    3    3    0    0  0.25816548812E+02 -0.72091175599E+01  0.59976496219E+03  0.61325686588E+03  0.12509000000E+03 0.  0.
         25    1    3    3    0    0  0.44917864875E+01  0.47491065035E+02  0.16589805772E+03  0.21317891795E+03  0.12509000000E+03 0.  0.
         25    1    3    3    0    0 -0.30308335300E+02 -0.40281947475E+02  0.48842454540E+03  0.50670235359E+03  0.12509000000E+03 0.  0.
<mgrwt>
<rscale>  2 0.45224072E+03</rscale>
<asrwt>0</asrwt>
<pdfrwt beam="1">  1       21 0.19023716E+00 0.45224072E+03</pdfrwt>
<pdfrwt beam="2">  1       21 0.58125429E-02 0.45224072E+03</pdfrwt>
<totfact> 0.28779850E+04</totfact>
</mgrwt>
</event>
<event>
 6    0  0.1576925E-007  0.4870563E+03  0.7546771E-02  0.1017214E+00
         21   -1    0    0  502  501  0.00000000000E+00  0.00000000000E+00  0.10861418648E+04  0.10861418648E+04  0.00000000000E+00 0. -1.
         21   -1    0    0  501  502 -0.00000000000E+00 -0.00000000000E+00 -0.54602408240E+02  0.54602408240E+02  0.00000000000E+00 0. -1.
      99926    2    1    2    0    0  0.00000000000E+00  0.00000000000E+00  0.10315394566E+04  0.11407442731E+04  0.48705630685E+03 0.  0.
         25    1    3    3    0    0 -0.65516832482E+01 -0.50383087980E+02  0.59068027122E+03  0.60591424394E+03  0.12509000000E+03 0.  0.
         25    1    3    3    0    0 -0.76493206449E+02  0.38371906489E+02  0.23806309699E+03  0.28221474109E+03  0.12509000000E+03 0.  0.
         25    1    3    3    0    0  0.83044889698E+02  0.12011181491E+02  0.20279608838E+03  0.25261528803E+03  0.12509000000E+03 0.  0.
<mgrwt>
<rscale>  2 0.48705631E+03</rscale>
<asrwt>0</asrwt>
<pdfrwt beam="1">  1       21 0.15972673E+00 0.48705631E+03</pdfrwt>
<pdfrwt beam="2">  1       21 0.80297666E-02 0.48705631E+03</pdfrwt>
<totfact> 0.26755718E+04</totfact>
</mgrwt>
</event>
<event>
 6    0  0.1576925E-007  0.4554428E+03  0.7546771E-02  0.1026111E+00
         21   -1    0    0  502  501  0.00000000000E+00  0.00000000000E+00  0.81181281688E+02  0.81181281688E+02  0.00000000000E+00 0. -1.
         21   -1    0    0  501  502 -0.00000000000E+00 -0.00000000000E+00 -0.63878076775E+03  0.63878076775E+03  0.00000000000E+00 0. -1.
      99926    2    1    2    0    0  0.71054273576E-14 -0.35527136788E-14 -0.55759948606E+03  0.71996204944E+03  0.45544282383E+03 0.  0.
         25    1    3    3    0    0  0.44793732300E+02 -0.11605901074E+02 -0.96467718252E+02  0.16460469057E+03  0.12509000000E+03 0.  0.
         25    1    3    3    0    0  0.26687752362E+01  0.85839862101E+02 -0.27805722099E+03  0.31676320893E+03  0.12509000000E+03 0.  0.
         25    1    3    3    0    0 -0.47462507536E+02 -0.74233961026E+02 -0.18307454682E+03  0.23859414994E+03  0.12509000000E+03 0.  0.
<mgrwt>
<rscale>  2 0.45544282E+03</rscale>
<asrwt>0</asrwt>
<pdfrwt beam="1">  1       21 0.11938424E-01 0.45544282E+03</pdfrwt>
<pdfrwt beam="2">  1       21 0.93938346E-01 0.45544282E+03</pdfrwt>
<totfact> 0.51652409E+04</totfact>
</mgrwt>
</event>
<event>
 6    0  0.1576925E-007  0.4632284E+03  0.7546771E-02  0.1023849E+00
         21   -1    0    0  502  501  0.00000000000E+00  0.00000000000E+00  0.80558770225E+02  0.80558770225E+02  0.00000000000E+00 0.  1.
         21   -1    0    0  501  502 -0.00000000000E+00 -0.00000000000E+00 -0.66591309620E+03  0.66591309620E+03  0.00000000000E+00 0.  1.
      99926    2    1    2    0    0  0.00000000000E+00  0.17763568394E-14 -0.58535432597E+03  0.74647186642E+03  0.46322841064E+03 0.  0.
         25    1    3    3    0    0 -0.52315495508E+02  0.44439221046E+02 -0.35831779787E+03  0.38568239240E+03  0.12509000000E+03 0.  0.
         25    1    3    3    0    0  0.56315415692E+02  0.14290101673E+02 -0.14458987701E+03  0.19982335621E+03  0.12509000000E+03 0.  0.
         25    1    3    3    0    0 -0.39999201839E+01 -0.58729322719E+02 -0.82446651082E+02  0.16096611781E+03  0.12509000000E+03 0.  0.
<mgrwt>
<rscale>  2 0.46322841E+03</rscale>
<asrwt>0</asrwt>
<pdfrwt beam="1">  1       21 0.11846878E-01 0.46322841E+03</pdfrwt>
<pdfrwt beam="2">  1       21 0.97928395E-01 0.46322841E+03</pdfrwt>
<totfact> 0.47316022E+04</totfact>
</mgrwt>
</event>
<event>
 6    0  0.1576925E-007  0.4566182E+03  0.7546771E-02  0.1025767E+00
         21   -1    0    0  502  501  0.00000000000E+00  0.00000000000E+00  0.98086245147E+02  0.98086245147E+02  0.00000000000E+00 0.  1.
         21   -1    0    0  501  502 -0.00000000000E+00 -0.00000000000E+00 -0.53142043460E+03  0.53142043460E+03  0.00000000000E+00 0.  1.
      99926    2    1    2    0    0  0.00000000000E+00  0.00000000000E+00 -0.43333418945E+03  0.62950667974E+03  0.45661815568E+03 0.  0.
         25    1    3    3    0    0  0.59864727836E+02 -0.38799452560E+02 -0.10053819980E+03  0.17562636726E+03  0.12509000000E+03 0.  0.
         25    1    3    3    0    0  0.49165168290E+02  0.14625196031E+02 -0.19255147923E+03  0.23527577518E+03  0.12509000000E+03 0.  0.
         25    1    3    3    0    0 -0.10902989613E+03  0.24174256528E+02 -0.14024451042E+03  0.21860453731E+03  0.12509000000E+03 0.  0.
<mgrwt>
<rscale>  2 0.45661816E+03</rscale>
<asrwt>0</asrwt>
<pdfrwt beam="1">  1       21 0.14424448E-01 0.45661816E+03</pdfrwt>
<pdfrwt beam="2">  1       21 0.78150063E-01 0.45661816E+03</pdfrwt>
<totfact> 0.56176780E+04</totfact>
</mgrwt>
</event>
<event>
 6    0  0.1576925E-007  0.4577192E+03  0.7546771E-02  0.1025445E+00
         21   -1    0    0  502  501  0.00000000000E+00  0.00000000000E+00  0.29727790377E+03  0.29727790377E+03  0.00000000000E+00 0.  1.
         21   -1    0    0  501  502 -0.00000000000E+00 -0.00000000000E+00 -0.17618768496E+03  0.17618768496E+03  0.00000000000E+00 0.  1.
      99926    2    1    2    0    0  0.00000000000E+00  0.00000000000E+00  0.12109021881E+03  0.47346558873E+03  0.45771915257E+03 0.  0.
         25    1    3    3    0    0 -0.43042065123E+02 -0.26757430381E+02  0.12204189847E+03  0.18196239318E+03  0.12509000000E+03 0.  0.
         25    1    3    3    0    0  0.13272055516E+02  0.15215769033E+02 -0.70353611190E+02  0.14493034807E+03  0.12509000000E+03 0.  0.
         25    1    3    3    0    0  0.29770009608E+02  0.11541661348E+02  0.69401931528E+02  0.14657284748E+03  0.12509000000E+03 0.  0.
<mgrwt>
<rscale>  2 0.45771915E+03</rscale>
<asrwt>0</asrwt>
<pdfrwt beam="1">  1       21 0.43717339E-01 0.45771915E+03</pdfrwt>
<pdfrwt beam="2">  1       21 0.25909954E-01 0.45771915E+03</pdfrwt>
<totfact> 0.65748987E+04</totfact>
</mgrwt>
</event>
<event>
 6    0  0.1576925E-007  0.4270235E+03  0.7546771E-02  0.1034804E+00
         21   -1    0    0  502  501  0.00000000000E+00  0.00000000000E+00  0.96913149430E+02  0.96913149430E+02  0.00000000000E+00 0. -1.
         21   -1    0    0  501  502 -0.00000000000E+00 -0.00000000000E+00 -0.47039308607E+03  0.47039308607E+03  0.00000000000E+00 0. -1.
      99926    2    1    2    0    0  0.00000000000E+00  0.00000000000E+00 -0.37347993664E+03  0.56730623550E+03  0.42702353772E+03 0.  0.
         25    1    3    3    0    0 -0.61480302349E+02  0.32187380889E+02 -0.86054123651E+02  0.16693913670E+03  0.12509000000E+03 0.  0.
         25    1    3    3    0    0  0.13416419148E+02  0.26006523461E+02 -0.16909719832E+03  0.21236221450E+03  0.12509000000E+03 0.  0.
         25    1    3    3    0    0  0.48063883201E+02 -0.58193904350E+02 -0.11832861466E+03  0.18800488430E+03  0.12509000000E+03 0.  0.
<mgrwt>
<rscale>  2 0.42702354E+03</rscale>
<asrwt>0</asrwt>
<pdfrwt beam="1">  1       21 0.14251934E-01 0.42702354E+03</pdfrwt>
<pdfrwt beam="2">  1       21 0.69175454E-01 0.42702354E+03</pdfrwt>
<totfact> 0.76259319E+04</totfact>
</mgrwt>
</event>
<event>
 6    0  0.1576925E-007  0.4614338E+03  0.7546771E-02  0.1024366E+00
         21   -1    0    0  502  501  0.00000000000E+00  0.00000000000E+00  0.17262385713E+03  0.17262385713E+03  0.00000000000E+00 0. -1.
         21   -1    0    0  501  502 -0.00000000000E+00 -0.00000000000E+00 -0.30836001395E+03  0.30836001395E+03  0.00000000000E+00 0. -1.
      99926    2    1    2    0    0  0.00000000000E+00 -0.44408920985E-15 -0.13573615682E+03  0.48098387107E+03  0.46143383054E+03 0.  0.
         25    1    3    3    0    0 -0.41111279075E+02  0.42362397166E+02  0.41269365551E+01  0.13838081394E+03  0.12509000000E+03 0.  0.
         25    1    3    3    0    0  0.94017348601E+02 -0.44254046344E+02 -0.24624270142E+02  0.16447353962E+03  0.12509000000E+03 0.  0.
         25    1    3    3    0    0 -0.52906069526E+02  0.18916491780E+01 -0.11523882324E+03  0.17812951751E+03  0.12509000000E+03 0.  0.
<mgrwt>
<rscale>  2 0.46143383E+03</rscale>
<asrwt>0</asrwt>
<pdfrwt beam="1">  1       21 0.25385862E-01 0.46143383E+03</pdfrwt>
<pdfrwt beam="2">  1       21 0.45347060E-01 0.46143383E+03</pdfrwt>
<totfact> 0.63332315E+04</totfact>
</mgrwt>
</event>
<event>
 6    0  0.1576925E-007  0.4478912E+03  0.7546771E-02  0.1028353E+00
         21   -1    0    0  502  501  0.00000000000E+00  0.00000000000E+00  0.34147981050E+03  0.34147981050E+03  0.00000000000E+00 0. -1.
         21   -1    0    0  501  502 -0.00000000000E+00 -0.00000000000E+00 -0.14686561089E+03  0.14686561089E+03  0.00000000000E+00 0. -1.
      99926    2    1    2    0    0  0.00000000000E+00 -0.11657341759E-14  0.19461419961E+03  0.48834542139E+03  0.44789124115E+03 0.  0.
         25    1    3    3    0    0  0.98567459449E+02  0.20189957573E+02  0.82286112534E+02  0.18039315637E+03  0.12509000000E+03 0.  0.
         25    1    3    3    0    0 -0.54672444299E+01 -0.19967503064E+02  0.25006942042E+02  0.12923407906E+03  0.12509000000E+03 0.  0.
         25    1    3    3    0    0 -0.93100215019E+02 -0.22245450983E+00  0.87321145035E+02  0.17871818596E+03  0.12509000000E+03 0.  0.
<mgrwt>
<rscale>  2 0.44789124E+03</rscale>
<asrwt>0</asrwt>
<pdfrwt beam="1">  1       21 0.50217619E-01 0.44789124E+03</pdfrwt>
<pdfrwt beam="2">  1       21 0.21597884E-01 0.44789124E+03</pdfrwt>
<totfact> 0.69963162E+04</totfact>
</mgrwt>
</event>
<event>
 6    0  0.1576925E-007  0.4620384E+03  0.7546771E-02  0.1024192E+00
         21   -1    0    0  502  501  0.00000000000E+00  0.00000000000E+00  0.17866069554E+03  0.17866069554E+03  0.00000000000E+00 0.  1.
         21   -1    0    0  501  502 -0.00000000000E+00 -0.00000000000E+00 -0.29872191603E+03  0.29872191603E+03  0.00000000000E+00 0.  1.
      99926    2    1    2    0    0  0.00000000000E+00  0.00000000000E+00 -0.12006122049E+03  0.47738261158E+03  0.46203837629E+03 0.  0.
         25    1    3    3    0    0  0.46582773665E+02  0.19151417645E+02  0.98801173464E+01  0.13521041535E+03  0.12509000000E+03 0.  0.
         25    1    3    3    0    0  0.18659614385E+02 -0.43792618677E+01 -0.15289551524E+03  0.19847394243E+03  0.12509000000E+03 0.  0.
         25    1    3    3    0    0 -0.65242388050E+02 -0.14772155777E+02  0.22954177399E+02  0.14369825380E+03  0.12509000000E+03 0.  0.
<mgrwt>
<rscale>  2 0.46203838E+03</rscale>
<asrwt>0</asrwt>
<pdfrwt beam="1">  1       21 0.26273632E-01 0.46203838E+03</pdfrwt>
<pdfrwt beam="2">  1       21 0.43929693E-01 0.46203838E+03</pdfrwt>
<totfact> 0.63282341E+04</totfact>
</mgrwt>
</event>
<event>
 6    0  0.1576925E-007  0.4584187E+03  0.7546771E-02  0.1025241E+00
         21   -1    0    0  502  501  0.00000000000E+00  0.00000000000E+00  0.57405354836E+02  0.57405354836E+02  0.00000000000E+00 0. -1.
         21   -1    0    0  501  502 -0.00000000000E+00 -0.00000000000E+00 -0.91519194482E+03  0.91519194482E+03  0.00000000000E+00 0. -1.
      99926    2    1    2    0    0  0.00000000000E+00  0.00000000000E+00 -0.85778658998E+03  0.97259729965E+03  0.45841866600E+03 0.  0.
         25    1    3    3    0    0 -0.66796804684E+02 -0.19062410972E+02 -0.43418441585E+03  0.45715293250E+03  0.12509000000E+03 0.  0.
         25    1    3    3    0    0  0.96099908700E+02 -0.19165517687E+02 -0.21161762873E+03  0.26463567108E+03  0.12509000000E+03 0.  0.
         25    1    3    3    0    0 -0.29303104016E+02  0.38227928659E+02 -0.21198454540E+03  0.25080869607E+03  0.12509000000E+03 0.  0.
<mgrwt>
<rscale>  2 0.45841867E+03</rscale>
<asrwt>0</asrwt>
<pdfrwt beam="1">  1       21 0.84419639E-02 0.45841867E+03</pdfrwt>
<pdfrwt beam="2">  1       21 0.13458705E+00 0.45841867E+03</pdfrwt>
<totfact> 0.39181362E+04</totfact>
</mgrwt>
</event>
<event>
 6    0  0.1576925E-007  0.4563246E+03  0.7546771E-02  0.1025853E+00
         21   -1    0    0  502  501  0.00000000000E+00  0.00000000000E+00  0.11309155537E+03  0.11309155537E+03  0.00000000000E+00 0.  1.
         21   -1    0    0  501  502 -0.00000000000E+00 -0.00000000000E+00 -0.46031765933E+03  0.46031765933E+03  0.00000000000E+00 0.  1.
      99926    2    1    2    0    0  0.88817841970E-15  0.53290705182E-14 -0.34722610396E+03  0.57340921470E+03  0.45632462154E+03 0.  0.
         25    1    3    3    0    0  0.25902397698E+02 -0.62884997195E+02 -0.17861495371E+02  0.14349912263E+03  0.12509000000E+03 0.  0.
         25    1    3    3    0    0 -0.13156421610E+01 -0.45922506641E+01 -0.20115750364E+03  0.23692756077E+03  0.12509000000E+03 0.  0.
         25    1    3    3    0    0 -0.24586755537E+02  0.67477247859E+02 -0.12820710495E+03  0.19298253130E+03  0.12509000000E+03 0.  0.
<mgrwt>
<rscale>  2 0.45632462E+03</rscale>
<asrwt>0</asrwt>
<pdfrwt beam="1">  1       21 0.16631111E-01 0.45632462E+03</pdfrwt>
<pdfrwt beam="2">  1       21 0.67693774E-01 0.45632462E+03</pdfrwt>
<totfact> 0.59717656E+04</totfact>
</mgrwt>
</event>
<event>
 6    0  0.1576925E-007  0.4573737E+03  0.7546771E-02  0.1025546E+00
         21   -1    0    0  502  501  0.00000000000E+00  0.00000000000E+00  0.35360996654E+03  0.35360996654E+03  0.00000000000E+00 0. -1.
         21   -1    0    0  501  502 -0.00000000000E+00 -0.00000000000E+00 -0.14789651238E+03  0.14789651238E+03  0.00000000000E+00 0. -1.
      99926    2    1    2    0    0  0.17763568394E-14  0.71054273576E-14  0.20571345416E+03  0.50150647893E+03  0.45737372376E+03 0.  0.
         25    1    3    3    0    0 -0.85172806139E+02 -0.14804720024E+02  0.88234341782E+02  0.17580214393E+03  0.12509000000E+03 0.  0.
         25    1    3    3    0    0  0.88998249698E+02  0.51025939188E+02  0.20041517461E+02  0.16301381979E+03  0.12509000000E+03 0.  0.
         25    1    3    3    0    0 -0.38254435587E+01 -0.36221219164E+02  0.97437594918E+02  0.16269051521E+03  0.12509000000E+03 0.  0.
<mgrwt>
<rscale>  2 0.45737372E+03</rscale>
<asrwt>0</asrwt>
<pdfrwt beam="1">  1       21 0.52001465E-01 0.45737372E+03</pdfrwt>
<pdfrwt beam="2">  1       21 0.21749487E-01 0.45737372E+03</pdfrwt>
<totfact> 0.63951418E+04</totfact>
</mgrwt>
</event>
<event>
 6    0  0.1576925E-007  0.4576519E+03  0.7546771E-02  0.1025464E+00
         21   -1    0    0  502  501  0.00000000000E+00  0.00000000000E+00  0.20341652495E+03  0.20341652495E+03  0.00000000000E+00 0.  1.
         21   -1    0    0  501  502 -0.00000000000E+00 -0.00000000000E+00 -0.25740933156E+03  0.25740933156E+03  0.00000000000E+00 0.  1.
      99926    2    1    2    0    0 -0.17763568394E-14 -0.26645352591E-14 -0.53992806620E+02  0.46082585651E+03  0.45765188393E+03 0.  0.
         25    1    3    3    0    0 -0.56726684165E+01 -0.32666521224E+02  0.59208390241E+01  0.12954476142E+03  0.12509000000E+03 0.  0.
         25    1    3    3    0    0 -0.10840618548E+02  0.53496718984E+01  0.73535826695E+02  0.14560619461E+03  0.12509000000E+03 0.  0.
         25    1    3    3    0    0  0.16513286965E+02  0.27316849325E+02 -0.13344947234E+03  0.18567490049E+03  0.12509000000E+03 0.  0.
<mgrwt>
<rscale>  2 0.45765188E+03</rscale>
<asrwt>0</asrwt>
<pdfrwt beam="1">  1       21 0.29914195E-01 0.45765188E+03</pdfrwt>
<pdfrwt beam="2">  1       21 0.37854313E-01 0.45765188E+03</pdfrwt>
<totfact> 0.66698573E+04</totfact>
</mgrwt>
</event>
<event>
 6    0  0.1576925E-007  0.4533384E+03  0.7546771E-02  0.1026731E+00
         21   -1    0    0  502  501  0.00000000000E+00  0.00000000000E+00  0.20020676140E+03  0.20020676140E+03  0.00000000000E+00 0. -1.
         21   -1    0    0  501  502 -0.00000000000E+00 -0.00000000000E+00 -0.25662934139E+03  0.25662934139E+03  0.00000000000E+00 0. -1.
      99926    2    1    2    0    0  0.14210854715E-13  0.28588242884E-14 -0.56422579997E+02  0.45683610279E+03  0.45333841364E+03 0.  0.
         25    1    3    3    0    0 -0.71315116840E+02 -0.95707492705E-01  0.37547298386E+02  0.14880578875E+03  0.12509000000E+03 0.  0.
         25    1    3    3    0    0  0.48820861330E+02  0.66135352303E+02 -0.39638771408E+02  0.15484218296E+03  0.12509000000E+03 0.  0.
         25    1    3    3    0    0  0.22494255510E+02 -0.66039644810E+02 -0.54331106975E+02  0.15318813108E+03  0.12509000000E+03 0.  0.
<mgrwt>
<rscale>  2 0.45333841E+03</rscale>
<asrwt>0</asrwt>
<pdfrwt beam="1">  1       21 0.29442171E-01 0.45333841E+03</pdfrwt>
<pdfrwt beam="2">  1       21 0.37739609E-01 0.45333841E+03</pdfrwt>
<totfact> 0.69325818E+04</totfact>
</mgrwt>
</event>
<event>
 6    0  0.1576925E-007  0.4499121E+03  0.7546771E-02  0.1027748E+00
         21   -1    0    0  502  501  0.00000000000E+00  0.00000000000E+00  0.54186612273E+03  0.54186612273E+03  0.00000000000E+00 0. -1.
         21   -1    0    0  501  502 -0.00000000000E+00 -0.00000000000E+00 -0.93390658585E+02  0.93390658585E+02  0.00000000000E+00 0. -1.
      99926    2    1    2    0    0  0.00000000000E+00 -0.17763568394E-14  0.44847546414E+03  0.63525678131E+03  0.44991214283E+03 0.  0.
         25    1    3    3    0    0 -0.43273181789E+02 -0.23629647247E+02  0.28276613487E+02  0.13739724692E+03  0.12509000000E+03 0.  0.
         25    1    3    3    0    0  0.57645257204E+02 -0.19157676479E+00  0.24052463234E+03  0.27716893629E+03  0.12509000000E+03 0.  0.
         25    1    3    3    0    0 -0.14372075414E+02  0.23821224011E+02  0.17967421831E+03  0.22069059810E+03  0.12509000000E+03 0.  0.
<mgrwt>
<rscale>  2 0.44991214E+03</rscale>
<asrwt>0</asrwt>
<pdfrwt beam="1">  1       21 0.79686193E-01 0.44991214E+03</pdfrwt>
<pdfrwt beam="2">  1       21 0.13733921E-01 0.44991214E+03</pdfrwt>
<totfact> 0.58888246E+04</totfact>
</mgrwt>
</event>
<event>
 6    0  0.1576925E-007  0.4534960E+03  0.7546771E-02  0.1026685E+00
         21   -1    0    0  502  501  0.00000000000E+00  0.00000000000E+00  0.67092361988E+02  0.67092361988E+02  0.00000000000E+00 0.  1.
         21   -1    0    0  501  502 -0.00000000000E+00 -0.00000000000E+00 -0.76632636663E+03  0.76632636663E+03  0.00000000000E+00 0.  1.
      99926    2    1    2    0    0  0.00000000000E+00 -0.88817841970E-15 -0.69923400464E+03  0.83341872862E+03  0.45349595804E+03 0.  0.
         25    1    3    3    0    0 -0.25260295001E+01 -0.11286276091E+02 -0.19906566811E+03  0.23538990882E+03  0.12509000000E+03 0.  0.
         25    1    3    3    0    0 -0.93700851518E+02 -0.43145411183E+01 -0.16543866501E+03  0.22763111567E+03  0.12509000000E+03 0.  0.
         25    1    3    3    0    0  0.96226881018E+02  0.15600817209E+02 -0.33472967153E+03  0.37039770413E+03  0.12509000000E+03 0.  0.
<mgrwt>
<rscale>  2 0.45349596E+03</rscale>
<asrwt>0</asrwt>
<pdfrwt beam="1">  1       21 0.98665238E-02 0.45349596E+03</pdfrwt>
<pdfrwt beam="2">  1       21 0.11269505E+00 0.45349596E+03</pdfrwt>
<totfact> 0.46739582E+04</totfact>
</mgrwt>
</event>
<event>
 6    0  0.1576925E-007  0.4534348E+03  0.7546771E-02  0.1026703E+00
         21   -1    0    0  502  501  0.00000000000E+00  0.00000000000E+00  0.52573664528E+03  0.52573664528E+03  0.00000000000E+00 0. -1.
         21   -1    0    0  501  502 -0.00000000000E+00 -0.00000000000E+00 -0.97769066931E+02  0.97769066931E+02  0.00000000000E+00 0. -1.
      99926    2    1    2    0    0  0.00000000000E+00  0.00000000000E+00  0.42796757835E+03  0.62350571221E+03  0.45343480793E+03 0.  0.
         25    1    3    3    0    0  0.25480043507E+02  0.79466707946E+02  0.22187704518E+03  0.26803194132E+03  0.12509000000E+03 0.  0.
         25    1    3    3    0    0 -0.20499834330E+02 -0.19090877437E+02  0.30924819907E+02  0.13186567937E+03  0.12509000000E+03 0.  0.
         25    1    3    3    0    0 -0.49802091766E+01 -0.60375830509E+02  0.17516571326E+03  0.22360809152E+03  0.12509000000E+03 0.  0.
<mgrwt>
<rscale>  2 0.45343481E+03</rscale>
<asrwt>0</asrwt>
<pdfrwt beam="1">  1       21 0.77314211E-01 0.45343481E+03</pdfrwt>
<pdfrwt beam="2">  1       21 0.14377804E-01 0.45343481E+03</pdfrwt>
<totfact> 0.57967316E+04</totfact>
</mgrwt>
</event>
<event>
 6    0  0.1576925E-007  0.4627026E+03  0.7546771E-02  0.1024000E+00
         21   -1    0    0  502  501  0.00000000000E+00  0.00000000000E+00  0.52615580663E+02  0.52615580663E+02  0.00000000000E+00 0.  1.
         21   -1    0    0  501  502 -0.00000000000E+00 -0.00000000000E+00 -0.10172541035E+04  0.10172541035E+04  0.00000000000E+00 0.  1.
      99926    2    1    2    0    0  0.17763568394E-14  0.22204460493E-15 -0.96463852280E+03  0.10698696841E+04  0.46270256250E+03 0.  0.
         25    1    3    3    0    0  0.89859775230E+01 -0.16635085128E+01 -0.58074724978E+03  0.59413667727E+03  0.12509000000E+03 0.  0.
         25    1    3    3    0    0  0.12449081655E+02  0.66916574375E+01 -0.87600289856E+02  0.15336582669E+03  0.12509000000E+03 0.  0.
         25    1    3    3    0    0 -0.21435059178E+02 -0.50281489247E+01 -0.29629098316E+03  0.32236718016E+03  0.12509000000E+03 0.  0.
<mgrwt>
<rscale>  2 0.46270256E+03</rscale>
<asrwt>0</asrwt>
<pdfrwt beam="1">  1       21 0.77375855E-02 0.46270256E+03</pdfrwt>
<pdfrwt beam="2">  1       21 0.14959619E+00 0.46270256E+03</pdfrwt>
<totfact> 0.34439512E+04</totfact>
</mgrwt>
</event>
<event>
 6    0  0.1576925E-007  0.4587764E+03  0.7546771E-02  0.1025137E+00
         21   -1    0    0  502  501  0.00000000000E+00  0.00000000000E+00  0.14540273415E+04  0.14540273415E+04  0.00000000000E+00 0. -1.
         21   -1    0    0  501  502 -0.00000000000E+00 -0.00000000000E+00 -0.36188423342E+02  0.36188423342E+02  0.00000000000E+00 0. -1.
      99926    2    1    2    0    0 -0.71054273576E-14  0.00000000000E+00  0.14178389182E+04  0.14902157648E+04  0.45877644658E+03 0.  0.
         25    1    3    3    0    0 -0.24895693631E+02 -0.74225312417E+02  0.50695593386E+03  0.52799717758E+03  0.12509000000E+03 0.  0.
         25    1    3    3    0    0 -0.58087244729E+02  0.45364408417E+02  0.57734042619E+03  0.59531633051E+03  0.12509000000E+03 0.  0.
         25    1    3    3    0    0  0.82982938360E+02  0.28860904000E+02  0.33354255810E+03  0.36690225674E+03  0.12509000000E+03 0.  0.
<mgrwt>
<rscale>  2 0.45877645E+03</rscale>
<asrwt>0</asrwt>
<pdfrwt beam="1">  1       21 0.21382751E+00 0.45877645E+03</pdfrwt>
<pdfrwt beam="2">  1       21 0.53218279E-02 0.45877645E+03</pdfrwt>
<totfact> 0.23328111E+04</totfact>
</mgrwt>
</event>
<event>
 6    0  0.1576925E-007  0.4527756E+03  0.7546771E-02  0.1026898E+00
         21   -1    0    0  502  501  0.00000000000E+00  0.00000000000E+00  0.16912263083E+03  0.16912263083E+03  0.00000000000E+00 0. -1.
         21   -1    0    0  501  502 -0.00000000000E+00 -0.00000000000E+00 -0.30304307991E+03  0.30304307991E+03  0.00000000000E+00 0. -1.
      99926    2    1    2    0    0  0.00000000000E+00  0.22204460493E-14 -0.13392044908E+03  0.47216571074E+03  0.45277563066E+03 0.  0.
         25    1    3    3    0    0  0.21353955649E+02  0.30411484334E+02  0.27963160710E+01  0.13052270793E+03  0.12509000000E+03 0.  0.
         25    1    3    3    0    0 -0.48360884435E+02 -0.33023715754E+02  0.19713756330E+02  0.13951874868E+03  0.12509000000E+03 0.  0.
         25    1    3    3    0    0  0.27006928785E+02  0.26122314203E+01 -0.15643052148E+03  0.20212425413E+03  0.12509000000E+03 0.  0.
<mgrwt>
<rscale>  2 0.45277563E+03</rscale>
<asrwt>0</asrwt>
<pdfrwt beam="1">  1       21 0.24870975E-01 0.45277563E+03</pdfrwt>
<pdfrwt beam="2">  1       21 0.44565158E-01 0.45277563E+03</pdfrwt>
<totfact> 0.68475671E+04</totfact>
</mgrwt>
</event>
<event>
 6    0  0.1576925E-007  0.4644893E+03  0.7546771E-02  0.1023487E+00
         21   -1    0    0  502  501  0.00000000000E+00  0.00000000000E+00  0.99763235973E+02  0.99763235973E+02  0.00000000000E+00 0. -1.
         21   -1    0    0  501  502 -0.00000000000E+00 -0.00000000000E+00 -0.54065591179E+03  0.54065591179E+03  0.00000000000E+00 0. -1.
      99926    2    1    2    0    0  0.71054273576E-14 -0.44408920985E-15 -0.44089267581E+03  0.64041914776E+03  0.46448932521E+03 0.  0.
         25    1    3    3    0    0 -0.45103780758E+02  0.25074435601E+02 -0.64930426661E+02  0.15008846313E+03  0.12509000000E+03 0.  0.
         25    1    3    3    0    0 -0.63272716626E+02 -0.24270591302E+01 -0.11928589993E+03  0.18408139859E+03  0.12509000000E+03 0.  0.
         25    1    3    3    0    0  0.10837649738E+03 -0.22647376471E+02 -0.25667634922E+03  0.30624928604E+03  0.12509000000E+03 0.  0.
<mgrwt>
<rscale>  2 0.46448933E+03</rscale>
<asrwt>0</asrwt>
<pdfrwt beam="1">  1       21 0.14671064E-01 0.46448933E+03</pdfrwt>
<pdfrwt beam="2">  1       21 0.79508221E-01 0.46448933E+03</pdfrwt>
<totfact> 0.52233760E+04</totfact>
</mgrwt>
</event>
<event>
 6    0  0.1576925E-007  0.4378826E+03  0.7546771E-02  0.1031398E+00
         21   -1    0    0  502  501  0.00000000000E+00  0.00000000000E+00  0.38680867729E+03  0.38680867729E+03  0.00000000000E+00 0. -1.
         21   -1    0    0  501  502 -0.00000000000E+00 -0.00000000000E+00 -0.12392505939E+03  0.12392505939E+03  0.00000000000E+00 0. -1.
      99926    2    1    2    0    0  0.00000000000E+00 -0.17763568394E-14  0.26288361789E+03  0.51073373668E+03  0.43788257927E+03 0.  0.
         25    1    3    3    0    0  0.90717517498E+02 -0.12843153952E+02  0.14653095011E+03  0.21333879634E+03  0.12509000000E+03 0.  0.
         25    1    3    3    0    0 -0.71190963443E+02  0.15805584325E+02  0.42996349846E+02  0.15104358302E+03  0.12509000000E+03 0.  0.
         25    1    3    3    0    0 -0.19526554056E+02 -0.29624303725E+01  0.73356317932E+02  0.14635135731E+03  0.12509000000E+03 0.  0.
<mgrwt>
<rscale>  2 0.43788258E+03</rscale>
<asrwt>0</asrwt>
<pdfrwt beam="1">  1       21 0.56883629E-01 0.43788258E+03</pdfrwt>
<pdfrwt beam="2">  1       21 0.18224274E-01 0.43788258E+03</pdfrwt>
<totfact> 0.74080857E+04</totfact>
</mgrwt>
</event>
<event>
 6    0  0.1576925E-007  0.4533966E+03  0.7546771E-02  0.1026714E+00
         21   -1    0    0  502  501  0.00000000000E+00  0.00000000000E+00  0.17063911825E+03  0.17063911825E+03  0.00000000000E+00 0. -1.
         21   -1    0    0  501  502 -0.00000000000E+00 -0.00000000000E+00 -0.30117426801E+03  0.30117426801E+03  0.00000000000E+00 0. -1.
      99926    2    1    2    0    0  0.00000000000E+00  0.14210854715E-13 -0.13053514977E+03  0.47181338626E+03  0.45339656607E+03 0.  0.
         25    1    3    3    0    0 -0.78486626792E+02  0.61429066283E+02 -0.35448352036E+02  0.16382238715E+03  0.12509000000E+03 0.  0.
         25    1    3    3    0    0  0.32927413100E+02 -0.75835749190E+02 -0.12043525594E+02  0.15042549650E+03  0.12509000000E+03 0.  0.
         25    1    3    3    0    0  0.45559213692E+02  0.14406682908E+02 -0.83043272139E+02  0.15756550261E+03  0.12509000000E+03 0.  0.
<mgrwt>
<rscale>  2 0.45339657E+03</rscale>
<asrwt>0</asrwt>
<pdfrwt beam="1">  1       21 0.25093988E-01 0.45339657E+03</pdfrwt>
<pdfrwt beam="2">  1       21 0.44290333E-01 0.45339657E+03</pdfrwt>
<totfact> 0.68164206E+04</totfact>
</mgrwt>
</event>
<event>
 6    0  0.1576925E-007  0.4524626E+03  0.7546771E-02  0.1026990E+00
         21   -1    0    0  502  501  0.00000000000E+00  0.00000000000E+00  0.75191643107E+02  0.75191643107E+02  0.00000000000E+00 0. -1.
         21   -1    0    0  501  502 -0.00000000000E+00 -0.00000000000E+00 -0.68066867295E+03  0.68066867295E+03  0.00000000000E+00 0. -1.
      99926    2    1    2    0    0  0.35527136788E-14  0.00000000000E+00 -0.60547702985E+03  0.75586031606E+03  0.45246257715E+03 0.  0.
         25    1    3    3    0    0 -0.61652955468E+02 -0.90870810646E+02 -0.24884504927E+03  0.29938262773E+03  0.12509000000E+03 0.  0.
         25    1    3    3    0    0  0.34967123321E+02  0.14392420126E+02 -0.12362744242E+03  0.17989189556E+03  0.12509000000E+03 0.  0.
         25    1    3    3    0    0  0.26685832147E+02  0.76478390519E+02 -0.23300453816E+03  0.27658579276E+03  0.12509000000E+03 0.  0.
<mgrwt>
<rscale>  2 0.45246258E+03</rscale>
<asrwt>0</asrwt>
<pdfrwt beam="1">  1       21 0.11057594E-01 0.45246258E+03</pdfrwt>
<pdfrwt beam="2">  1       21 0.10009834E+00 0.45246258E+03</pdfrwt>
<totfact> 0.50981285E+04</totfact>
</mgrwt>
</event>
<event>
 6    0  0.1576925E-007  0.4526795E+03  0.7546771E-02  0.1026926E+00
         21   -1    0    0  502  501  0.00000000000E+00  0.00000000000E+00  0.22644996500E+04  0.22644996500E+04  0.00000000000E+00 0.  1.
         21   -1    0    0  501  502 -0.00000000000E+00 -0.00000000000E+00 -0.22622963781E+02  0.22622963781E+02  0.00000000000E+00 0.  1.
      99926    2    1    2    0    0  0.00000000000E+00  0.00000000000E+00  0.22418766862E+04  0.22871226137E+04  0.45267954919E+03 0.  0.
         25    1    3    3    0    0  0.56117099821E+02  0.62387869755E+02  0.96488446477E+03  0.97657099774E+03  0.12509000000E+03 0.  0.
         25    1    3    3    0    0 -0.45446045550E+02 -0.77552462792E+02  0.89536535829E+03  0.90851877277E+03  0.12509000000E+03 0.  0.
         25    1    3    3    0    0 -0.10671054272E+02  0.15164593037E+02  0.38162686312E+03  0.40203284323E+03  0.12509000000E+03 0.  0.
<mgrwt>
<rscale>  2 0.45267955E+03</rscale>
<asrwt>0</asrwt>
<pdfrwt beam="1">  1       21 0.33301450E+00 0.45267955E+03</pdfrwt>
<pdfrwt beam="2">  1       21 0.33269080E-02 0.45267955E+03</pdfrwt>
<totfact> 0.97371925E+03</totfact>
</mgrwt>
</event>
<event>
 6    0  0.1576925E-007  0.4783414E+03  0.7546771E-02  0.1019592E+00
         21   -1    0    0  502  501  0.00000000000E+00  0.00000000000E+00  0.30143363377E+03  0.30143363377E+03  0.00000000000E+00 0.  1.
         21   -1    0    0  501  502 -0.00000000000E+00 -0.00000000000E+00 -0.18976857743E+03  0.18976857743E+03  0.00000000000E+00 0.  1.
      99926    2    1    2    0    0  0.00000000000E+00  0.00000000000E+00  0.11166505635E+03  0.49120221120E+03  0.47834143400E+03 0.  0.
         25    1    3    3    0    0 -0.59975137583E+02 -0.70344198035E+02  0.83653447428E+02  0.17660897682E+03  0.12509000000E+03 0.  0.
         25    1    3    3    0    0  0.68521268794E+02 -0.34347569177E+02 -0.94510032763E+01  0.14700935123E+03  0.12509000000E+03 0.  0.
         25    1    3    3    0    0 -0.85461312106E+01  0.10469176721E+03  0.37462612197E+02  0.16758388316E+03  0.12509000000E+03 0.  0.
<mgrwt>
<rscale>  2 0.47834143E+03</rscale>
<asrwt>0</asrwt>
<pdfrwt beam="1">  1       21 0.44328475E-01 0.47834143E+03</pdfrwt>
<pdfrwt beam="2">  1       21 0.27907144E-01 0.47834143E+03</pdfrwt>
<totfact> 0.54977865E+04</totfact>
</mgrwt>
</event>
<event>
 6    0  0.1576925E-007  0.4536762E+03  0.7546771E-02  0.1026631E+00
         21   -1    0    0  502  501  0.00000000000E+00  0.00000000000E+00  0.20536338564E+03  0.20536338564E+03  0.00000000000E+00 0.  1.
         21   -1    0    0  501  502 -0.00000000000E+00 -0.00000000000E+00 -0.25055842153E+03  0.25055842153E+03  0.00000000000E+00 0.  1.
      99926    2    1    2    0    0 -0.88817841970E-15  0.00000000000E+00 -0.45195035895E+02  0.45592180717E+03  0.45367620941E+03 0.  0.
         25    1    3    3    0    0 -0.55450668107E+01  0.25689024138E+02  0.37280405218E+02  0.13314657502E+03  0.12509000000E+03 0.  0.
         25    1    3    3    0    0  0.41969792718E+01  0.41655309818E+02  0.37156288078E+02  0.13704334101E+03  0.12509000000E+03 0.  0.
         25    1    3    3    0    0  0.13480875389E+01 -0.67344333955E+02 -0.11963172919E+03  0.18573189114E+03  0.12509000000E+03 0.  0.
<mgrwt>
<rscale>  2 0.45367621E+03</rscale>
<asrwt>0</asrwt>
<pdfrwt beam="1">  1       21 0.30200498E-01 0.45367621E+03</pdfrwt>
<pdfrwt beam="2">  1       21 0.36846826E-01 0.45367621E+03</pdfrwt>
<totfact> 0.69206377E+04</totfact>
</mgrwt>
</event>
<event>
 6    0  0.1576925E-007  0.4520316E+03  0.7546771E-02  0.1027118E+00
         21   -1    0    0  502  501  0.00000000000E+00  0.00000000000E+00  0.19915280225E+03  0.19915280225E+03  0.00000000000E+00 0. -1.
         21   -1    0    0  501  502 -0.00000000000E+00 -0.00000000000E+00 -0.25650226566E+03  0.25650226566E+03  0.00000000000E+00 0. -1.
      99926    2    1    2    0    0  0.00000000000E+00  0.00000000000E+00 -0.57349463409E+02  0.45565506791E+03  0.45203161389E+03 0.  0.
         25    1    3    3    0    0  0.10870523780E+03 -0.21486116944E+01 -0.27019411869E+01  0.16575962670E+03  0.12509000000E+03 0.  0.
         25    1    3    3    0    0 -0.63851859976E+02  0.40843109441E+02 -0.30117631875E+02  0.14933117377E+03  0.12509000000E+03 0.  0.
         25    1    3    3    0    0 -0.44853377823E+02 -0.38694497746E+02 -0.24529890347E+02  0.14056426743E+03  0.12509000000E+03 0.  0.
<mgrwt>
<rscale>  2 0.45203161E+03</rscale>
<asrwt>0</asrwt>
<pdfrwt beam="1">  1       21 0.29287177E-01 0.45203161E+03</pdfrwt>
<pdfrwt beam="2">  1       21 0.37720921E-01 0.45203161E+03</pdfrwt>
<totfact> 0.70144196E+04</totfact>
</mgrwt>
</event>
<event>
 6    0  0.1576925E-007  0.4681602E+03  0.7546771E-02  0.1022441E+00
         21   -1    0    0  502  501  0.00000000000E+00  0.00000000000E+00  0.33484055282E+02  0.33484055282E+02  0.00000000000E+00 0. -1.
         21   -1    0    0  501  502 -0.00000000000E+00 -0.00000000000E+00 -0.16364057144E+04  0.16364057144E+04  0.00000000000E+00 0. -1.
      99926    2    1    2    0    0  0.00000000000E+00 -0.71054273576E-14 -0.16029216591E+04  0.16698897697E+04  0.46816022644E+03 0.  0.
         25    1    3    3    0    0 -0.53354978012E+02  0.49706012411E+02 -0.35865945340E+03  0.38678359966E+03  0.12509000000E+03 0.  0.
         25    1    3    3    0    0 -0.20946687744E+01 -0.10730849487E+03 -0.64412225003E+03  0.66487629059E+03  0.12509000000E+03 0.  0.
         25    1    3    3    0    0  0.55449646786E+02  0.57602482455E+02 -0.60013995566E+03  0.61822987941E+03  0.12509000000E+03 0.  0.
<mgrwt>
<rscale>  2 0.46816023E+03</rscale>
<asrwt>0</asrwt>
<pdfrwt beam="1">  1       21 0.49241235E-02 0.46816023E+03</pdfrwt>
<pdfrwt beam="2">  1       21 0.24064801E+00 0.46816023E+03</pdfrwt>
<totfact> 0.17986376E+04</totfact>
</mgrwt>
</event>
<event>
 6    0  0.1576925E-007  0.4544334E+03  0.7546771E-02  0.1026408E+00
         21   -1    0    0  502  501  0.00000000000E+00  0.00000000000E+00  0.21208397817E+03  0.21208397817E+03  0.00000000000E+00 0. -1.
         21   -1    0    0  501  502 -0.00000000000E+00 -0.00000000000E+00 -0.24342916167E+03  0.24342916167E+03  0.00000000000E+00 0. -1.
      99926    2    1    2    0    0  0.00000000000E+00  0.00000000000E+00 -0.31345183501E+02  0.45551313984E+03  0.45443338350E+03 0.  0.
         25    1    3    3    0    0 -0.42215715018E+02 -0.39850150279E+02 -0.64627499157E+02  0.15229715302E+03  0.12509000000E+03 0.  0.
         25    1    3    3    0    0  0.92328202987E+02  0.44896775886E+02 -0.84800030293E+01  0.16204825239E+03  0.12509000000E+03 0.  0.
         25    1    3    3    0    0 -0.50112487969E+02 -0.50466256068E+01  0.41762318685E+02  0.14116773442E+03  0.12509000000E+03 0.  0.
<mgrwt>
<rscale>  2 0.45443338E+03</rscale>
<asrwt>0</asrwt>
<pdfrwt beam="1">  1       21 0.31188821E-01 0.45443338E+03</pdfrwt>
<pdfrwt beam="2">  1       21 0.35798406E-01 0.45443338E+03</pdfrwt>
<totfact> 0.68818851E+04</totfact>
</mgrwt>
</event>
<event>
 6    0  0.1576925E-007  0.4533423E+03  0.7546771E-02  0.1026730E+00
         21   -1    0    0  502  501  0.00000000000E+00  0.00000000000E+00  0.19955816997E+03  0.19955816997E+03  0.00000000000E+00 0. -1.
         21   -1    0    0  501  502 -0.00000000000E+00 -0.00000000000E+00 -0.25746782477E+03  0.25746782477E+03  0.00000000000E+00 0. -1.
      99926    2    1    2    0    0  0.53290705182E-14  0.35527136788E-14 -0.57909654806E+02  0.45702599474E+03  0.45334228983E+03 0.  0.
         25    1    3    3    0    0 -0.11922219027E+02  0.22955206657E+02 -0.27588530746E+01  0.12776619345E+03  0.12509000000E+03 0.  0.
         25    1    3    3    0    0 -0.56624137067E+02 -0.72743692629E+02  0.26338723477E+02  0.15760448652E+03  0.12509000000E+03 0.  0.
         25    1    3    3    0    0  0.68546356094E+02  0.49788485972E+02 -0.81489525209E+02  0.17165531477E+03  0.12509000000E+03 0.  0.
<mgrwt>
<rscale>  2 0.45334229E+03</rscale>
<asrwt>0</asrwt>
<pdfrwt beam="1">  1       21 0.29346790E-01 0.45334229E+03</pdfrwt>
<pdfrwt beam="2">  1       21 0.37862915E-01 0.45334229E+03</pdfrwt>
<totfact> 0.69309581E+04</totfact>
</mgrwt>
</event>
<event>
 6    0  0.1576925E-007  0.4574658E+03  0.7546771E-02  0.1025519E+00
         21   -1    0    0  502  501  0.00000000000E+00  0.00000000000E+00  0.74357632023E+03  0.74357632023E+03  0.00000000000E+00 0. -1.
         21   -1    0    0  501  502 -0.00000000000E+00 -0.00000000000E+00 -0.70360942187E+02  0.70360942187E+02  0.00000000000E+00 0. -1.
      99926    2    1    2    0    0  0.00000000000E+00  0.35527136788E-14  0.67321537804E+03  0.81393726242E+03  0.45746576038E+03 0.  0.
         25    1    3    3    0    0  0.52585669759E+02 -0.58248218644E+02  0.24183159302E+03  0.28335161041E+03  0.12509000000E+03 0.  0.
         25    1    3    3    0    0  0.56095805119E+02  0.18060119433E+02  0.20078192930E+03  0.24379048074E+03  0.12509000000E+03 0.  0.
         25    1    3    3    0    0 -0.10868147488E+03  0.40188099211E+02  0.23060185573E+03  0.28679517127E+03  0.12509000000E+03 0.  0.
<mgrwt>
<rscale>  2 0.45746576E+03</rscale>
<asrwt>0</asrwt>
<pdfrwt beam="1">  1       21 0.10934945E+00 0.45746576E+03</pdfrwt>
<pdfrwt beam="2">  1       21 0.10347198E-01 0.45746576E+03</pdfrwt>
<totfact> 0.46197683E+04</totfact>
</mgrwt>
</event>
<event>
 6    0  0.1576925E-007  0.4557661E+03  0.7546771E-02  0.1026016E+00
         21   -1    0    0  502  501  0.00000000000E+00  0.00000000000E+00  0.11398087956E+03  0.11398087956E+03  0.00000000000E+00 0. -1.
         21   -1    0    0  501  502 -0.00000000000E+00 -0.00000000000E+00 -0.45560864043E+03  0.45560864043E+03  0.00000000000E+00 0. -1.
      99926    2    1    2    0    0  0.00000000000E+00 -0.17763568394E-14 -0.34162776087E+03  0.56958951999E+03  0.45576605214E+03 0.  0.
         25    1    3    3    0    0 -0.30999140218E+02 -0.67724321773E+02 -0.10230815090E+03  0.17793818110E+03  0.12509000000E+03 0.  0.
         25    1    3    3    0    0  0.77459650610E+02  0.80993949950E+01 -0.18316561110E+03  0.23508029875E+03  0.12509000000E+03 0.  0.
         25    1    3    3    0    0 -0.46460510392E+02  0.59624926778E+02 -0.56153998877E+02  0.15657104014E+03  0.12509000000E+03 0.  0.
<mgrwt>
<rscale>  2 0.45576605E+03</rscale>
<asrwt>0</asrwt>
<pdfrwt beam="1">  1       21 0.16761894E-01 0.45576605E+03</pdfrwt>
<pdfrwt beam="2">  1       21 0.67001271E-01 0.45576605E+03</pdfrwt>
<totfact> 0.60224616E+04</totfact>
</mgrwt>
</event>
<event>
 6    0  0.1576925E-007  0.4778620E+03  0.7546771E-02  0.1019724E+00
         21   -1    0    0  502  501  0.00000000000E+00  0.00000000000E+00  0.83116059465E+02  0.83116059465E+02  0.00000000000E+00 0.  1.
         21   -1    0    0  501  502 -0.00000000000E+00 -0.00000000000E+00 -0.68684712477E+03  0.68684712477E+03  0.00000000000E+00 0.  1.
      99926    2    1    2    0    0 -0.71054273576E-14  0.35527136788E-14 -0.60373106530E+03  0.76996318423E+03  0.47786201551E+03 0.  0.
         25    1    3    3    0    0  0.88398189287E+02 -0.82626709958E+02 -0.17832424845E+03  0.24917555809E+03  0.12509000000E+03 0.  0.
         25    1    3    3    0    0 -0.41378468277E+02  0.86830278411E+02 -0.29202979737E+03  0.33193461033E+03  0.12509000000E+03 0.  0.
         25    1    3    3    0    0 -0.47019721010E+02 -0.42035684530E+01 -0.13337701949E+03  0.18885301581E+03  0.12509000000E+03 0.  0.
<mgrwt>
<rscale>  2 0.47786202E+03</rscale>
<asrwt>0</asrwt>
<pdfrwt beam="1">  1       21 0.12222950E-01 0.47786202E+03</pdfrwt>
<pdfrwt beam="2">  1       21 0.10100693E+00 0.47786202E+03</pdfrwt>
<totfact> 0.41321708E+04</totfact>
</mgrwt>
</event>
<event>
 6    0  0.1576925E-007  0.4567919E+03  0.7546771E-02  0.1025716E+00
         21   -1    0    0  502  501  0.00000000000E+00  0.00000000000E+00  0.11213239246E+03  0.11213239246E+03  0.00000000000E+00 0.  1.
         21   -1    0    0  501  502 -0.00000000000E+00 -0.00000000000E+00 -0.46520640267E+03  0.46520640267E+03  0.00000000000E+00 0.  1.
      99926    2    1    2    0    0 -0.71054273576E-14  0.00000000000E+00 -0.35307401021E+03  0.57733879513E+03  0.45679188661E+03 0.  0.
         25    1    3    3    0    0  0.55820766430E+02  0.12347764290E+01 -0.24302148763E+02  0.13912435147E+03  0.12509000000E+03 0.  0.
         25    1    3    3    0    0  0.18537169967E+02 -0.12200727078E+01 -0.22956653845E+03  0.26209429395E+03  0.12509000000E+03 0.  0.
         25    1    3    3    0    0 -0.74357936396E+02 -0.14703721238E-01 -0.99205323001E+02  0.17612014971E+03  0.12509000000E+03 0.  0.
<mgrwt>
<rscale>  2 0.45679189E+03</rscale>
<asrwt>0</asrwt>
<pdfrwt beam="1">  1       21 0.16490058E-01 0.45679189E+03</pdfrwt>
<pdfrwt beam="2">  1       21 0.68412707E-01 0.45679189E+03</pdfrwt>
<totfact> 0.59251364E+04</totfact>
</mgrwt>
</event>
<event>
 6    0  0.1576925E-007  0.4457098E+03  0.7546771E-02  0.1029009E+00
         21   -1    0    0  502  501  0.00000000000E+00  0.00000000000E+00  0.18545865237E+03  0.18545865237E+03  0.00000000000E+00 0. -1.
         21   -1    0    0  501  502 -0.00000000000E+00 -0.00000000000E+00 -0.26779177330E+03  0.26779177330E+03  0.00000000000E+00 0. -1.
      99926    2    1    2    0    0  0.00000000000E+00  0.71054273576E-14 -0.82333120931E+02  0.45325042568E+03  0.44570977729E+03 0.  0.
         25    1    3    3    0    0 -0.97179060968E+01  0.19252790311E+01  0.64984392265E+02  0.14131038085E+03  0.12509000000E+03 0.  0.
         25    1    3    3    0    0 -0.20314696214E+02  0.45314787319E+02 -0.48805067891E+02  0.14316270319E+03  0.12509000000E+03 0.  0.
         25    1    3    3    0    0  0.30032602311E+02 -0.47240066350E+02 -0.98512445304E+02  0.16877734164E+03  0.12509000000E+03 0.  0.
<mgrwt>
<rscale>  2 0.44570978E+03</rscale>
<asrwt>0</asrwt>
<pdfrwt beam="1">  1       21 0.27273331E-01 0.44570978E+03</pdfrwt>
<pdfrwt beam="2">  1       21 0.39381143E-01 0.44570978E+03</pdfrwt>
<totfact> 0.74007532E+04</totfact>
</mgrwt>
</event>
<event>
 6    0  0.1576925E-007  0.4544763E+03  0.7546771E-02  0.1026396E+00
         21   -1    0    0  502  501  0.00000000000E+00  0.00000000000E+00  0.10945836003E+03  0.10945836003E+03  0.00000000000E+00 0. -1.
         21   -1    0    0  501  502 -0.00000000000E+00 -0.00000000000E+00 -0.47175178282E+03  0.47175178282E+03  0.00000000000E+00 0. -1.
      99926    2    1    2    0    0  0.35527136788E-14 -0.14210854715E-13 -0.36229342279E+03  0.58121014285E+03  0.45447629856E+03 0.  0.
         25    1    3    3    0    0  0.23619935061E+02 -0.75059710505E+02 -0.14638689622E+03  0.20801080010E+03  0.12509000000E+03 0.  0.
         25    1    3    3    0    0  0.11340542942E+02  0.62640487084E+02 -0.19621270605E+03  0.24124546141E+03  0.12509000000E+03 0.  0.
         25    1    3    3    0    0 -0.34960478003E+02  0.12419223421E+02 -0.19693820522E+02  0.13195388133E+03  0.12509000000E+03 0.  0.
<mgrwt>
<rscale>  2 0.45447630E+03</rscale>
<asrwt>0</asrwt>
<pdfrwt beam="1">  1       21 0.16096818E-01 0.45447630E+03</pdfrwt>
<pdfrwt beam="2">  1       21 0.69375262E-01 0.45447630E+03</pdfrwt>
<totfact> 0.60098424E+04</totfact>
</mgrwt>
</event>
<event>
 6    0  0.1576925E-007  0.4595849E+03  0.7546771E-02  0.1024902E+00
         21   -1    0    0  502  501  0.00000000000E+00  0.00000000000E+00  0.47640744173E+02  0.47640744173E+02  0.00000000000E+00 0. -1.
         21   -1    0    0  501  502 -0.00000000000E+00 -0.00000000000E+00 -0.11083911881E+04  0.11083911881E+04  0.00000000000E+00 0. -1.
      99926    2    1    2    0    0 -0.35527136788E-14  0.00000000000E+00 -0.10607504439E+04  0.11560319323E+04  0.45958494769E+03 0.  0.
         25    1    3    3    0    0  0.36807802383E+01 -0.37763548593E+02 -0.21188605377E+03  0.24896353474E+03  0.12509000000E+03 0.  0.
         25    1    3    3    0    0 -0.86431942912E+02  0.49686278331E+02 -0.32827371537E+03  0.36517166828E+03  0.12509000000E+03 0.  0.
         25    1    3    3    0    0  0.82751162674E+02 -0.11922729738E+02 -0.52059067476E+03  0.54189672923E+03  0.12509000000E+03 0.  0.
<mgrwt>
<rscale>  2 0.45958495E+03</rscale>
<asrwt>0</asrwt>
<pdfrwt beam="1">  1       21 0.70059927E-02 0.45958495E+03</pdfrwt>
<pdfrwt beam="2">  1       21 0.16299868E+00 0.45958495E+03</pdfrwt>
<totfact> 0.32408046E+04</totfact>
</mgrwt>
</event>
<event>
 6    0  0.1576925E-007  0.4621554E+03  0.7546771E-02  0.1024158E+00
         21   -1    0    0  502  501  0.00000000000E+00  0.00000000000E+00  0.72058665522E+02  0.72058665522E+02  0.00000000000E+00 0. -1.
         21   -1    0    0  501  502 -0.00000000000E+00 -0.00000000000E+00 -0.74101986710E+03  0.74101986710E+03  0.00000000000E+00 0. -1.
      99926    2    1    2    0    0 -0.44408920985E-14 -0.35527136788E-14 -0.66896120158E+03  0.81307853263E+03  0.46215539702E+03 0.  0.
         25    1    3    3    0    0 -0.22194980589E+01  0.16114437220E+02 -0.35294851703E+03  0.37481297340E+03  0.12509000000E+03 0.  0.
         25    1    3    3    0    0  0.49231599317E+02 -0.76642272316E+02 -0.18860809909E+03  0.24396375022E+03  0.12509000000E+03 0.  0.
         25    1    3    3    0    0 -0.47012101258E+02  0.60527835096E+02 -0.12740458546E+03  0.19430180901E+03  0.12509000000E+03 0.  0.
<mgrwt>
<rscale>  2 0.46215540E+03</rscale>
<asrwt>0</asrwt>
<pdfrwt beam="1">  1       21 0.10596863E-01 0.46215540E+03</pdfrwt>
<pdfrwt beam="2">  1       21 0.10897351E+00 0.46215540E+03</pdfrwt>
<totfact> 0.44582267E+04</totfact>
</mgrwt>
</event>
<event>
 6    0  0.1576925E-007  0.4526590E+03  0.7546771E-02  0.1026932E+00
         21   -1    0    0  502  501  0.00000000000E+00  0.00000000000E+00  0.18760916886E+03  0.18760916886E+03  0.00000000000E+00 0. -1.
         21   -1    0    0  501  502 -0.00000000000E+00 -0.00000000000E+00 -0.27304129568E+03  0.27304129568E+03  0.00000000000E+00 0. -1.
      99926    2    1    2    0    0 -0.14210854715E-13  0.00000000000E+00 -0.85432126820E+02  0.46065046454E+03  0.45265903525E+03 0.  0.
         25    1    3    3    0    0 -0.25902790137E+02  0.89841269043E+02 -0.47972435977E+02  0.16337463351E+03  0.12509000000E+03 0.  0.
         25    1    3    3    0    0  0.65879686836E+02 -0.47365727806E+02 -0.53315887335E+02  0.15834688898E+03  0.12509000000E+03 0.  0.
         25    1    3    3    0    0 -0.39976896699E+02 -0.42475541237E+02  0.15856196493E+02  0.13892894205E+03  0.12509000000E+03 0.  0.
<mgrwt>
<rscale>  2 0.45265904E+03</rscale>
<asrwt>0</asrwt>
<pdfrwt beam="1">  1       21 0.27589584E-01 0.45265904E+03</pdfrwt>
<pdfrwt beam="2">  1       21 0.40153131E-01 0.45265904E+03</pdfrwt>
<totfact> 0.69417080E+04</totfact>
</mgrwt>
</event>
<event>
 6    0  0.1576925E-007  0.4785162E+03  0.7546771E-02  0.1019544E+00
         21   -1    0    0  502  501  0.00000000000E+00  0.00000000000E+00  0.59941305706E+02  0.59941305706E+02  0.00000000000E+00 0. -1.
         21   -1    0    0  501  502 -0.00000000000E+00 -0.00000000000E+00 -0.95500828003E+03  0.95500828003E+03  0.00000000000E+00 0. -1.
      99926    2    1    2    0    0  0.35527136788E-14  0.00000000000E+00 -0.89506697432E+03  0.10149495857E+04  0.47851622027E+03 0.  0.
         25    1    3    3    0    0 -0.34988646985E+02  0.99302335105E+01 -0.33932865008E+03  0.36347524788E+03  0.12509000000E+03 0.  0.
         25    1    3    3    0    0  0.45835005683E+02 -0.59847746468E+02 -0.46826739857E+03  0.49051449027E+03  0.12509000000E+03 0.  0.
         25    1    3    3    0    0 -0.10846358698E+02  0.49917512958E+02 -0.87470925678E+02  0.16095984759E+03  0.12509000000E+03 0.  0.
<mgrwt>
<rscale>  2 0.47851622E+03</rscale>
<asrwt>0</asrwt>
<pdfrwt beam="1">  1       21 0.88148980E-02 0.47851622E+03</pdfrwt>
<pdfrwt beam="2">  1       21 0.14044239E+00 0.47851622E+03</pdfrwt>
<totfact> 0.32248724E+04</totfact>
</mgrwt>
</event>
<event>
 6    0  0.1576925E-007  0.4587853E+03  0.7546771E-02  0.1025134E+00
         21   -1    0    0  502  501  0.00000000000E+00  0.00000000000E+00  0.10142210211E+04  0.10142210211E+04  0.00000000000E+00 0.  1.
         21   -1    0    0  501  502 -0.00000000000E+00 -0.00000000000E+00 -0.51883158350E+02  0.51883158350E+02  0.00000000000E+00 0.  1.
      99926    2    1    2    0    0  0.14210854715E-13  0.00000000000E+00  0.96233786271E+03  0.10661041794E+04  0.45878530856E+03 0.  0.
         25    1    3    3    0    0  0.66054289969E+02  0.69087685561E+02  0.23930372183E+03  0.28644381107E+03  0.12509000000E+03 0.  0.
         25    1    3    3    0    0  0.23086489461E+02 -0.12327731583E+02  0.32950591961E+03  0.35342130400E+03  0.12509000000E+03 0.  0.
         25    1    3    3    0    0 -0.89140779430E+02 -0.56759953978E+02  0.39352822127E+03  0.42623906434E+03  0.12509000000E+03 0.  0.
<mgrwt>
<rscale>  2 0.45878531E+03</rscale>
<asrwt>0</asrwt>
<pdfrwt beam="1">  1       21 0.14915014E+00 0.45878531E+03</pdfrwt>
<pdfrwt beam="2">  1       21 0.76298769E-02 0.45878531E+03</pdfrwt>
<totfact> 0.35627825E+04</totfact>
</mgrwt>
</event>
<event>
 6    0  0.1576925E-007  0.4480223E+03  0.7546771E-02  0.1028313E+00
         21   -1    0    0  502  501  0.00000000000E+00  0.00000000000E+00  0.56657348564E+03  0.56657348564E+03  0.00000000000E+00 0. -1.
         21   -1    0    0  501  502 -0.00000000000E+00 -0.00000000000E+00 -0.88569278736E+02  0.88569278736E+02  0.00000000000E+00 0. -1.
      99926    2    1    2    0    0 -0.88817841970E-15 -0.12434497876E-13  0.47800420690E+03  0.65514276437E+03  0.44802234308E+03 0.  0.
         25    1    3    3    0    0 -0.38354693648E+02 -0.84939006814E+02  0.20487928204E+03  0.25750484600E+03  0.12509000000E+03 0.  0.
         25    1    3    3    0    0  0.42861092853E+02  0.70519114266E+02  0.88260266650E+02  0.17391780106E+03  0.12509000000E+03 0.  0.
         25    1    3    3    0    0 -0.45063992050E+01  0.14419892548E+02  0.18486465821E+03  0.22372011731E+03  0.12509000000E+03 0.  0.
<mgrwt>
<rscale>  2 0.44802234E+03</rscale>
<asrwt>0</asrwt>
<pdfrwt beam="1">  1       21 0.83319629E-01 0.44802234E+03</pdfrwt>
<pdfrwt beam="2">  1       21 0.13024894E-01 0.44802234E+03</pdfrwt>
<totfact> 0.58562991E+04</totfact>
</mgrwt>
</event>
<event>
 6    0  0.1576925E-007  0.4547967E+03  0.7546771E-02  0.1026301E+00
         21   -1    0    0  502  501  0.00000000000E+00  0.00000000000E+00  0.32979072249E+03  0.32979072249E+03  0.00000000000E+00 0. -1.
         21   -1    0    0  501  502 -0.00000000000E+00 -0.00000000000E+00 -0.15679643842E+03  0.15679643842E+03  0.00000000000E+00 0. -1.
      99926    2    1    2    0    0  0.00000000000E+00  0.00000000000E+00  0.17299428407E+03  0.48658716090E+03  0.45479670495E+03 0.  0.
         25    1    3    3    0    0 -0.38540166482E+02 -0.50600790244E+02  0.20105100932E+02  0.14176567846E+03  0.12509000000E+03 0.  0.
         25    1    3    3    0    0  0.63190275634E+02 -0.58239307131E+01  0.32605582874E+01  0.14030348693E+03  0.12509000000E+03 0.  0.
         25    1    3    3    0    0 -0.24650109151E+02  0.56424720957E+02  0.14962862485E+03  0.20451799552E+03  0.12509000000E+03 0.  0.
<mgrwt>
<rscale>  2 0.45479670E+03</rscale>
<asrwt>0</asrwt>
<pdfrwt beam="1">  1       21 0.48498636E-01 0.45479670E+03</pdfrwt>
<pdfrwt beam="2">  1       21 0.23058300E-01 0.45479670E+03</pdfrwt>
<totfact> 0.66330626E+04</totfact>
</mgrwt>
</event>
<event>
 6    0  0.1576925E-007  0.4177909E+03  0.7546771E-02  0.1037788E+00
         21   -1    0    0  502  501  0.00000000000E+00  0.00000000000E+00  0.38471808125E+03  0.38471808125E+03  0.00000000000E+00 0.  1.
         21   -1    0    0  501  502 -0.00000000000E+00 -0.00000000000E+00 -0.11342671330E+03  0.11342671330E+03  0.00000000000E+00 0.  1.
      99926    2    1    2    0    0 -0.35527136788E-14  0.00000000000E+00  0.27129136795E+03  0.49814479455E+03  0.41779089269E+03 0.  0.
         25    1    3    3    0    0 -0.33249202830E+02 -0.38843031696E+01  0.29466140979E+02  0.13280195354E+03  0.12509000000E+03 0.  0.
         25    1    3    3    0    0 -0.18571004772E+02 -0.23883558269E+02  0.15765594629E+03  0.20351464831E+03  0.12509000000E+03 0.  0.
         25    1    3    3    0    0  0.51820207602E+02  0.27767861439E+02  0.84169280676E+02  0.16182819271E+03  0.12509000000E+03 0.  0.
<mgrwt>
<rscale>  2 0.41779089E+03</rscale>
<asrwt>0</asrwt>
<pdfrwt beam="1">  1       21 0.56576188E-01 0.41779089E+03</pdfrwt>
<pdfrwt beam="2">  1       21 0.16680399E-01 0.41779089E+03</pdfrwt>
<totfact> 0.88867493E+04</totfact>
</mgrwt>
</event>
<event>
 6    0  0.1576925E-007  0.4557240E+03  0.7546771E-02  0.1026029E+00
         21   -1    0    0  502  501  0.00000000000E+00  0.00000000000E+00  0.86054471466E+02  0.86054471466E+02  0.00000000000E+00 0. -1.
         21   -1    0    0  501  502 -0.00000000000E+00 -0.00000000000E+00 -0.60335143233E+03  0.60335143233E+03  0.00000000000E+00 0. -1.
      99926    2    1    2    0    0  0.00000000000E+00  0.00000000000E+00 -0.51729696087E+03  0.68940590380E+03  0.45572398935E+03 0.  0.
         25    1    3    3    0    0  0.17785301999E+02 -0.17999693876E+02 -0.29894722085E+03  0.32504961914E+03  0.12509000000E+03 0.  0.
         25    1    3    3    0    0  0.34414846251E+02  0.59713102757E+02 -0.69743909351E+02  0.15893947677E+03  0.12509000000E+03 0.  0.
         25    1    3    3    0    0 -0.52200148250E+02 -0.41713408881E+02 -0.14860583067E+03  0.20541680789E+03  0.12509000000E+03 0.  0.
<mgrwt>
<rscale>  2 0.45572399E+03</rscale>
<asrwt>0</asrwt>
<pdfrwt beam="1">  1       21 0.12655069E-01 0.45572399E+03</pdfrwt>
<pdfrwt beam="2">  1       21 0.88728152E-01 0.45572399E+03</pdfrwt>
<totfact> 0.53178318E+04</totfact>
</mgrwt>
</event>
<event>
 6    0  0.1576925E-007  0.4522771E+03  0.7546771E-02  0.1027045E+00
         21   -1    0    0  502  501  0.00000000000E+00  0.00000000000E+00  0.15790224888E+03  0.15790224888E+03  0.00000000000E+00 0. -1.
         21   -1    0    0  501  502 -0.00000000000E+00 -0.00000000000E+00 -0.32386266785E+03  0.32386266785E+03  0.00000000000E+00 0. -1.
      99926    2    1    2    0    0  0.14210854715E-13  0.00000000000E+00 -0.16596041897E+03  0.48176491674E+03  0.45227709906E+03 0.  0.
         25    1    3    3    0    0 -0.82938569710E+02 -0.40771538795E+02 -0.85166081207E+02  0.17731862341E+03  0.12509000000E+03 0.  0.
         25    1    3    3    0    0  0.10418049670E+03  0.18877875542E+02 -0.33445954999E+02  0.16726054551E+03  0.12509000000E+03 0.  0.
         25    1    3    3    0    0 -0.21241926993E+02  0.21893663253E+02 -0.47348382762E+02  0.13718574781E+03  0.12509000000E+03 0.  0.
<mgrwt>
<rscale>  2 0.45227710E+03</rscale>
<asrwt>0</asrwt>
<pdfrwt beam="1">  1       21 0.23220919E-01 0.45227710E+03</pdfrwt>
<pdfrwt beam="2">  1       21 0.47626862E-01 0.45227710E+03</pdfrwt>
<totfact> 0.68030463E+04</totfact>
</mgrwt>
</event>
<event>
 6    0  0.1576925E-007  0.4534674E+03  0.7546771E-02  0.1026693E+00
         21   -1    0    0  502  501  0.00000000000E+00  0.00000000000E+00  0.93087338944E+02  0.93087338944E+02  0.00000000000E+00 0. -1.
         21   -1    0    0  501  502 -0.00000000000E+00 -0.00000000000E+00 -0.55225736765E+03  0.55225736765E+03  0.00000000000E+00 0. -1.
      99926    2    1    2    0    0 -0.22204460493E-14  0.00000000000E+00 -0.45917002871E+03  0.64534470659E+03  0.45346739140E+03 0.  0.
         25    1    3    3    0    0  0.20527417577E+02  0.61371836890E+01 -0.12010027250E+02  0.12747858154E+03  0.12509000000E+03 0.  0.
         25    1    3    3    0    0  0.31708139312E+01 -0.13725618089E+02 -0.28497698388E+03  0.31154106646E+03  0.12509000000E+03 0.  0.
         25    1    3    3    0    0 -0.23698231509E+02  0.75884344002E+01 -0.16218301758E+03  0.20632505860E+03  0.12509000000E+03 0.  0.
<mgrwt>
<rscale>  2 0.45346739E+03</rscale>
<asrwt>0</asrwt>
<pdfrwt beam="1">  1       21 0.13689315E-01 0.45346739E+03</pdfrwt>
<pdfrwt beam="2">  1       21 0.81214318E-01 0.45346739E+03</pdfrwt>
<totfact> 0.56652440E+04</totfact>
</mgrwt>
</event>
<event>
 6    0  0.1576925E-007  0.4618033E+03  0.7546771E-02  0.1024260E+00
         21   -1    0    0  502  501  0.00000000000E+00  0.00000000000E+00  0.16741728900E+03  0.16741728900E+03  0.00000000000E+00 0. -1.
         21   -1    0    0  501  502 -0.00000000000E+00 -0.00000000000E+00 -0.31845919074E+03  0.31845919074E+03  0.00000000000E+00 0. -1.
      99926    2    1    2    0    0  0.00000000000E+00  0.00000000000E+00 -0.15104190174E+03  0.48587647974E+03  0.46180331039E+03 0.  0.
         25    1    3    3    0    0 -0.28678464907E+02  0.52022677628E+02 -0.65847105938E+02  0.15333676271E+03  0.12509000000E+03 0.  0.
         25    1    3    3    0    0  0.98515903681E+02  0.21028204775E+02 -0.44360808134E+02  0.16662220162E+03  0.12509000000E+03 0.  0.
         25    1    3    3    0    0 -0.69837438774E+02 -0.73050882402E+02 -0.40833987664E+02  0.16591751542E+03  0.12509000000E+03 0.  0.
<mgrwt>
<rscale>  2 0.46180331E+03</rscale>
<asrwt>0</asrwt>
<pdfrwt beam="1">  1       21 0.24620190E-01 0.46180331E+03</pdfrwt>
<pdfrwt beam="2">  1       21 0.46832234E-01 0.46180331E+03</pdfrwt>
<totfact> 0.62813453E+04</totfact>
</mgrwt>
</event>
<event>
 6    0  0.1576925E-007  0.4523343E+03  0.7546771E-02  0.1027028E+00
         21   -1    0    0  502  501  0.00000000000E+00  0.00000000000E+00  0.76762586024E+02  0.76762586024E+02  0.00000000000E+00 0.  1.
         21   -1    0    0  501  502 -0.00000000000E+00 -0.00000000000E+00 -0.66636075185E+03  0.66636075185E+03  0.00000000000E+00 0.  1.
      99926    2    1    2    0    0 -0.71054273576E-14  0.71054273576E-14 -0.58959816583E+03  0.74312333788E+03  0.45233427700E+03 0.  0.
         25    1    3    3    0    0 -0.32826708888E+02  0.51528143114E+02 -0.24122284763E+03  0.27851160239E+03  0.12509000000E+03 0.  0.
         25    1    3    3    0    0  0.72758730154E+00 -0.17217840421E+01 -0.48212764043E+02  0.13407263942E+03  0.12509000000E+03 0.  0.
         25    1    3    3    0    0  0.32099121586E+02 -0.49806359072E+02 -0.30016255416E+03  0.33053909607E+03  0.12509000000E+03 0.  0.
<mgrwt>
<rscale>  2 0.45233428E+03</rscale>
<asrwt>0</asrwt>
<pdfrwt beam="1">  1       21 0.11288616E-01 0.45233428E+03</pdfrwt>
<pdfrwt beam="2">  1       21 0.97994225E-01 0.45233428E+03</pdfrwt>
<totfact> 0.51698221E+04</totfact>
</mgrwt>
</event>
<event>
 6    0  0.1576925E-007  0.4740615E+03  0.7546771E-02  0.1020780E+00
         21   -1    0    0  502  501  0.00000000000E+00  0.00000000000E+00  0.17989822789E+03  0.17989822789E+03  0.00000000000E+00 0. -1.
         21   -1    0    0  501  502 -0.00000000000E+00 -0.00000000000E+00 -0.31230756390E+03  0.31230756390E+03  0.00000000000E+00 0. -1.
      99926    2    1    2    0    0  0.71054273576E-14  0.00000000000E+00 -0.13240933601E+03  0.49220579180E+03  0.47406150362E+03 0.  0.
         25    1    3    3    0    0  0.68238902480E+02  0.44333817902E+02 -0.74919637500E+01  0.14941777954E+03  0.12509000000E+03 0.  0.
         25    1    3    3    0    0 -0.58488518476E+02 -0.92988211151E+02 -0.11639188045E+02  0.16688526899E+03  0.12509000000E+03 0.  0.
         25    1    3    3    0    0 -0.97503840036E+01  0.48654393249E+02 -0.11327818422E+03  0.17590274327E+03  0.12509000000E+03 0.  0.
<mgrwt>
<rscale>  2 0.47406150E+03</rscale>
<asrwt>0</asrwt>
<pdfrwt beam="1">  1       21 0.26455622E-01 0.47406150E+03</pdfrwt>
<pdfrwt beam="2">  1       21 0.45927582E-01 0.47406150E+03</pdfrwt>
<totfact> 0.56738897E+04</totfact>
</mgrwt>
</event>
<event>
 6    0  0.1576925E-007  0.4564814E+03  0.7546771E-02  0.1025807E+00
         21   -1    0    0  502  501  0.00000000000E+00  0.00000000000E+00  0.13159195419E+03  0.13159195419E+03  0.00000000000E+00 0.  1.
         21   -1    0    0  501  502 -0.00000000000E+00 -0.00000000000E+00 -0.39587381604E+03  0.39587381604E+03  0.00000000000E+00 0.  1.
      99926    2    1    2    0    0 -0.71054273576E-14  0.00000000000E+00 -0.26428186186E+03  0.52746577023E+03  0.45648136463E+03 0.  0.
         25    1    3    3    0    0  0.89605010732E+02  0.32874094460E+02 -0.10410228320E+03  0.18866519950E+03  0.12509000000E+03 0.  0.
         25    1    3    3    0    0  0.11641315222E+02 -0.22620854445E+02 -0.11378787803E+03  0.17100413025E+03  0.12509000000E+03 0.  0.
         25    1    3    3    0    0 -0.10124632595E+03 -0.10253240015E+02 -0.46391700621E+02  0.16779644048E+03  0.12509000000E+03 0.  0.
<mgrwt>
<rscale>  2 0.45648136E+03</rscale>
<asrwt>0</asrwt>
<pdfrwt beam="1">  1       21 0.19351758E-01 0.45648136E+03</pdfrwt>
<pdfrwt beam="2">  1       21 0.58216737E-01 0.45648136E+03</pdfrwt>
<totfact> 0.62639627E+04</totfact>
</mgrwt>
</event>
<event>
 6    0  0.1576925E-007  0.4743000E+03  0.7546771E-02  0.1020714E+00
         21   -1    0    0  502  501  0.00000000000E+00  0.00000000000E+00  0.92098753835E+03  0.92098753835E+03  0.00000000000E+00 0. -1.
         21   -1    0    0  501  502 -0.00000000000E+00 -0.00000000000E+00 -0.61065018741E+02  0.61065018741E+02  0.00000000000E+00 0. -1.
      99926    2    1    2    0    0  0.00000000000E+00  0.14210854715E-13  0.85992251961E+03  0.98205255709E+03  0.47429999490E+03 0.  0.
         25    1    3    3    0    0 -0.48968063470E+02  0.10843073034E+03  0.35702154047E+03  0.39656901414E+03  0.12509000000E+03 0.  0.
         25    1    3    3    0    0  0.29508700621E+02 -0.37945935179E+02  0.35027391536E+03  0.37503330691E+03  0.12509000000E+03 0.  0.
         25    1    3    3    0    0  0.19459362849E+02 -0.70484795158E+02  0.15262706379E+03  0.21045023604E+03  0.12509000000E+03 0.  0.
<mgrwt>
<rscale>  2 0.47429999E+03</rscale>
<asrwt>0</asrwt>
<pdfrwt beam="1">  1       21 0.13543934E+00 0.47429999E+03</pdfrwt>
<pdfrwt beam="2">  1       21 0.89801504E-02 0.47429999E+03</pdfrwt>
<totfact> 0.34381140E+04</totfact>
</mgrwt>
</event>
<event>
 6    0  0.1576925E-007  0.4556925E+03  0.7546771E-02  0.1026038E+00
         21   -1    0    0  502  501  0.00000000000E+00  0.00000000000E+00  0.11334282484E+04  0.11334282484E+04  0.00000000000E+00 0.  1.
         21   -1    0    0  501  502 -0.00000000000E+00 -0.00000000000E+00 -0.45802563538E+02  0.45802563538E+02  0.00000000000E+00 0.  1.
      99926    2    1    2    0    0 -0.39968028887E-14  0.71054273576E-14  0.10876256848E+04  0.11792308119E+04  0.45569252512E+03 0.  0.
         25    1    3    3    0    0 -0.48983672132E+02  0.11627002779E+02  0.37376713359E+03  0.39734615335E+03  0.12509000000E+03 0.  0.
         25    1    3    3    0    0 -0.37990167616E+01  0.44758815957E+02  0.53034631905E+03  0.54674720883E+03  0.12509000000E+03 0.  0.
         25    1    3    3    0    0  0.52782688893E+02 -0.56385818736E+02  0.18351223220E+03  0.23513744974E+03  0.12509000000E+03 0.  0.
<mgrwt>
<rscale>  2 0.45569253E+03</rscale>
<asrwt>0</asrwt>
<pdfrwt beam="1">  1       21 0.16668061E+00 0.45569253E+03</pdfrwt>
<pdfrwt beam="2">  1       21 0.67356718E-02 0.45569253E+03</pdfrwt>
<totfact> 0.32644757E+04</totfact>
</mgrwt>
</event>
<event>
 6    0  0.1576925E-007  0.4554203E+03  0.7546771E-02  0.1026118E+00
         21   -1    0    0  502  501  0.00000000000E+00  0.00000000000E+00  0.48289713129E+03  0.48289713129E+03  0.00000000000E+00 0.  1.
         21   -1    0    0  501  502 -0.00000000000E+00 -0.00000000000E+00 -0.10737671479E+03  0.10737671479E+03  0.00000000000E+00 0.  1.
      99926    2    1    2    0    0  0.00000000000E+00  0.00000000000E+00  0.37552041651E+03  0.59027384608E+03  0.45542027859E+03 0.  0.
         25    1    3    3    0    0 -0.75063314761E+02 -0.21700838544E+02  0.16611815027E+03  0.22214449254E+03  0.12509000000E+03 0.  0.
         25    1    3    3    0    0  0.29876790948E+02  0.35011718939E+02  0.19142759992E+03  0.23326053505E+03  0.12509000000E+03 0.  0.
         25    1    3    3    0    0  0.45186523813E+02 -0.13310880395E+02  0.17974666314E+02  0.13486881849E+03  0.12509000000E+03 0.  0.
<mgrwt>
<rscale>  2 0.45542028E+03</rscale>
<asrwt>0</asrwt>
<pdfrwt beam="1">  1       21 0.71014283E-01 0.45542028E+03</pdfrwt>
<pdfrwt beam="2">  1       21 0.15790694E-01 0.45542028E+03</pdfrwt>
<totfact> 0.59084462E+04</totfact>
</mgrwt>
</event>
<event>
 6    0  0.1576925E-007  0.4822825E+03  0.7546771E-02  0.1018510E+00
         21   -1    0    0  502  501  0.00000000000E+00  0.00000000000E+00  0.97283949934E+02  0.97283949934E+02  0.00000000000E+00 0.  1.
         21   -1    0    0  501  502 -0.00000000000E+00 -0.00000000000E+00 -0.59772548221E+03  0.59772548221E+03  0.00000000000E+00 0.  1.
      99926    2    1    2    0    0 -0.71054273576E-14  0.00000000000E+00 -0.50044153227E+03  0.69500943214E+03  0.48228247277E+03 0.  0.
         25    1    3    3    0    0 -0.90844096435E+02 -0.38016950753E+02 -0.57379345714E+02  0.16922717222E+03  0.12509000000E+03 0.  0.
         25    1    3    3    0    0  0.46124819960E+02  0.14916306048E+02 -0.13908112514E+03  0.19323835715E+03  0.12509000000E+03 0.  0.
         25    1    3    3    0    0  0.44719276474E+02  0.23100644705E+02 -0.30398106142E+03  0.33254390278E+03  0.12509000000E+03 0.  0.
<mgrwt>
<rscale>  2 0.48228247E+03</rscale>
<asrwt>0</asrwt>
<pdfrwt beam="1">  1       21 0.14306463E-01 0.48228247E+03</pdfrwt>
<pdfrwt beam="2">  1       21 0.87900807E-01 0.48228247E+03</pdfrwt>
<totfact> 0.43130784E+04</totfact>
</mgrwt>
</event>
<event>
 6    0  0.1576925E-007  0.4470710E+03  0.7546771E-02  0.1028599E+00
         21   -1    0    0  502  501  0.00000000000E+00  0.00000000000E+00  0.69139833570E+03  0.69139833570E+03  0.00000000000E+00 0.  1.
         21   -1    0    0  501  502 -0.00000000000E+00 -0.00000000000E+00 -0.72271110454E+02  0.72271110454E+02  0.00000000000E+00 0.  1.
      99926    2    1    2    0    0  0.00000000000E+00  0.00000000000E+00  0.61912722525E+03  0.76366944616E+03  0.44707102562E+03 0.  0.
         25    1    3    3    0    0  0.34073370581E+02  0.55517276535E+02  0.30197772283E+03  0.33328848730E+03  0.12509000000E+03 0.  0.
         25    1    3    3    0    0  0.14031002623E+02 -0.76229422088E+02  0.21528115729E+03  0.26077054782E+03  0.12509000000E+03 0.  0.
         25    1    3    3    0    0 -0.48104373205E+02  0.20712145553E+02  0.10186834513E+03  0.16961041104E+03  0.12509000000E+03 0.  0.
<mgrwt>
<rscale>  2 0.44707103E+03</rscale>
<asrwt>0</asrwt>
<pdfrwt beam="1">  1       21 0.10167622E+00 0.44707103E+03</pdfrwt>
<pdfrwt beam="2">  1       21 0.10628105E-01 0.44707103E+03</pdfrwt>
<totfact> 0.52781789E+04</totfact>
</mgrwt>
</event>
<event>
 6    0  0.1576925E-007  0.4518109E+03  0.7546771E-02  0.1027183E+00
         21   -1    0    0  502  501  0.00000000000E+00  0.00000000000E+00  0.32239558806E+03  0.32239558806E+03  0.00000000000E+00 0. -1.
         21   -1    0    0  501  502 -0.00000000000E+00 -0.00000000000E+00 -0.15829393835E+03  0.15829393835E+03  0.00000000000E+00 0. -1.
      99926    2    1    2    0    0  0.00000000000E+00 -0.35527136788E-14  0.16410164971E+03  0.48068952641E+03  0.45181087787E+03 0.  0.
         25    1    3    3    0    0  0.14629697049E+02  0.10269107100E+02 -0.65973314653E+01  0.12653266566E+03  0.12509000000E+03 0.  0.
         25    1    3    3    0    0 -0.14255514110E+01  0.85949890312E+02  0.89203195705E+02  0.17605150969E+03  0.12509000000E+03 0.  0.
         25    1    3    3    0    0 -0.13204145638E+02 -0.96218997412E+02  0.81495785468E+02  0.17810535105E+03  0.12509000000E+03 0.  0.
<mgrwt>
<rscale>  2 0.45181088E+03</rscale>
<asrwt>0</asrwt>
<pdfrwt beam="1">  1       21 0.47411116E-01 0.45181088E+03</pdfrwt>
<pdfrwt beam="2">  1       21 0.23278520E-01 0.45181088E+03</pdfrwt>
<totfact> 0.68364275E+04</totfact>
</mgrwt>
</event>
<event>
 6    0  0.1576925E-007  0.4650646E+03  0.7546771E-02  0.1023323E+00
         21   -1    0    0  502  501  0.00000000000E+00  0.00000000000E+00  0.79667713828E+03  0.79667713828E+03  0.00000000000E+00 0.  1.
         21   -1    0    0  501  502 -0.00000000000E+00 -0.00000000000E+00 -0.67870998284E+02  0.67870998284E+02  0.00000000000E+00 0.  1.
      99926    2    1    2    0    0  0.00000000000E+00  0.00000000000E+00  0.72880613999E+03  0.86454813656E+03  0.46506460921E+03 0.  0.
         25    1    3    3    0    0  0.12423382104E+03 -0.29785818833E+01  0.20402573197E+03  0.26966075288E+03  0.12509000000E+03 0.  0.
         25    1    3    3    0    0 -0.71018614101E+02  0.87582575710E+01  0.27016198347E+03  0.30619496409E+03  0.12509000000E+03 0.  0.
         25    1    3    3    0    0 -0.53215206943E+02 -0.57796756876E+01  0.25461842456E+03  0.28869241959E+03  0.12509000000E+03 0.  0.
<mgrwt>
<rscale>  2 0.46506461E+03</rscale>
<asrwt>0</asrwt>
<pdfrwt beam="1">  1       21 0.11715840E+00 0.46506461E+03</pdfrwt>
<pdfrwt beam="2">  1       21 0.99810296E-02 0.46506461E+03</pdfrwt>
<totfact> 0.41427001E+04</totfact>
</mgrwt>
</event>
<event>
 6    0  0.1576925E-007  0.4518037E+03  0.7546771E-02  0.1027186E+00
         21   -1    0    0  502  501  0.00000000000E+00  0.00000000000E+00  0.37065528933E+02  0.37065528933E+02  0.00000000000E+00 0.  1.
         21   -1    0    0  501  502 -0.00000000000E+00 -0.00000000000E+00 -0.13767953772E+04  0.13767953772E+04  0.00000000000E+00 0.  1.
      99926    2    1    2    0    0  0.00000000000E+00  0.00000000000E+00 -0.13397298482E+04  0.14138609061E+04  0.45180371352E+03 0.  0.
         25    1    3    3    0    0 -0.72837098525E+02  0.40120897024E+02 -0.44733757756E+03  0.47188276690E+03  0.12509000000E+03 0.  0.
         25    1    3    3    0    0 -0.33090042007E+02 -0.40409229561E+02 -0.46007388271E+03  0.47962833774E+03  0.12509000000E+03 0.  0.
         25    1    3    3    0    0  0.10592714053E+03  0.28833253769E+00 -0.43231838797E+03  0.46234980146E+03  0.12509000000E+03 0.  0.
<mgrwt>
<rscale>  2 0.45180371E+03</rscale>
<asrwt>0</asrwt>
<pdfrwt beam="1">  1       21 0.54508136E-02 0.45180371E+03</pdfrwt>
<pdfrwt beam="2">  1       21 0.20246989E+00 0.45180371E+03</pdfrwt>
<totfact> 0.26620036E+04</totfact>
</mgrwt>
</event>
<event>
 6    0  0.1576925E-007  0.4636862E+03  0.7546771E-02  0.1023718E+00
         21   -1    0    0  502  501  0.00000000000E+00  0.00000000000E+00  0.93908707792E+02  0.93908707792E+02  0.00000000000E+00 0.  1.
         21   -1    0    0  501  502 -0.00000000000E+00 -0.00000000000E+00 -0.57237737644E+03  0.57237737644E+03  0.00000000000E+00 0.  1.
      99926    2    1    2    0    0  0.71054273576E-14  0.00000000000E+00 -0.47846866865E+03  0.66628608423E+03  0.46368618608E+03 0.  0.
         25    1    3    3    0    0 -0.25392014793E+02 -0.49438732297E+02 -0.23156221119E+03  0.26899350999E+03  0.12509000000E+03 0.  0.
         25    1    3    3    0    0  0.82279303316E+02  0.23523455164E+02 -0.19756381369E+03  0.24900242023E+03  0.12509000000E+03 0.  0.
         25    1    3    3    0    0 -0.56887288523E+02  0.25915277132E+02 -0.49342643767E+02  0.14829015402E+03  0.12509000000E+03 0.  0.
<mgrwt>
<rscale>  2 0.46368619E+03</rscale>
<asrwt>0</asrwt>
<pdfrwt beam="1">  1       21 0.13810104E-01 0.46368619E+03</pdfrwt>
<pdfrwt beam="2">  1       21 0.84173142E-01 0.46368619E+03</pdfrwt>
<totfact> 0.51175821E+04</totfact>
</mgrwt>
</event>
<event>
 6    0  0.1576925E-007  0.4580991E+03  0.7546771E-02  0.1025334E+00
         21   -1    0    0  502  501  0.00000000000E+00  0.00000000000E+00  0.85131924068E+02  0.85131924068E+02  0.00000000000E+00 0.  1.
         21   -1    0    0  501  502 -0.00000000000E+00 -0.00000000000E+00 -0.61626337937E+03  0.61626337937E+03  0.00000000000E+00 0.  1.
      99926    2    1    2    0    0  0.00000000000E+00  0.00000000000E+00 -0.53113145530E+03  0.70139530344E+03  0.45809906011E+03 0.  0.
         25    1    3    3    0    0  0.90781448786E+02  0.45768669300E+01 -0.95655106469E+02  0.18182306413E+03  0.12509000000E+03 0.  0.
         25    1    3    3    0    0 -0.60610395496E+02  0.33051917627E+01 -0.30962050373E+03  0.33940670112E+03  0.12509000000E+03 0.  0.
         25    1    3    3    0    0 -0.30171053290E+02 -0.78820586926E+01 -0.12585584510E+03  0.18016553819E+03  0.12509000000E+03 0.  0.
<mgrwt>
<rscale>  2 0.45809906E+03</rscale>
<asrwt>0</asrwt>
<pdfrwt beam="1">  1       21 0.12519401E-01 0.45809906E+03</pdfrwt>
<pdfrwt beam="2">  1       21 0.90626966E-01 0.45809906E+03</pdfrwt>
<totfact> 0.51558293E+04</totfact>
</mgrwt>
</event>
<event>
 6    0  0.1576925E-007  0.4611617E+03  0.7546771E-02  0.1024445E+00
         21   -1    0    0  502  501  0.00000000000E+00  0.00000000000E+00  0.13418235560E+04  0.13418235560E+04  0.00000000000E+00 0. -1.
         21   -1    0    0  501  502 -0.00000000000E+00 -0.00000000000E+00 -0.39623335484E+02  0.39623335484E+02  0.00000000000E+00 0. -1.
      99926    2    1    2    0    0  0.00000000000E+00 -0.71054273576E-14  0.13022002206E+04  0.13814468915E+04  0.46116168497E+03 0.  0.
         25    1    3    3    0    0  0.14843262113E+02 -0.75126432714E+02  0.51431534808E+03  0.53481967867E+03  0.12509000000E+03 0.  0.
         25    1    3    3    0    0 -0.40174033567E-01  0.43286494141E+02  0.62194624135E+03  0.63587605508E+03  0.12509000000E+03 0.  0.
         25    1    3    3    0    0 -0.14803088079E+02  0.31839938573E+02  0.16593863113E+03  0.21075115778E+03  0.12509000000E+03 0.  0.
<mgrwt>
<rscale>  2 0.46116168E+03</rscale>
<asrwt>0</asrwt>
<pdfrwt beam="1">  1       21 0.19732696E+00 0.46116168E+03</pdfrwt>
<pdfrwt beam="2">  1       21 0.58269620E-02 0.46116168E+03</pdfrwt>
<totfact> 0.25583400E+04</totfact>
</mgrwt>
</event>
<event>
 6    0  0.1576925E-007  0.4526900E+03  0.7546771E-02  0.1026923E+00
         21   -1    0    0  502  501  0.00000000000E+00  0.00000000000E+00  0.48362250070E+03  0.48362250070E+03  0.00000000000E+00 0.  1.
         21   -1    0    0  501  502 -0.00000000000E+00 -0.00000000000E+00 -0.10593396333E+03  0.10593396333E+03  0.00000000000E+00 0.  1.
      99926    2    1    2    0    0 -0.44408920985E-15  0.00000000000E+00  0.37768853737E+03  0.58955646404E+03  0.45268995242E+03 0.  0.
         25    1    3    3    0    0 -0.44951769108E+01  0.10289554180E+03  0.20878340370E+03  0.26428340262E+03  0.12509000000E+03 0.  0.
         25    1    3    3    0    0  0.29426097813E+01 -0.67445956922E+02  0.12110707174E+03  0.18674058740E+03  0.12509000000E+03 0.  0.
         25    1    3    3    0    0  0.15525671295E+01 -0.35449584880E+02  0.47798061929E+02  0.13853247402E+03  0.12509000000E+03 0.  0.
<mgrwt>
<rscale>  2 0.45268995E+03</rscale>
<asrwt>0</asrwt>
<pdfrwt beam="1">  1       21 0.71120955E-01 0.45268995E+03</pdfrwt>
<pdfrwt beam="2">  1       21 0.15578524E-01 0.45268995E+03</pdfrwt>
<totfact> 0.60421355E+04</totfact>
</mgrwt>
</event>
<event>
 6    0  0.1576925E-007  0.4890070E+03  0.7546771E-02  0.1016689E+00
         21   -1    0    0  502  501  0.00000000000E+00  0.00000000000E+00  0.32124209324E+03  0.32124209324E+03  0.00000000000E+00 0.  1.
         21   -1    0    0  501  502 -0.00000000000E+00 -0.00000000000E+00 -0.18609627825E+03  0.18609627825E+03  0.00000000000E+00 0.  1.
      99926    2    1    2    0    0 -0.17763568394E-14  0.00000000000E+00  0.13514581499E+03  0.50733837149E+03  0.48900698551E+03 0.  0.
         25    1    3    3    0    0  0.15302587769E+02  0.21309538520E+02  0.13432302196E+02  0.12851537055E+03  0.12509000000E+03 0.  0.
         25    1    3    3    0    0 -0.69070416499E+02  0.26839690416E+02 -0.50643617762E+02  0.15395900603E+03  0.12509000000E+03 0.  0.
         25    1    3    3    0    0  0.53767828729E+02 -0.48149228937E+02  0.17235713056E+03  0.22486399491E+03  0.12509000000E+03 0.  0.
<mgrwt>
<rscale>  2 0.48900699E+03</rscale>
<asrwt>0</asrwt>
<pdfrwt beam="1">  1       21 0.47241484E-01 0.48900699E+03</pdfrwt>
<pdfrwt beam="2">  1       21 0.27367100E-01 0.48900699E+03</pdfrwt>
<totfact> 0.49872608E+04</totfact>
</mgrwt>
</event>
<event>
 6    0  0.1576925E-007  0.4591585E+03  0.7546771E-02  0.1025026E+00
         21   -1    0    0  502  501  0.00000000000E+00  0.00000000000E+00  0.19328132657E+03  0.19328132657E+03  0.00000000000E+00 0.  1.
         21   -1    0    0  501  502 -0.00000000000E+00 -0.00000000000E+00 -0.27269389318E+03  0.27269389318E+03  0.00000000000E+00 0.  1.
      99926    2    1    2    0    0  0.00000000000E+00  0.14210854715E-13 -0.79412566611E+02  0.46597521975E+03  0.45915852348E+03 0.  0.
         25    1    3    3    0    0 -0.39350349380E+02 -0.77877178943E+02  0.45728254047E+01  0.15258349789E+03  0.12509000000E+03 0.  0.
         25    1    3    3    0    0  0.61802829299E+02 -0.10849511211E+02 -0.73418338629E+02  0.15803500293E+03  0.12509000000E+03 0.  0.
         25    1    3    3    0    0 -0.22452479918E+02  0.88726690154E+02 -0.10567053387E+02  0.15535671893E+03  0.12509000000E+03 0.  0.
<mgrwt>
<rscale>  2 0.45915852E+03</rscale>
<asrwt>0</asrwt>
<pdfrwt beam="1">  1       21 0.28423725E-01 0.45915852E+03</pdfrwt>
<pdfrwt beam="2">  1       21 0.40102043E-01 0.45915852E+03</pdfrwt>
<totfact> 0.65544105E+04</totfact>
</mgrwt>
</event>
<event>
 6    0  0.1576925E-007  0.4617631E+03  0.7546771E-02  0.1024271E+00
         21   -1    0    0  502  501  0.00000000000E+00  0.00000000000E+00  0.40695732856E+03  0.40695732856E+03  0.00000000000E+00 0. -1.
         21   -1    0    0  501  502 -0.00000000000E+00 -0.00000000000E+00 -0.13098744583E+03  0.13098744583E+03  0.00000000000E+00 0. -1.
      99926    2    1    2    0    0 -0.35527136788E-14 -0.71054273576E-14  0.27596988273E+03  0.53794477439E+03  0.46176314721E+03 0.  0.
         25    1    3    3    0    0 -0.81175026955E+02  0.25509801195E+02  0.20706915579E+02  0.15269714932E+03  0.12509000000E+03 0.  0.
         25    1    3    3    0    0  0.66471712461E+02  0.38140740829E+02  0.11647834107E+03  0.18731768926E+03  0.12509000000E+03 0.  0.
         25    1    3    3    0    0  0.14703314494E+02 -0.63650542024E+02  0.13878462607E+03  0.19792993581E+03  0.12509000000E+03 0.  0.
<mgrwt>
<rscale>  2 0.46176315E+03</rscale>
<asrwt>0</asrwt>
<pdfrwt beam="1">  1       21 0.59846666E-01 0.46176315E+03</pdfrwt>
<pdfrwt beam="2">  1       21 0.19262860E-01 0.46176315E+03</pdfrwt>
<totfact> 0.59422417E+04</totfact>
</mgrwt>
</event>
<event>
 6    0  0.1576925E-007  0.4552737E+03  0.7546771E-02  0.1026161E+00
         21   -1    0    0  502  501  0.00000000000E+00  0.00000000000E+00  0.21147617519E+04  0.21147617519E+04  0.00000000000E+00 0. -1.
         21   -1    0    0  501  502 -0.00000000000E+00 -0.00000000000E+00 -0.24503252060E+02  0.24503252060E+02  0.00000000000E+00 0. -1.
      99926    2    1    2    0    0  0.00000000000E+00  0.00000000000E+00  0.20902584998E+04  0.21392650040E+04  0.45527372098E+03 0.  0.
         25    1    3    3    0    0 -0.15448837693E+02  0.61110019875E+02  0.45022510918E+03  0.47151167340E+03  0.12509000000E+03 0.  0.
         25    1    3    3    0    0 -0.12298137519E+02 -0.56137120113E+02  0.44360920419E+03  0.46447739943E+03  0.12509000000E+03 0.  0.
         25    1    3    3    0    0  0.27746975212E+02 -0.49728997620E+01  0.11964241865E+04  0.12032759311E+04  0.12509000000E+03 0.  0.
<mgrwt>
<rscale>  2 0.45527372E+03</rscale>
<asrwt>0</asrwt>
<pdfrwt beam="1">  1       21 0.31099425E+00 0.45527372E+03</pdfrwt>
<pdfrwt beam="2">  1       21 0.36034209E-02 0.45527372E+03</pdfrwt>
<totfact> 0.11541871E+04</totfact>
</mgrwt>
</event>
<event>
 6    0  0.1576925E-007  0.4692108E+03  0.7546771E-02  0.1022143E+00
         21   -1    0    0  502  501  0.00000000000E+00  0.00000000000E+00  0.11271587264E+03  0.11271587264E+03  0.00000000000E+00 0.  1.
         21   -1    0    0  501  502 -0.00000000000E+00 -0.00000000000E+00 -0.48830467061E+03  0.48830467061E+03  0.00000000000E+00 0.  1.
      99926    2    1    2    0    0  0.71054273576E-14  0.00000000000E+00 -0.37558879796E+03  0.60102054325E+03  0.46921077167E+03 0.  0.
         25    1    3    3    0    0 -0.24674523358E+02  0.24397424698E+02 -0.13016180385E+03  0.18383054620E+03  0.12509000000E+03 0.  0.
         25    1    3    3    0    0 -0.43619791518E+02 -0.32736663507E+02 -0.37706446923E+01  0.13651410627E+03  0.12509000000E+03 0.  0.
         25    1    3    3    0    0  0.68294314876E+02  0.83392388087E+01 -0.24165634942E+03  0.28067589077E+03  0.12509000000E+03 0.  0.
<mgrwt>
<rscale>  2 0.46921077E+03</rscale>
<asrwt>0</asrwt>
<pdfrwt beam="1">  1       21 0.16575864E-01 0.46921077E+03</pdfrwt>
<pdfrwt beam="2">  1       21 0.71809510E-01 0.46921077E+03</pdfrwt>
<totfact> 0.52470757E+04</totfact>
</mgrwt>
</event>
<event>
 6    0  0.1576925E-007  0.4717136E+03  0.7546771E-02  0.1021438E+00
         21   -1    0    0  502  501  0.00000000000E+00  0.00000000000E+00  0.69284130837E+03  0.69284130837E+03  0.00000000000E+00 0.  1.
         21   -1    0    0  501  502 -0.00000000000E+00 -0.00000000000E+00 -0.80290295718E+02  0.80290295718E+02  0.00000000000E+00 0.  1.
      99926    2    1    2    0    0  0.71054273576E-14  0.00000000000E+00  0.61255101265E+03  0.77313160409E+03  0.47171361454E+03 0.  0.
         25    1    3    3    0    0  0.60686172719E+02 -0.58675341223E+02  0.11147053100E+03  0.18761341799E+03  0.12509000000E+03 0.  0.
         25    1    3    3    0    0  0.35368191717E+02  0.87611003978E+01  0.15919283102E+03  0.20571225392E+03  0.12509000000E+03 0.  0.
         25    1    3    3    0    0 -0.96054364436E+02  0.49914240825E+02  0.34188765063E+03  0.37980593218E+03  0.12509000000E+03 0.  0.
<mgrwt>
<rscale>  2 0.47171361E+03</rscale>
<asrwt>0</asrwt>
<pdfrwt beam="1">  1       21 0.10188842E+00 0.47171361E+03</pdfrwt>
<pdfrwt beam="2">  1       21 0.11807397E-01 0.47171361E+03</pdfrwt>
<totfact> 0.43146496E+04</totfact>
</mgrwt>
</event>
<event>
 6    0  0.1576925E-007  0.4553913E+03  0.7546771E-02  0.1026126E+00
         21   -1    0    0  502  501  0.00000000000E+00  0.00000000000E+00  0.17640909331E+03  0.17640909331E+03  0.00000000000E+00 0.  1.
         21   -1    0    0  501  502 -0.00000000000E+00 -0.00000000000E+00 -0.29389254362E+03  0.29389254362E+03  0.00000000000E+00 0.  1.
      99926    2    1    2    0    0  0.71054273576E-14  0.44408920985E-15 -0.11748345031E+03  0.47030163692E+03  0.45539133566E+03 0.  0.
         25    1    3    3    0    0  0.71346873691E+02 -0.52039750475E+01 -0.41166822328E+02  0.14986551672E+03  0.12509000000E+03 0.  0.
         25    1    3    3    0    0 -0.50519951463E+02 -0.26648425274E+01 -0.12542166170E+03  0.18422124797E+03  0.12509000000E+03 0.  0.
         25    1    3    3    0    0 -0.20826922229E+02  0.78688175749E+01  0.49105033716E+02  0.13621487223E+03  0.12509000000E+03 0.  0.
<mgrwt>
<rscale>  2 0.45539134E+03</rscale>
<asrwt>0</asrwt>
<pdfrwt beam="1">  1       21 0.25942514E-01 0.45539134E+03</pdfrwt>
<pdfrwt beam="2">  1       21 0.43219491E-01 0.45539134E+03</pdfrwt>
<totfact> 0.67204411E+04</totfact>
</mgrwt>
</event>
<event>
 6    0  0.1576925E-007  0.4567119E+03  0.7546771E-02  0.1025739E+00
         21   -1    0    0  502  501  0.00000000000E+00  0.00000000000E+00  0.55446884717E+03  0.55446884717E+03  0.00000000000E+00 0.  1.
         21   -1    0    0  501  502 -0.00000000000E+00 -0.00000000000E+00 -0.94047553321E+02  0.94047553321E+02  0.00000000000E+00 0.  1.
      99926    2    1    2    0    0  0.00000000000E+00  0.35527136788E-14  0.46042129385E+03  0.64851640049E+03  0.45671189373E+03 0.  0.
         25    1    3    3    0    0  0.82325713238E+02 -0.66699682381E+02  0.17656490680E+03  0.24093369442E+03  0.12509000000E+03 0.  0.
         25    1    3    3    0    0 -0.82099098693E+02  0.22097984318E+02  0.10212634388E+03  0.18249898940E+03  0.12509000000E+03 0.  0.
         25    1    3    3    0    0 -0.22661454491E+00  0.44601698063E+02  0.18173004317E+03  0.22508371668E+03  0.12509000000E+03 0.  0.
<mgrwt>
<rscale>  2 0.45671189E+03</rscale>
<asrwt>0</asrwt>
<pdfrwt beam="1">  1       21 0.81539535E-01 0.45671189E+03</pdfrwt>
<pdfrwt beam="2">  1       21 0.13830523E-01 0.45671189E+03</pdfrwt>
<totfact> 0.55039901E+04</totfact>
</mgrwt>
</event>
<event>
 6    0  0.1576925E-007  0.4509745E+03  0.7546771E-02  0.1027432E+00
         21   -1    0    0  502  501  0.00000000000E+00  0.00000000000E+00  0.29565910660E+03  0.29565910660E+03  0.00000000000E+00 0.  1.
         21   -1    0    0  501  502 -0.00000000000E+00 -0.00000000000E+00 -0.17196999082E+03  0.17196999082E+03  0.00000000000E+00 0.  1.
      99926    2    1    2    0    0 -0.44408920985E-15  0.35527136788E-14  0.12368911578E+03  0.46762909741E+03  0.45097447310E+03 0.  0.
         25    1    3    3    0    0  0.71502649223E+02  0.57870096603E+01  0.16208398438E+01  0.14420906195E+03  0.12509000000E+03 0.  0.
         25    1    3    3    0    0  0.29175460968E+01  0.23733095401E+02  0.11985836743E+03  0.17488655819E+03  0.12509000000E+03 0.  0.
         25    1    3    3    0    0 -0.74420195320E+02 -0.29520105062E+02  0.22099085041E+01  0.14853347727E+03  0.12509000000E+03 0.  0.
<mgrwt>
<rscale>  2 0.45097447E+03</rscale>
<asrwt>0</asrwt>
<pdfrwt beam="1">  1       21 0.43479281E-01 0.45097447E+03</pdfrwt>
<pdfrwt beam="2">  1       21 0.25289704E-01 0.45097447E+03</pdfrwt>
<totfact> 0.69815543E+04</totfact>
</mgrwt>
</event>
<event>
 6    0  0.1576925E-007  0.4574708E+03  0.7546771E-02  0.1025517E+00
         21   -1    0    0  502  501  0.00000000000E+00  0.00000000000E+00  0.66764784778E+02  0.66764784778E+02  0.00000000000E+00 0.  1.
         21   -1    0    0  501  502 -0.00000000000E+00 -0.00000000000E+00 -0.78364494283E+03  0.78364494283E+03  0.00000000000E+00 0.  1.
      99926    2    1    2    0    0  0.00000000000E+00  0.35527136788E-14 -0.71688015806E+03  0.85040972761E+03  0.45747081197E+03 0.  0.
         25    1    3    3    0    0 -0.45864489089E+02 -0.30109081664E+02 -0.15064940122E+03  0.20335402220E+03  0.12509000000E+03 0.  0.
         25    1    3    3    0    0  0.60400603660E+01  0.50127086777E+02 -0.11685821981E+03  0.17847285170E+03  0.12509000000E+03 0.  0.
         25    1    3    3    0    0  0.39824428723E+02 -0.20018005114E+02 -0.44937253704E+03  0.46858285371E+03  0.12509000000E+03 0.  0.
<mgrwt>
<rscale>  2 0.45747081E+03</rscale>
<asrwt>0</asrwt>
<pdfrwt beam="1">  1       21 0.98183515E-02 0.45747081E+03</pdfrwt>
<pdfrwt beam="2">  1       21 0.11524189E+00 0.45747081E+03</pdfrwt>
<totfact> 0.44551247E+04</totfact>
</mgrwt>
</event>
<event>
 6    0  0.1576925E-007  0.4548573E+03  0.7546771E-02  0.1026283E+00
         21   -1    0    0  502  501  0.00000000000E+00  0.00000000000E+00  0.17436304439E+03  0.17436304439E+03  0.00000000000E+00 0.  1.
         21   -1    0    0  501  502 -0.00000000000E+00 -0.00000000000E+00 -0.29664421264E+03  0.29664421264E+03  0.00000000000E+00 0.  1.
      99926    2    1    2    0    0 -0.71054273576E-14  0.00000000000E+00 -0.12228116825E+03  0.47100725703E+03  0.45485728758E+03 0.  0.
         25    1    3    3    0    0  0.29637350432E+02  0.35794966649E+02 -0.29969552760E+02  0.13676744631E+03  0.12509000000E+03 0.  0.
         25    1    3    3    0    0 -0.10626074354E+03  0.14126071864E+02 -0.63934121577E+02  0.17670871944E+03  0.12509000000E+03 0.  0.
         25    1    3    3    0    0  0.76623393107E+02 -0.49921038513E+02 -0.28377493916E+02  0.15753109128E+03  0.12509000000E+03 0.  0.
<mgrwt>
<rscale>  2 0.45485729E+03</rscale>
<asrwt>0</asrwt>
<pdfrwt beam="1">  1       21 0.25641624E-01 0.45485729E+03</pdfrwt>
<pdfrwt beam="2">  1       21 0.43624149E-01 0.45485729E+03</pdfrwt>
<totfact> 0.67437193E+04</totfact>
</mgrwt>
</event>
<event>
 6    0  0.1576925E-007  0.4531855E+03  0.7546771E-02  0.1026776E+00
         21   -1    0    0  502  501  0.00000000000E+00  0.00000000000E+00  0.25131428776E+03  0.25131428776E+03  0.00000000000E+00 0.  1.
         21   -1    0    0  501  502 -0.00000000000E+00 -0.00000000000E+00 -0.20430307475E+03  0.20430307475E+03  0.00000000000E+00 0.  1.
      99926    2    1    2    0    0 -0.71054273576E-14  0.00000000000E+00  0.47011213008E+02  0.45561736252E+03  0.45318553251E+03 0.  0.
         25    1    3    3    0    0 -0.29051721747E+02 -0.23604819658E+02  0.36552024824E+02  0.13559037085E+03  0.12509000000E+03 0.  0.
         25    1    3    3    0    0  0.68426139141E+02  0.51168732003E+02 -0.66561237547E+02  0.16546383924E+03  0.12509000000E+03 0.  0.
         25    1    3    3    0    0 -0.39374417394E+02 -0.27563912346E+02  0.77020425731E+02  0.15456315243E+03  0.12509000000E+03 0.  0.
<mgrwt>
<rscale>  2 0.45318553E+03</rscale>
<asrwt>0</asrwt>
<pdfrwt beam="1">  1       21 0.36957984E-01 0.45318553E+03</pdfrwt>
<pdfrwt beam="2">  1       21 0.30044570E-01 0.45318553E+03</pdfrwt>
<totfact> 0.69501284E+04</totfact>
</mgrwt>
</event>
<event>
 6    0  0.1576925E-007  0.4552042E+03  0.7546771E-02  0.1026181E+00
         21   -1    0    0  502  501  0.00000000000E+00  0.00000000000E+00  0.56568010512E+03  0.56568010512E+03  0.00000000000E+00 0. -1.
         21   -1    0    0  501  502 -0.00000000000E+00 -0.00000000000E+00 -0.91576000183E+02  0.91576000183E+02  0.00000000000E+00 0. -1.
      99926    2    1    2    0    0 -0.71054273576E-14 -0.35527136788E-14  0.47410410494E+03  0.65725610531E+03  0.45520422410E+03 0.  0.
         25    1    3    3    0    0 -0.49085396179E+02  0.27147406327E+02  0.54677652963E+02  0.14759238335E+03  0.12509000000E+03 0.  0.
         25    1    3    3    0    0  0.63824250444E+02 -0.48283231891E+02  0.14783361287E+03  0.20954018856E+03  0.12509000000E+03 0.  0.
         25    1    3    3    0    0 -0.14738854265E+02  0.21135825564E+02  0.27159283911E+03  0.30012353340E+03  0.12509000000E+03 0.  0.
<mgrwt>
<rscale>  2 0.45520422E+03</rscale>
<asrwt>0</asrwt>
<pdfrwt beam="1">  1       21 0.83188249E-01 0.45520422E+03</pdfrwt>
<pdfrwt beam="2">  1       21 0.13467059E-01 0.45520422E+03</pdfrwt>
<totfact> 0.55196328E+04</totfact>
</mgrwt>
</event>
<event>
 6    0  0.1576925E-007  0.4548415E+03  0.7546771E-02  0.1026288E+00
         21   -1    0    0  502  501  0.00000000000E+00  0.00000000000E+00  0.27537788703E+02  0.27537788703E+02  0.00000000000E+00 0. -1.
         21   -1    0    0  501  502 -0.00000000000E+00 -0.00000000000E+00 -0.18781532607E+04  0.18781532607E+04  0.00000000000E+00 0. -1.
      99926    2    1    2    0    0  0.00000000000E+00  0.35527136788E-14 -0.18506154720E+04  0.19056910494E+04  0.45484145654E+03 0.  0.
         25    1    3    3    0    0 -0.78808160747E+02  0.15046086771E+02 -0.79296225717E+03  0.80676747600E+03  0.12509000000E+03 0.  0.
         25    1    3    3    0    0  0.78807217340E+01 -0.45476006356E+02 -0.31823469722E+03  0.34503768423E+03  0.12509000000E+03 0.  0.
         25    1    3    3    0    0  0.70927439013E+02  0.30429919585E+02 -0.73941851765E+03  0.75388588921E+03  0.12509000000E+03 0.  0.
<mgrwt>
<rscale>  2 0.45484146E+03</rscale>
<asrwt>0</asrwt>
<pdfrwt beam="1">  1       21 0.40496741E-02 0.45484146E+03</pdfrwt>
<pdfrwt beam="2">  1       21 0.27619906E+00 0.45484146E+03</pdfrwt>
<totfact> 0.15330038E+04</totfact>
</mgrwt>
</event>
<event>
 6    0  0.1576925E-007  0.4535794E+03  0.7546771E-02  0.1026660E+00
         21   -1    0    0  502  501  0.00000000000E+00  0.00000000000E+00  0.80055399639E+03  0.80055399639E+03  0.00000000000E+00 0.  1.
         21   -1    0    0  501  502 -0.00000000000E+00 -0.00000000000E+00 -0.64247460096E+02  0.64247460096E+02  0.00000000000E+00 0.  1.
      99926    2    1    2    0    0 -0.71054273576E-14  0.71054273576E-14  0.73630653629E+03  0.86480145648E+03  0.45357936874E+03 0.  0.
         25    1    3    3    0    0 -0.69490852823E+02 -0.41568976969E+02  0.16662993972E+03  0.22353971322E+03  0.12509000000E+03 0.  0.
         25    1    3    3    0    0  0.92998451353E+02  0.13029125180E+01  0.36506980849E+03  0.39695576920E+03  0.12509000000E+03 0.  0.
         25    1    3    3    0    0 -0.23507598530E+02  0.40266064451E+02  0.20460678808E+03  0.24430597406E+03  0.12509000000E+03 0.  0.
<mgrwt>
<rscale>  2 0.45357937E+03</rscale>
<asrwt>0</asrwt>
<pdfrwt beam="1">  1       21 0.11772852E+00 0.45357937E+03</pdfrwt>
<pdfrwt beam="2">  1       21 0.94481564E-02 0.45357937E+03</pdfrwt>
<totfact> 0.45286741E+04</totfact>
</mgrwt>
</event>
<event>
 6    0  0.1576925E-007  0.4311052E+03  0.7546771E-02  0.1033511E+00
         21   -1    0    0  502  501  0.00000000000E+00  0.00000000000E+00  0.13148069343E+04  0.13148069343E+04  0.00000000000E+00 0.  1.
         21   -1    0    0  501  502 -0.00000000000E+00 -0.00000000000E+00 -0.35338217174E+02  0.35338217174E+02  0.00000000000E+00 0.  1.
      99926    2    1    2    0    0  0.53290705182E-14  0.88817841970E-15  0.12794687171E+04  0.13501451514E+04  0.43110524462E+03 0.  0.
         25    1    3    3    0    0  0.81736499797E+01  0.73023873055E+01  0.23278149872E+03  0.26448982525E+03  0.12509000000E+03 0.  0.
         25    1    3    3    0    0  0.24467958147E+02  0.61436588299E+02  0.54106029884E+03  0.55925565749E+03  0.12509000000E+03 0.  0.
         25    1    3    3    0    0 -0.32641608126E+02 -0.68738975605E+02  0.50562691953E+03  0.52639966869E+03  0.12509000000E+03 0.  0.
<mgrwt>
<rscale>  2 0.43110524E+03</rscale>
<asrwt>0</asrwt>
<pdfrwt beam="1">  1       21 0.19335393E+00 0.43110524E+03</pdfrwt>
<pdfrwt beam="2">  1       21 0.51967975E-02 0.43110524E+03</pdfrwt>
<totfact> 0.33494051E+04</totfact>
</mgrwt>
</event>
<event>
 6    0  0.1576925E-007  0.4643708E+03  0.7546771E-02  0.1023521E+00
         21   -1    0    0  502  501  0.00000000000E+00  0.00000000000E+00  0.12963431163E+04  0.12963431163E+04  0.00000000000E+00 0.  1.
         21   -1    0    0  501  502 -0.00000000000E+00 -0.00000000000E+00 -0.41586260445E+02  0.41586260445E+02  0.00000000000E+00 0.  1.
      99926    2    1    2    0    0  0.00000000000E+00  0.00000000000E+00  0.12547568558E+04  0.13379293767E+04  0.46437081070E+03 0.  0.
         25    1    3    3    0    0  0.31506938127E+01 -0.25856246430E+02  0.25198506291E+03  0.28252867532E+03  0.12509000000E+03 0.  0.
         25    1    3    3    0    0  0.19790822242E+02 -0.91291737405E+02  0.48817524227E+03  0.51253139731E+03  0.12509000000E+03 0.  0.
         25    1    3    3    0    0 -0.22941516055E+02  0.11714798384E+03  0.51459655064E+03  0.54286930408E+03  0.12509000000E+03 0.  0.
<mgrwt>
<rscale>  2 0.46437081E+03</rscale>
<asrwt>0</asrwt>
<pdfrwt beam="1">  1       21 0.19063867E+00 0.46437081E+03</pdfrwt>
<pdfrwt beam="2">  1       21 0.61156274E-02 0.46437081E+03</pdfrwt>
<totfact> 0.26080217E+04</totfact>
</mgrwt>
</event>
<event>
 6    0  0.1576925E-007  0.4675647E+03  0.7546771E-02  0.1022610E+00
         21   -1    0    0  502  501  0.00000000000E+00  0.00000000000E+00  0.41994724520E+02  0.41994724520E+02  0.00000000000E+00 0. -1.
         21   -1    0    0  501  502 -0.00000000000E+00 -0.00000000000E+00 -0.13014535731E+04  0.13014535731E+04  0.00000000000E+00 0. -1.
      99926    2    1    2    0    0  0.00000000000E+00  0.00000000000E+00 -0.12594588485E+04  0.13434482976E+04  0.46756468762E+03 0.  0.
         25    1    3    3    0    0  0.21361111791E+02 -0.87224882493E+02 -0.36681755672E+03  0.39782798449E+03  0.12509000000E+03 0.  0.
         25    1    3    3    0    0  0.77104871199E+01 -0.39744894208E+02 -0.37518322449E+03  0.39755385580E+03  0.12509000000E+03 0.  0.
         25    1    3    3    0    0 -0.29071598911E+02  0.12696977670E+03 -0.51745806733E+03  0.54806645729E+03  0.12509000000E+03 0.  0.
<mgrwt>
<rscale>  2 0.46756469E+03</rscale>
<asrwt>0</asrwt>
<pdfrwt beam="1">  1       21 0.61756963E-02 0.46756469E+03</pdfrwt>
<pdfrwt beam="2">  1       21 0.19139019E+00 0.46756469E+03</pdfrwt>
<totfact> 0.25313732E+04</totfact>
</mgrwt>
</event>
<event>
 6    0  0.1576925E-007  0.4400605E+03  0.7546771E-02  0.1030728E+00
         21   -1    0    0  502  501  0.00000000000E+00  0.00000000000E+00  0.12182590846E+04  0.12182590846E+04  0.00000000000E+00 0. -1.
         21   -1    0    0  501  502 -0.00000000000E+00 -0.00000000000E+00 -0.39739744368E+02  0.39739744368E+02  0.00000000000E+00 0. -1.
      99926    2    1    2    0    0 -0.88817841970E-14  0.00000000000E+00  0.11785193402E+04  0.12579988290E+04  0.44006047128E+03 0.  0.
         25    1    3    3    0    0  0.73218483580E+02  0.48107465920E+02  0.32615902966E+03  0.36014232651E+03  0.12509000000E+03 0.  0.
         25    1    3    3    0    0 -0.60968689602E+02 -0.61146454916E+02  0.53771652200E+03  0.55878675377E+03  0.12509000000E+03 0.  0.
         25    1    3    3    0    0 -0.12249793978E+02  0.13038988996E+02  0.31464378857E+03  0.33906974868E+03  0.12509000000E+03 0.  0.
<mgrwt>
<rscale>  2 0.44006047E+03</rscale>
<asrwt>0</asrwt>
<pdfrwt beam="1">  1       21 0.17915572E+00 0.44006047E+03</pdfrwt>
<pdfrwt beam="2">  1       21 0.58440809E-02 0.44006047E+03</pdfrwt>
<totfact> 0.34160905E+04</totfact>
</mgrwt>
</event>
<event>
 6    0  0.1576925E-007  0.4512733E+03  0.7546771E-02  0.1027343E+00
         21   -1    0    0  502  501  0.00000000000E+00  0.00000000000E+00  0.22338707819E+03  0.22338707819E+03  0.00000000000E+00 0.  1.
         21   -1    0    0  501  502 -0.00000000000E+00 -0.00000000000E+00 -0.22790888860E+03  0.22790888860E+03  0.00000000000E+00 0.  1.
      99926    2    1    2    0    0  0.14210854715E-13  0.35527136788E-14 -0.45218104066E+01  0.45129596678E+03  0.45127331282E+03 0.  0.
         25    1    3    3    0    0 -0.80983917662E+02 -0.20919050406E+02 -0.43865651729E+02  0.15674088519E+03  0.12509000000E+03 0.  0.
         25    1    3    3    0    0  0.10098821717E+03  0.39774294673E+01  0.43785385733E+02  0.16667065746E+03  0.12509000000E+03 0.  0.
         25    1    3    3    0    0 -0.20004299512E+02  0.16941620938E+02 -0.44415444115E+01  0.12788442413E+03  0.12509000000E+03 0.  0.
<mgrwt>
<rscale>  2 0.45127331E+03</rscale>
<asrwt>0</asrwt>
<pdfrwt beam="1">  1       21 0.32851041E-01 0.45127331E+03</pdfrwt>
<pdfrwt beam="2">  1       21 0.33516013E-01 0.45127331E+03</pdfrwt>
<totfact> 0.70902968E+04</totfact>
</mgrwt>
</event>
<event>
 6    0  0.1576925E-007  0.4782272E+03  0.7546771E-02  0.1019624E+00
         21   -1    0    0  502  501  0.00000000000E+00  0.00000000000E+00  0.17860831492E+03  0.17860831492E+03  0.00000000000E+00 0. -1.
         21   -1    0    0  501  502 -0.00000000000E+00 -0.00000000000E+00 -0.32011563275E+03  0.32011563275E+03  0.00000000000E+00 0. -1.
      99926    2    1    2    0    0 -0.14210854715E-13 -0.14210854715E-13 -0.14150731783E+03  0.49872394767E+03  0.47822720017E+03 0.  0.
         25    1    3    3    0    0  0.18429079262E+02  0.16267498347E+02 -0.12401118926E+03  0.17784978388E+03  0.12509000000E+03 0.  0.
         25    1    3    3    0    0  0.50209883580E+02  0.68701709081E+02 -0.30371510034E+02  0.15430778970E+03  0.12509000000E+03 0.  0.
         25    1    3    3    0    0 -0.68638962842E+02 -0.84969207428E+02  0.12875381466E+02  0.16656637409E+03  0.12509000000E+03 0.  0.
<mgrwt>
<rscale>  2 0.47822720E+03</rscale>
<asrwt>0</asrwt>
<pdfrwt beam="1">  1       21 0.26265929E-01 0.47822720E+03</pdfrwt>
<pdfrwt beam="2">  1       21 0.47075828E-01 0.47822720E+03</pdfrwt>
<totfact> 0.54581084E+04</totfact>
</mgrwt>
</event>
<event>
 6    0  0.1576925E-007  0.4524220E+03  0.7546771E-02  0.1027002E+00
         21   -1    0    0  502  501  0.00000000000E+00  0.00000000000E+00  0.37413872953E+03  0.37413872953E+03  0.00000000000E+00 0. -1.
         21   -1    0    0  501  502 -0.00000000000E+00 -0.00000000000E+00 -0.13677125573E+03  0.13677125573E+03  0.00000000000E+00 0. -1.
      99926    2    1    2    0    0 -0.35527136788E-14  0.17763568394E-14  0.23736747380E+03  0.51090998525E+03  0.45242203241E+03 0.  0.
         25    1    3    3    0    0 -0.55944735704E+02 -0.36110940584E+01  0.18771155190E+03  0.23243491190E+03  0.12509000000E+03 0.  0.
         25    1    3    3    0    0  0.23213124464E+02 -0.15956694037E+02  0.70067712315E+02  0.14611795797E+03  0.12509000000E+03 0.  0.
         25    1    3    3    0    0  0.32731611241E+02  0.19567788096E+02 -0.20411790410E+02  0.13235711539E+03  0.12509000000E+03 0.  0.
<mgrwt>
<rscale>  2 0.45242203E+03</rscale>
<asrwt>0</asrwt>
<pdfrwt beam="1">  1       21 0.55020401E-01 0.45242203E+03</pdfrwt>
<pdfrwt beam="2">  1       21 0.20113420E-01 0.45242203E+03</pdfrwt>
<totfact> 0.65847637E+04</totfact>
</mgrwt>
</event>
<event>
 6    0  0.1576925E-007  0.4419242E+03  0.7546771E-02  0.1030158E+00
         21   -1    0    0  502  501  0.00000000000E+00  0.00000000000E+00  0.56213416749E+03  0.56213416749E+03  0.00000000000E+00 0. -1.
         21   -1    0    0  501  502 -0.00000000000E+00 -0.00000000000E+00 -0.86855166686E+02  0.86855166686E+02  0.00000000000E+00 0. -1.
      99926    2    1    2    0    0  0.35527136788E-14 -0.88817841970E-14  0.47527900080E+03  0.64898933417E+03  0.44192423250E+03 0.  0.
         25    1    3    3    0    0  0.32845921467E+02  0.89795988416E+02  0.20779176180E+03  0.26070500276E+03  0.12509000000E+03 0.  0.
         25    1    3    3    0    0 -0.37112228881E+02 -0.75580972154E+02  0.18052000587E+03  0.23521220526E+03  0.12509000000E+03 0.  0.
         25    1    3    3    0    0  0.42663074143E+01 -0.14215016262E+02  0.86967233132E+02  0.15307212615E+03  0.12509000000E+03 0.  0.
<mgrwt>
<rscale>  2 0.44192423E+03</rscale>
<asrwt>0</asrwt>
<pdfrwt beam="1">  1       21 0.82666788E-01 0.44192423E+03</pdfrwt>
<pdfrwt beam="2">  1       21 0.12772819E-01 0.44192423E+03</pdfrwt>
<totfact> 0.61900994E+04</totfact>
</mgrwt>
</event>
<event>
 6    0  0.1576925E-007  0.4524048E+03  0.7546771E-02  0.1027007E+00
         21   -1    0    0  502  501  0.00000000000E+00  0.00000000000E+00  0.25889340538E+03  0.25889340538E+03  0.00000000000E+00 0. -1.
         21   -1    0    0  501  502 -0.00000000000E+00 -0.00000000000E+00 -0.19763935422E+03  0.19763935422E+03  0.00000000000E+00 0. -1.
      99926    2    1    2    0    0  0.00000000000E+00 -0.35527136788E-14  0.61254051158E+02  0.45653275961E+03  0.45240479862E+03 0.  0.
         25    1    3    3    0    0 -0.60572535228E+02 -0.27057792808E+02 -0.19261569436E+02  0.14289741892E+03  0.12509000000E+03 0.  0.
         25    1    3    3    0    0 -0.91860540003E+01 -0.20098555142E+02  0.99901250888E+02  0.16160477572E+03  0.12509000000E+03 0.  0.
         25    1    3    3    0    0  0.69758589228E+02  0.47156347951E+02 -0.19385630294E+02  0.15203056497E+03  0.12509000000E+03 0.  0.
<mgrwt>
<rscale>  2 0.45240480E+03</rscale>
<asrwt>0</asrwt>
<pdfrwt beam="1">  1       21 0.38072560E-01 0.45240480E+03</pdfrwt>
<pdfrwt beam="2">  1       21 0.29064611E-01 0.45240480E+03</pdfrwt>
<totfact> 0.69868853E+04</totfact>
</mgrwt>
</event>
<event>
 6    0  0.1576925E-007  0.4608842E+03  0.7546771E-02  0.1024525E+00
         21   -1    0    0  502  501  0.00000000000E+00  0.00000000000E+00  0.20248042910E+04  0.20248042910E+04  0.00000000000E+00 0. -1.
         21   -1    0    0  501  502 -0.00000000000E+00 -0.00000000000E+00 -0.26226512824E+02  0.26226512824E+02  0.00000000000E+00 0. -1.
      99926    2    1    2    0    0  0.00000000000E+00  0.17763568394E-14  0.19985777782E+04  0.20510308039E+04  0.46088417506E+03 0.  0.
         25    1    3    3    0    0  0.99324826699E+01 -0.80523562201E+02  0.84883740992E+03  0.86183244013E+03  0.12509000000E+03 0.  0.
         25    1    3    3    0    0  0.93173298369E+01  0.89117025363E+02  0.39573859815E+03  0.42460005065E+03  0.12509000000E+03 0.  0.
         25    1    3    3    0    0 -0.19249812507E+02 -0.85934631623E+01  0.75400177014E+03  0.76459831308E+03  0.12509000000E+03 0.  0.
<mgrwt>
<rscale>  2 0.46088418E+03</rscale>
<asrwt>0</asrwt>
<pdfrwt beam="1">  1       21 0.29776523E+00 0.46088418E+03</pdfrwt>
<pdfrwt beam="2">  1       21 0.38568415E-02 0.46088418E+03</pdfrwt>
<totfact> 0.12321897E+04</totfact>
</mgrwt>
</event>
<event>
 6    0  0.1576925E-007  0.4189152E+03  0.7546771E-02  0.1037420E+00
         21   -1    0    0  502  501  0.00000000000E+00  0.00000000000E+00  0.87506521766E+02  0.87506521766E+02  0.00000000000E+00 0.  1.
         21   -1    0    0  501  502 -0.00000000000E+00 -0.00000000000E+00 -0.50136242903E+03  0.50136242903E+03  0.00000000000E+00 0.  1.
      99926    2    1    2    0    0  0.17763568394E-14  0.00000000000E+00 -0.41385590726E+03  0.58886895079E+03  0.41891518143E+03 0.  0.
         25    1    3    3    0    0  0.28441467247E+02  0.25636411154E+02 -0.56709083663E+02  0.14258180426E+03  0.12509000000E+03 0.  0.
         25    1    3    3    0    0  0.11036551407E+02 -0.45331964511E+02 -0.20247434142E+03  0.24252867770E+03  0.12509000000E+03 0.  0.
         25    1    3    3    0    0 -0.39478018653E+02  0.19695553357E+02 -0.15467248218E+03  0.20375846884E+03  0.12509000000E+03 0.  0.
<mgrwt>
<rscale>  2 0.41891518E+03</rscale>
<asrwt>0</asrwt>
<pdfrwt beam="1">  1       21 0.12868606E-01 0.41891518E+03</pdfrwt>
<pdfrwt beam="2">  1       21 0.73729770E-01 0.41891518E+03</pdfrwt>
<totfact> 0.79805626E+04</totfact>
</mgrwt>
</event>
<event>
 6    0  0.1576925E-007  0.4661494E+03  0.7546771E-02  0.1023013E+00
         21   -1    0    0  502  501  0.00000000000E+00  0.00000000000E+00  0.10494186340E+03  0.10494186340E+03  0.00000000000E+00 0.  1.
         21   -1    0    0  501  502 -0.00000000000E+00 -0.00000000000E+00 -0.51765622305E+03  0.51765622305E+03  0.00000000000E+00 0.  1.
      99926    2    1    2    0    0 -0.71054273576E-14  0.00000000000E+00 -0.41271435965E+03  0.62259808645E+03  0.46614936940E+03 0.  0.
         25    1    3    3    0    0  0.70634220700E+01  0.41683840734E+02 -0.12891146145E+03  0.18453484089E+03  0.12509000000E+03 0.  0.
         25    1    3    3    0    0 -0.84328143576E+02 -0.79010447700E+02 -0.20695829577E+03  0.26801703478E+03  0.12509000000E+03 0.  0.
         25    1    3    3    0    0  0.77264721506E+02  0.37326606966E+02 -0.76844602431E+02  0.17004621078E+03  0.12509000000E+03 0.  0.
<mgrwt>
<rscale>  2 0.46614937E+03</rscale>
<asrwt>0</asrwt>
<pdfrwt beam="1">  1       21 0.15432628E-01 0.46614937E+03</pdfrwt>
<pdfrwt beam="2">  1       21 0.76125911E-01 0.46614937E+03</pdfrwt>
<totfact> 0.52528728E+04</totfact>
</mgrwt>
</event>
<event>
 6    0  0.1576925E-007  0.4625905E+03  0.7546771E-02  0.1024033E+00
         21   -1    0    0  502  501  0.00000000000E+00  0.00000000000E+00  0.15421131712E+04  0.15421131712E+04  0.00000000000E+00 0.  1.
         21   -1    0    0  501  502 -0.00000000000E+00 -0.00000000000E+00 -0.34691034592E+02  0.34691034592E+02  0.00000000000E+00 0.  1.
      99926    2    1    2    0    0  0.14210854715E-13 -0.17763568394E-14  0.15074221366E+04  0.15768042058E+04  0.46259053759E+03 0.  0.
         25    1    3    3    0    0 -0.10565494813E+03  0.11750614120E+02  0.51724795111E+03  0.54267301022E+03  0.12509000000E+03 0.  0.
         25    1    3    3    0    0  0.43043573967E+01 -0.42874032039E+02  0.50260485006E+03  0.51972671042E+03  0.12509000000E+03 0.  0.
         25    1    3    3    0    0  0.10135059074E+03  0.31123417919E+02  0.48756933542E+03  0.51440448513E+03  0.12509000000E+03 0.  0.
<mgrwt>
<rscale>  2 0.46259054E+03</rscale>
<asrwt>0</asrwt>
<pdfrwt beam="1">  1       21 0.22678130E+00 0.46259054E+03</pdfrwt>
<pdfrwt beam="2">  1       21 0.51016238E-02 0.46259054E+03</pdfrwt>
<totfact> 0.20710027E+04</totfact>
</mgrwt>
</event>
<event>
 6    0  0.1576925E-007  0.4529116E+03  0.7546771E-02  0.1026857E+00
         21   -1    0    0  502  501  0.00000000000E+00  0.00000000000E+00  0.67235356214E+02  0.67235356214E+02  0.00000000000E+00 0.  1.
         21   -1    0    0  501  502 -0.00000000000E+00 -0.00000000000E+00 -0.76272720690E+03  0.76272720690E+03  0.00000000000E+00 0.  1.
      99926    2    1    2    0    0 -0.35527136788E-14  0.12490009027E-14 -0.69549185069E+03  0.82996256312E+03  0.45291162692E+03 0.  0.
         25    1    3    3    0    0 -0.31945590498E+02 -0.13796407781E+00 -0.16576821309E+03  0.21011222800E+03  0.12509000000E+03 0.  0.
         25    1    3    3    0    0  0.36841858033E+02  0.35231295819E+02 -0.92520388950E+02  0.16372567661E+03  0.12509000000E+03 0.  0.
         25    1    3    3    0    0 -0.48962675354E+01 -0.35093331741E+02 -0.43720324865E+03  0.45612465851E+03  0.12509000000E+03 0.  0.
<mgrwt>
<rscale>  2 0.45291163E+03</rscale>
<asrwt>0</asrwt>
<pdfrwt beam="1">  1       21 0.98875524E-02 0.45291163E+03</pdfrwt>
<pdfrwt beam="2">  1       21 0.11216577E+00 0.45291163E+03</pdfrwt>
<totfact> 0.47116755E+04</totfact>
</mgrwt>
</event>
<event>
 6    0  0.1576925E-007  0.4558360E+03  0.7546771E-02  0.1025996E+00
         21   -1    0    0  502  501  0.00000000000E+00  0.00000000000E+00  0.16411332222E+03  0.16411332222E+03  0.00000000000E+00 0. -1.
         21   -1    0    0  501  502 -0.00000000000E+00 -0.00000000000E+00 -0.31652899012E+03  0.31652899012E+03  0.00000000000E+00 0. -1.
      99926    2    1    2    0    0 -0.17763568394E-14  0.00000000000E+00 -0.15241566790E+03  0.48064231234E+03  0.45583604135E+03 0.  0.
         25    1    3    3    0    0 -0.83633527323E+02 -0.35854491296E+02 -0.67972099937E+02  0.16896101890E+03  0.12509000000E+03 0.  0.
         25    1    3    3    0    0  0.71702114449E+02 -0.44441521879E+02 -0.44510924439E+02  0.15730534822E+03  0.12509000000E+03 0.  0.
         25    1    3    3    0    0  0.11931412874E+02  0.80296013175E+02 -0.39932643523E+02  0.15437594522E+03  0.12509000000E+03 0.  0.
<mgrwt>
<rscale>  2 0.45583604E+03</rscale>
<asrwt>0</asrwt>
<pdfrwt beam="1">  1       21 0.24134312E-01 0.45583604E+03</pdfrwt>
<pdfrwt beam="2">  1       21 0.46548381E-01 0.45583604E+03</pdfrwt>
<totfact> 0.66212887E+04</totfact>
</mgrwt>
</event>
<event>
 6    0  0.1576925E-007  0.4486984E+03  0.7546771E-02  0.1028111E+00
         21   -1    0    0  502  501  0.00000000000E+00  0.00000000000E+00  0.13836969241E+03  0.13836969241E+03  0.00000000000E+00 0.  1.
         21   -1    0    0  501  502 -0.00000000000E+00 -0.00000000000E+00 -0.36375425399E+03  0.36375425399E+03  0.00000000000E+00 0.  1.
      99926    2    1    2    0    0  0.00000000000E+00  0.00000000000E+00 -0.22538456158E+03  0.50212394639E+03  0.44869840310E+03 0.  0.
         25    1    3    3    0    0 -0.28028130775E+02  0.43693860976E+02 -0.19792728623E+03  0.23982795570E+03  0.12509000000E+03 0.  0.
         25    1    3    3    0    0  0.34993977115E+02 -0.37942317533E+02 -0.10301491356E+02  0.13571229391E+03  0.12509000000E+03 0.  0.
         25    1    3    3    0    0 -0.69658463405E+01 -0.57515434431E+01 -0.17155783997E+02  0.12658369679E+03  0.12509000000E+03 0.  0.
<mgrwt>
<rscale>  2 0.44869840E+03</rscale>
<asrwt>0</asrwt>
<pdfrwt beam="1">  1       21 0.20348485E-01 0.44869840E+03</pdfrwt>
<pdfrwt beam="2">  1       21 0.53493272E-01 0.44869840E+03</pdfrwt>
<totfact> 0.68483451E+04</totfact>
</mgrwt>
</event>
<event>
 6    0  0.1576925E-007  0.4591121E+03  0.7546771E-02  0.1025039E+00
         21   -1    0    0  502  501  0.00000000000E+00  0.00000000000E+00  0.84928228926E+03  0.84928228926E+03  0.00000000000E+00 0.  1.
         21   -1    0    0  501  502 -0.00000000000E+00 -0.00000000000E+00 -0.62047654485E+02  0.62047654485E+02  0.00000000000E+00 0.  1.
      99926    2    1    2    0    0 -0.14210854715E-13 -0.14210854715E-13  0.78723463478E+03  0.91132994375E+03  0.45911207366E+03 0.  0.
         25    1    3    3    0    0  0.65447012253E+02  0.38938024004E+02  0.29743928410E+03  0.33153750459E+03  0.12509000000E+03 0.  0.
         25    1    3    3    0    0 -0.70068770658E+02 -0.90488590878E+02  0.21818501606E+03  0.27631508651E+03  0.12509000000E+03 0.  0.
         25    1    3    3    0    0  0.46217584049E+01  0.51550566874E+02  0.27161033462E+03  0.30347735264E+03  0.12509000000E+03 0.  0.
<mgrwt>
<rscale>  2 0.45911207E+03</rscale>
<asrwt>0</asrwt>
<pdfrwt beam="1">  1       21 0.12489445E+00 0.45911207E+03</pdfrwt>
<pdfrwt beam="2">  1       21 0.91246556E-02 0.45911207E+03</pdfrwt>
<totfact> 0.41398688E+04</totfact>
</mgrwt>
</event>
<event>
 6    0  0.1576925E-007  0.4537776E+03  0.7546771E-02  0.1026601E+00
         21   -1    0    0  502  501  0.00000000000E+00  0.00000000000E+00  0.48825889791E+03  0.48825889791E+03  0.00000000000E+00 0.  1.
         21   -1    0    0  501  502 -0.00000000000E+00 -0.00000000000E+00 -0.10543284451E+03  0.10543284451E+03  0.00000000000E+00 0.  1.
      99926    2    1    2    0    0  0.00000000000E+00  0.00000000000E+00  0.38282605340E+03  0.59369174242E+03  0.45377758633E+03 0.  0.
         25    1    3    3    0    0 -0.91418673250E+02  0.94835258526E+01  0.16671544617E+03  0.22779126229E+03  0.12509000000E+03 0.  0.
         25    1    3    3    0    0  0.42857286602E+02  0.35069415178E+02  0.16777627913E+03  0.21647863367E+03  0.12509000000E+03 0.  0.
         25    1    3    3    0    0  0.48561386649E+02 -0.44552941031E+02  0.48334328091E+02  0.14942184646E+03  0.12509000000E+03 0.  0.
<mgrwt>
<rscale>  2 0.45377759E+03</rscale>
<asrwt>0</asrwt>
<pdfrwt beam="1">  1       21 0.71802778E-01 0.45377759E+03</pdfrwt>
<pdfrwt beam="2">  1       21 0.15504830E-01 0.45377759E+03</pdfrwt>
<totfact> 0.59642324E+04</totfact>
</mgrwt>
</event>
<event>
 6    0  0.1576925E-007  0.4583167E+03  0.7546771E-02  0.1025271E+00
         21   -1    0    0  502  501  0.00000000000E+00  0.00000000000E+00  0.39472199704E+03  0.39472199704E+03  0.00000000000E+00 0. -1.
         21   -1    0    0  501  502 -0.00000000000E+00 -0.00000000000E+00 -0.13303931628E+03  0.13303931628E+03  0.00000000000E+00 0. -1.
      99926    2    1    2    0    0  0.71054273576E-14  0.35527136788E-14  0.26168268076E+03  0.52776131332E+03  0.45831667920E+03 0.  0.
         25    1    3    3    0    0  0.36158956669E+02 -0.22584277881E+02  0.83184697657E+01  0.13241685993E+03  0.12509000000E+03 0.  0.
         25    1    3    3    0    0  0.25892745855E+02 -0.52993520619E+02  0.15864116819E+03  0.21045967752E+03  0.12509000000E+03 0.  0.
         25    1    3    3    0    0 -0.62051702524E+02  0.75577798500E+02  0.94723042803E+02  0.18488477587E+03  0.12509000000E+03 0.  0.
<mgrwt>
<rscale>  2 0.45831668E+03</rscale>
<asrwt>0</asrwt>
<pdfrwt beam="1">  1       21 0.58047352E-01 0.45831668E+03</pdfrwt>
<pdfrwt beam="2">  1       21 0.19564605E-01 0.45831668E+03</pdfrwt>
<totfact> 0.61719599E+04</totfact>
</mgrwt>
</event>
<event>
 6    0  0.1576925E-007  0.4487363E+03  0.7546771E-02  0.1028100E+00
         21   -1    0    0  502  501  0.00000000000E+00  0.00000000000E+00  0.52630302790E+02  0.52630302790E+02  0.00000000000E+00 0. -1.
         21   -1    0    0  501  502 -0.00000000000E+00 -0.00000000000E+00 -0.95650348098E+03  0.95650348098E+03  0.00000000000E+00 0. -1.
      99926    2    1    2    0    0  0.00000000000E+00 -0.14210854715E-13 -0.90387317819E+03  0.10091337838E+04  0.44873630486E+03 0.  0.
         25    1    3    3    0    0  0.64739422794E+02  0.66639593250E+02 -0.34621053391E+03  0.37965941335E+03  0.12509000000E+03 0.  0.
         25    1    3    3    0    0 -0.34775697023E+02 -0.76789866265E+02 -0.20936355575E+03  0.25804387077E+03  0.12509000000E+03 0.  0.
         25    1    3    3    0    0 -0.29963725771E+02  0.10150273015E+02 -0.34829908853E+03  0.37143049966E+03  0.12509000000E+03 0.  0.
<mgrwt>
<rscale>  2 0.44873630E+03</rscale>
<asrwt>0</asrwt>
<pdfrwt beam="1">  1       21 0.77397512E-02 0.44873630E+03</pdfrwt>
<pdfrwt beam="2">  1       21 0.14066226E+00 0.44873630E+03</pdfrwt>
<totfact> 0.40771391E+04</totfact>
</mgrwt>
</event>
<event>
 6    0  0.1576925E-007  0.4519866E+03  0.7546771E-02  0.1027131E+00
         21   -1    0    0  502  501  0.00000000000E+00  0.00000000000E+00  0.30516872030E+03  0.30516872030E+03  0.00000000000E+00 0. -1.
         21   -1    0    0  501  502 -0.00000000000E+00 -0.00000000000E+00 -0.16735981581E+03  0.16735981581E+03  0.00000000000E+00 0. -1.
      99926    2    1    2    0    0  0.14210854715E-13 -0.53290705182E-14  0.13780890450E+03  0.47252853611E+03  0.45198664060E+03 0.  0.
         25    1    3    3    0    0 -0.23145571974E+02 -0.66481041194E+02  0.43794817911E+02  0.15006978549E+03  0.12509000000E+03 0.  0.
         25    1    3    3    0    0  0.80000234402E+02  0.43085825389E+01  0.85517139370E+02  0.17140388156E+03  0.12509000000E+03 0.  0.
         25    1    3    3    0    0 -0.56854662428E+02  0.62172458655E+02  0.84969472166E+01  0.15105486906E+03  0.12509000000E+03 0.  0.
<mgrwt>
<rscale>  2 0.45198664E+03</rscale>
<asrwt>0</asrwt>
<pdfrwt beam="1">  1       21 0.44877753E-01 0.45198664E+03</pdfrwt>
<pdfrwt beam="2">  1       21 0.24611738E-01 0.45198664E+03</pdfrwt>
<totfact> 0.68880574E+04</totfact>
</mgrwt>
</event>
<event>
 6    0  0.1576925E-007  0.4489218E+03  0.7546771E-02  0.1028044E+00
         21   -1    0    0  502  501  0.00000000000E+00  0.00000000000E+00  0.26538847184E+03  0.26538847184E+03  0.00000000000E+00 0. -1.
         21   -1    0    0  501  502 -0.00000000000E+00 -0.00000000000E+00 -0.18984509396E+03  0.18984509396E+03  0.00000000000E+00 0. -1.
      99926    2    1    2    0    0  0.00000000000E+00 -0.71054273576E-14  0.75543377879E+02  0.45523356580E+03  0.44892181668E+03 0.  0.
         25    1    3    3    0    0  0.12313781888E+02  0.68920536318E+02 -0.16254576435E+02  0.14426846123E+03  0.12509000000E+03 0.  0.
         25    1    3    3    0    0 -0.12205437934E+02 -0.48985590982E+02 -0.26700125388E+02  0.13750987468E+03  0.12509000000E+03 0.  0.
         25    1    3    3    0    0 -0.10834395400E+00 -0.19934945336E+02  0.11849807970E+03  0.17345522989E+03  0.12509000000E+03 0.  0.
<mgrwt>
<rscale>  2 0.44892182E+03</rscale>
<asrwt>0</asrwt>
<pdfrwt beam="1">  1       21 0.39027716E-01 0.44892182E+03</pdfrwt>
<pdfrwt beam="2">  1       21 0.27918396E-01 0.44892182E+03</pdfrwt>
<totfact> 0.71954125E+04</totfact>
</mgrwt>
</event>
<event>
 6    0  0.1576925E-007  0.4576048E+03  0.7546771E-02  0.1025478E+00
         21   -1    0    0  502  501  0.00000000000E+00  0.00000000000E+00  0.74739509143E+03  0.74739509143E+03  0.00000000000E+00 0. -1.
         21   -1    0    0  501  502 -0.00000000000E+00 -0.00000000000E+00 -0.70043999380E+02  0.70043999380E+02  0.00000000000E+00 0. -1.
      99926    2    1    2    0    0  0.00000000000E+00 -0.35527136788E-14  0.67735109205E+03  0.81743909081E+03  0.45760481344E+03 0.  0.
         25    1    3    3    0    0 -0.12359919272E+00 -0.53527670771E+02  0.78638880532E+02  0.15715218244E+03  0.12509000000E+03 0.  0.
         25    1    3    3    0    0  0.15461764669E+02  0.13770746460E+02  0.17268197506E+03  0.21423181892E+03  0.12509000000E+03 0.  0.
         25    1    3    3    0    0 -0.15338165476E+02  0.39756924311E+02  0.42603023645E+03  0.44605508945E+03  0.12509000000E+03 0.  0.
<mgrwt>
<rscale>  2 0.45760481E+03</rscale>
<asrwt>0</asrwt>
<pdfrwt beam="1">  1       21 0.10991104E+00 0.45760481E+03</pdfrwt>
<pdfrwt beam="2">  1       21 0.10300589E-01 0.45760481E+03</pdfrwt>
<totfact> 0.45985695E+04</totfact>
</mgrwt>
</event>
<event>
 6    0  0.1576925E-007  0.4611599E+03  0.7546771E-02  0.1024445E+00
         21   -1    0    0  502  501  0.00000000000E+00  0.00000000000E+00  0.54103989737E+02  0.54103989737E+02  0.00000000000E+00 0. -1.
         21   -1    0    0  501  502 -0.00000000000E+00 -0.00000000000E+00 -0.98268393078E+03  0.98268393078E+03  0.00000000000E+00 0. -1.
      99926    2    1    2    0    0  0.71054273576E-14  0.00000000000E+00 -0.92857994104E+03  0.10367879205E+04  0.46115993454E+03 0.  0.
         25    1    3    3    0    0  0.42227548382E+02 -0.24175633109E+02 -0.35574844901E+03  0.38022637224E+03  0.12509000000E+03 0.  0.
         25    1    3    3    0    0  0.70061188530E+02  0.46914476616E+02 -0.28512703948E+03  0.32257475877E+03  0.12509000000E+03 0.  0.
         25    1    3    3    0    0 -0.11228873691E+03 -0.22738843506E+02 -0.28770445256E+03  0.33398678951E+03  0.12509000000E+03 0.  0.
<mgrwt>
<rscale>  2 0.46115993E+03</rscale>
<asrwt>0</asrwt>
<pdfrwt beam="1">  1       21 0.79564688E-02 0.46115993E+03</pdfrwt>
<pdfrwt beam="2">  1       21 0.14451235E+00 0.46115993E+03</pdfrwt>
<totfact> 0.36003253E+04</totfact>
</mgrwt>
</event>
<event>
 6    0  0.1576925E-007  0.4548799E+03  0.7546771E-02  0.1026277E+00
         21   -1    0    0  502  501  0.00000000000E+00  0.00000000000E+00  0.11978673099E+03  0.11978673099E+03  0.00000000000E+00 0.  1.
         21   -1    0    0  501  502 -0.00000000000E+00 -0.00000000000E+00 -0.43184189276E+03  0.43184189276E+03  0.00000000000E+00 0.  1.
      99926    2    1    2    0    0  0.00000000000E+00  0.35527136788E-14 -0.31205516177E+03  0.55162862375E+03  0.45487989025E+03 0.  0.
         25    1    3    3    0    0  0.51141976896E+02  0.34374227757E+01 -0.63308204214E+02  0.14927409185E+03  0.12509000000E+03 0.  0.
         25    1    3    3    0    0 -0.28870409660E+02  0.83545683557E+02 -0.17198061999E+03  0.23030028994E+03  0.12509000000E+03 0.  0.
         25    1    3    3    0    0 -0.22271567236E+02 -0.86983106332E+02 -0.76766337569E+02  0.17205424196E+03  0.12509000000E+03 0.  0.
<mgrwt>
<rscale>  2 0.45487989E+03</rscale>
<asrwt>0</asrwt>
<pdfrwt beam="1">  1       21 0.17615696E-01 0.45487989E+03</pdfrwt>
<pdfrwt beam="2">  1       21 0.63506161E-01 0.45487989E+03</pdfrwt>
<totfact> 0.61817741E+04</totfact>
</mgrwt>
</event>
<event>
 6    0  0.1576925E-007  0.4500983E+03  0.7546771E-02  0.1027693E+00
         21   -1    0    0  502  501  0.00000000000E+00  0.00000000000E+00  0.27820054755E+03  0.27820054755E+03  0.00000000000E+00 0. -1.
         21   -1    0    0  501  502 -0.00000000000E+00 -0.00000000000E+00 -0.18205253386E+03  0.18205253386E+03  0.00000000000E+00 0. -1.
      99926    2    1    2    0    0 -0.35527136788E-14 -0.17763568394E-14  0.96148013698E+02  0.46025308141E+03  0.45009827639E+03 0.  0.
         25    1    3    3    0    0 -0.23917339915E+02  0.82029446910E+01  0.37717155077E+02  0.13307674229E+03  0.12509000000E+03 0.  0.
         25    1    3    3    0    0 -0.59736744432E+02 -0.22284791083E+02 -0.40994741704E+02  0.14626403350E+03  0.12509000000E+03 0.  0.
         25    1    3    3    0    0  0.83654084347E+02  0.14081846392E+02  0.99425600325E+02  0.18091230562E+03  0.12509000000E+03 0.  0.
<mgrwt>
<rscale>  2 0.45009828E+03</rscale>
<asrwt>0</asrwt>
<pdfrwt beam="1">  1       21 0.40911845E-01 0.45009828E+03</pdfrwt>
<pdfrwt beam="2">  1       21 0.26772431E-01 0.45009828E+03</pdfrwt>
<totfact> 0.70884318E+04</totfact>
</mgrwt>
</event>
<event>
 6    0  0.1576925E-007  0.4519630E+03  0.7546771E-02  0.1027138E+00
         21   -1    0    0  502  501  0.00000000000E+00  0.00000000000E+00  0.12098378679E+03  0.12098378679E+03  0.00000000000E+00 0.  1.
         21   -1    0    0  501  502 -0.00000000000E+00 -0.00000000000E+00 -0.42210324386E+03  0.42210324386E+03  0.00000000000E+00 0.  1.
      99926    2    1    2    0    0  0.00000000000E+00  0.00000000000E+00 -0.30111945707E+03  0.54308703066E+03  0.45196304655E+03 0.  0.
         25    1    3    3    0    0  0.55268913076E+02  0.56882157082E+02 -0.83544359352E+02  0.17005117061E+03  0.12509000000E+03 0.  0.
         25    1    3    3    0    0 -0.30194007222E+02 -0.28550049900E+02 -0.15965774332E+02  0.13277498812E+03  0.12509000000E+03 0.  0.
         25    1    3    3    0    0 -0.25074905854E+02 -0.28332107182E+02 -0.20160932338E+03  0.24026087192E+03  0.12509000000E+03 0.  0.
<mgrwt>
<rscale>  2 0.45196305E+03</rscale>
<asrwt>0</asrwt>
<pdfrwt beam="1">  1       21 0.17791734E-01 0.45196305E+03</pdfrwt>
<pdfrwt beam="2">  1       21 0.62074005E-01 0.45196305E+03</pdfrwt>
<totfact> 0.63846237E+04</totfact>
</mgrwt>
</event>
<event>
 6    0  0.1576925E-007  0.4475537E+03  0.7546771E-02  0.1028454E+00
         21   -1    0    0  502  501  0.00000000000E+00  0.00000000000E+00  0.91324641253E+02  0.91324641253E+02  0.00000000000E+00 0. -1.
         21   -1    0    0  501  502 -0.00000000000E+00 -0.00000000000E+00 -0.54833038647E+03  0.54833038647E+03  0.00000000000E+00 0. -1.
      99926    2    1    2    0    0  0.00000000000E+00  0.00000000000E+00 -0.45700574522E+03  0.63965502772E+03  0.44755368765E+03 0.  0.
         25    1    3    3    0    0  0.13811785057E+02  0.63479837246E+02 -0.22804242146E+03  0.26808824896E+03  0.12509000000E+03 0.  0.
         25    1    3    3    0    0 -0.62588301581E+02 -0.58475282671E+02 -0.16046732181E+03  0.22075761288E+03  0.12509000000E+03 0.  0.
         25    1    3    3    0    0  0.48776516524E+02 -0.50045545748E+01 -0.68496001947E+02  0.15080916588E+03  0.12509000000E+03 0.  0.
<mgrwt>
<rscale>  2 0.44755369E+03</rscale>
<asrwt>0</asrwt>
<pdfrwt beam="1">  1       21 0.13430094E-01 0.44755369E+03</pdfrwt>
<pdfrwt beam="2">  1       21 0.80636821E-01 0.44755369E+03</pdfrwt>
<totfact> 0.59734828E+04</totfact>
</mgrwt>
</event>
<event>
 6    0  0.1576925E-007  0.4530990E+03  0.7546771E-02  0.1026802E+00
         21   -1    0    0  502  501  0.00000000000E+00  0.00000000000E+00  0.52558770310E+02  0.52558770310E+02  0.00000000000E+00 0.  1.
         21   -1    0    0  501  502 -0.00000000000E+00 -0.00000000000E+00 -0.97651980056E+03  0.97651980056E+03  0.00000000000E+00 0.  1.
      99926    2    1    2    0    0  0.14210854715E-13  0.14210854715E-13 -0.92396103025E+03  0.10290785709E+04  0.45309901744E+03 0.  0.
         25    1    3    3    0    0  0.40066411375E+02  0.43501579680E+02 -0.31485285822E+03  0.34391501157E+03  0.12509000000E+03 0.  0.
         25    1    3    3    0    0  0.59912476969E+02  0.21197247701E+02 -0.25000116188E+03  0.28668260716E+03  0.12509000000E+03 0.  0.
         25    1    3    3    0    0 -0.99978888343E+02 -0.64698827381E+02 -0.35910701015E+03  0.39848095214E+03  0.12509000000E+03 0.  0.
<mgrwt>
<rscale>  2 0.45309902E+03</rscale>
<asrwt>0</asrwt>
<pdfrwt beam="1">  1       21 0.77292312E-02 0.45309902E+03</pdfrwt>
<pdfrwt beam="2">  1       21 0.14360585E+00 0.45309902E+03</pdfrwt>
<totfact> 0.38624605E+04</totfact>
</mgrwt>
</event>
<event>
 6    0  0.1576925E-007  0.4568308E+03  0.7546771E-02  0.1025704E+00
         21   -1    0    0  502  501  0.00000000000E+00  0.00000000000E+00  0.29236230906E+02  0.29236230906E+02  0.00000000000E+00 0. -1.
         21   -1    0    0  501  502 -0.00000000000E+00 -0.00000000000E+00 -0.17845528637E+04  0.17845528637E+04  0.00000000000E+00 0. -1.
      99926    2    1    2    0    0 -0.71054273576E-14  0.00000000000E+00 -0.17553166328E+04  0.18137890946E+04  0.45683082027E+03 0.  0.
         25    1    3    3    0    0 -0.60877331952E+02 -0.74353192595E+02 -0.63028924192E+03  0.64972800722E+03  0.12509000000E+03 0.  0.
         25    1    3    3    0    0  0.90168203620E+02  0.41614011346E+02 -0.49113294388E+03  0.51645048896E+03  0.12509000000E+03 0.  0.
         25    1    3    3    0    0 -0.29290871668E+02  0.32739181249E+02 -0.63389444698E+03  0.64761059840E+03  0.12509000000E+03 0.  0.
<mgrwt>
<rscale>  2 0.45683082E+03</rscale>
<asrwt>0</asrwt>
<pdfrwt beam="1">  1       21 0.42994452E-02 0.45683082E+03</pdfrwt>
<pdfrwt beam="2">  1       21 0.26243428E+00 0.45683082E+03</pdfrwt>
<totfact> 0.16756572E+04</totfact>
</mgrwt>
</event>
<event>
 6    0  0.1576925E-007  0.4548331E+03  0.7546771E-02  0.1026290E+00
         21   -1    0    0  502  501  0.00000000000E+00  0.00000000000E+00  0.31601027663E+03  0.31601027663E+03  0.00000000000E+00 0. -1.
         21   -1    0    0  501  502 -0.00000000000E+00 -0.00000000000E+00 -0.16366012865E+03  0.16366012865E+03  0.00000000000E+00 0. -1.
      99926    2    1    2    0    0 -0.35527136788E-14  0.00000000000E+00  0.15235014798E+03  0.47967040529E+03  0.45483307940E+03 0.  0.
         25    1    3    3    0    0 -0.72807611403E+02  0.41661728865E+01  0.40245420081E+02  0.15028475376E+03  0.12509000000E+03 0.  0.
         25    1    3    3    0    0  0.29546830741E+02 -0.28108821495E+02  0.13988690975E+03  0.19203899779E+03  0.12509000000E+03 0.  0.
         25    1    3    3    0    0  0.43260780662E+02  0.23942648609E+02 -0.27782181848E+02  0.13734665374E+03  0.12509000000E+03 0.  0.
<mgrwt>
<rscale>  2 0.45483308E+03</rscale>
<asrwt>0</asrwt>
<pdfrwt beam="1">  1       21 0.46472100E-01 0.45483308E+03</pdfrwt>
<pdfrwt beam="2">  1       21 0.24067666E-01 0.45483308E+03</pdfrwt>
<totfact> 0.66812573E+04</totfact>
</mgrwt>
</event>
<event>
 6    0  0.1576925E-007  0.4574605E+03  0.7546771E-02  0.1025520E+00
         21   -1    0    0  502  501  0.00000000000E+00  0.00000000000E+00  0.14700515731E+03  0.14700515731E+03  0.00000000000E+00 0. -1.
         21   -1    0    0  501  502 -0.00000000000E+00 -0.00000000000E+00 -0.35588907642E+03  0.35588907642E+03  0.00000000000E+00 0. -1.
      99926    2    1    2    0    0  0.00000000000E+00  0.71054273576E-14 -0.20888391911E+03  0.50289423374E+03  0.45746051050E+03 0.  0.
         25    1    3    3    0    0 -0.10717424273E+02  0.78269855923E+02 -0.12605473749E+03  0.19436650553E+03  0.12509000000E+03 0.  0.
         25    1    3    3    0    0  0.25434926801E+02 -0.43861957150E+02  0.27309680169E+02  0.13771032466E+03  0.12509000000E+03 0.  0.
         25    1    3    3    0    0 -0.14717502528E+02 -0.34407898773E+02 -0.11013886179E+03  0.17081740355E+03  0.12509000000E+03 0.  0.
<mgrwt>
<rscale>  2 0.45746051E+03</rscale>
<asrwt>0</asrwt>
<pdfrwt beam="1">  1       21 0.21618406E-01 0.45746051E+03</pdfrwt>
<pdfrwt beam="2">  1       21 0.52336628E-01 0.45746051E+03</pdfrwt>
<totfact> 0.63812342E+04</totfact>
</mgrwt>
</event>
<event>
 6    0  0.1576925E-007  0.4551704E+03  0.7546771E-02  0.1026191E+00
         21   -1    0    0  502  501  0.00000000000E+00  0.00000000000E+00  0.63020562124E+03  0.63020562124E+03  0.00000000000E+00 0. -1.
         21   -1    0    0  501  502 -0.00000000000E+00 -0.00000000000E+00 -0.82187506697E+02  0.82187506697E+02  0.00000000000E+00 0. -1.
      99926    2    1    2    0    0 -0.35527136788E-14  0.00000000000E+00  0.54801811455E+03  0.71239312794E+03  0.45517042398E+03 0.  0.
         25    1    3    3    0    0 -0.40459249255E+02 -0.59754836743E+00  0.11575361275E+03  0.17516767647E+03  0.12509000000E+03 0.  0.
         25    1    3    3    0    0  0.46211499242E+02 -0.91651575067E+02  0.24765736909E+03  0.29583305163E+03  0.12509000000E+03 0.  0.
         25    1    3    3    0    0 -0.57522499869E+01  0.92249123434E+02  0.18460713271E+03  0.24139239984E+03  0.12509000000E+03 0.  0.
<mgrwt>
<rscale>  2 0.45517042E+03</rscale>
<asrwt>0</asrwt>
<pdfrwt beam="1">  1       21 0.92677295E-01 0.45517042E+03</pdfrwt>
<pdfrwt beam="2">  1       21 0.12086398E-01 0.45517042E+03</pdfrwt>
<totfact> 0.52165294E+04</totfact>
</mgrwt>
</event>
<event>
 6    0  0.1576925E-007  0.4630114E+03  0.7546771E-02  0.1023911E+00
         21   -1    0    0  502  501  0.00000000000E+00  0.00000000000E+00  0.18558721200E+03  0.18558721200E+03  0.00000000000E+00 0. -1.
         21   -1    0    0  501  502 -0.00000000000E+00 -0.00000000000E+00 -0.28878542469E+03  0.28878542469E+03  0.00000000000E+00 0. -1.
      99926    2    1    2    0    0 -0.79936057773E-14 -0.71054273576E-14 -0.10319821269E+03  0.47437263669E+03  0.46301136847E+03 0.  0.
         25    1    3    3    0    0  0.82996488522E+02  0.37818285695E+02  0.91439805154E+01  0.15507985143E+03  0.12509000000E+03 0.  0.
         25    1    3    3    0    0 -0.44958061070E+01 -0.54553336186E+02 -0.10175837317E+03  0.17028961616E+03  0.12509000000E+03 0.  0.
         25    1    3    3    0    0 -0.78500682415E+02  0.16735050491E+02 -0.10583820032E+02  0.14900316910E+03  0.12509000000E+03 0.  0.
<mgrwt>
<rscale>  2 0.46301137E+03</rscale>
<asrwt>0</asrwt>
<pdfrwt beam="1">  1       21 0.27292237E-01 0.46301137E+03</pdfrwt>
<pdfrwt beam="2">  1       21 0.42468444E-01 0.46301137E+03</pdfrwt>
<totfact> 0.63010987E+04</totfact>
</mgrwt>
</event>
<event>
 6    0  0.1576925E-007  0.4521278E+03  0.7546771E-02  0.1027089E+00
         21   -1    0    0  502  501  0.00000000000E+00  0.00000000000E+00  0.38621122126E+03  0.38621122126E+03  0.00000000000E+00 0.  1.
         21   -1    0    0  501  502 -0.00000000000E+00 -0.00000000000E+00 -0.13232364731E+03  0.13232364731E+03  0.00000000000E+00 0.  1.
      99926    2    1    2    0    0  0.35527136788E-14 -0.48294701571E-14  0.25388757395E+03  0.51853486857E+03  0.45212775818E+03 0.  0.
         25    1    3    3    0    0 -0.31105065139E+02  0.49930029207E+00  0.69566593706E+02  0.14647454877E+03  0.12509000000E+03 0.  0.
         25    1    3    3    0    0  0.40596850376E+02 -0.90464045165E+02  0.49554321477E+02  0.16713762774E+03  0.12509000000E+03 0.  0.
         25    1    3    3    0    0 -0.94917852368E+01  0.89964744873E+02  0.13476665877E+03  0.20492269207E+03  0.12509000000E+03 0.  0.
<mgrwt>
<rscale>  2 0.45212776E+03</rscale>
<asrwt>0</asrwt>
<pdfrwt beam="1">  1       21 0.56795768E-01 0.45212776E+03</pdfrwt>
<pdfrwt beam="2">  1       21 0.19459360E-01 0.45212776E+03</pdfrwt>
<totfact> 0.65466341E+04</totfact>
</mgrwt>
</event>
<event>
 6    0  0.1576925E-007  0.4653724E+03  0.7546771E-02  0.1023235E+00
         21   -1    0    0  502  501  0.00000000000E+00  0.00000000000E+00  0.27035368916E+03  0.27035368916E+03  0.00000000000E+00 0. -1.
         21   -1    0    0  501  502 -0.00000000000E+00 -0.00000000000E+00 -0.20026676305E+03  0.20026676305E+03  0.00000000000E+00 0. -1.
      99926    2    1    2    0    0  0.35527136788E-14  0.00000000000E+00  0.70086926115E+02  0.47062045221E+03  0.46537235933E+03 0.  0.
         25    1    3    3    0    0 -0.56041321257E+02  0.30420196669E+02  0.12830431915E+03  0.19019864475E+03  0.12509000000E+03 0.  0.
         25    1    3    3    0    0  0.31103423887E+02  0.28357514710E+02 -0.11803759142E+02  0.13250814484E+03  0.12509000000E+03 0.  0.
         25    1    3    3    0    0  0.24937897369E+02 -0.58777711379E+02 -0.46413633888E+02  0.14791366262E+03  0.12509000000E+03 0.  0.
<mgrwt>
<rscale>  2 0.46537236E+03</rscale>
<asrwt>0</asrwt>
<pdfrwt beam="1">  1       21 0.39757895E-01 0.46537236E+03</pdfrwt>
<pdfrwt beam="2">  1       21 0.29450995E-01 0.46537236E+03</pdfrwt>
<totfact> 0.62113293E+04</totfact>
</mgrwt>
</event>
<event>
 6    0  0.1576925E-007  0.4628676E+03  0.7546771E-02  0.1023953E+00
         21   -1    0    0  502  501  0.00000000000E+00  0.00000000000E+00  0.19002848564E+03  0.19002848564E+03  0.00000000000E+00 0. -1.
         21   -1    0    0  501  502 -0.00000000000E+00 -0.00000000000E+00 -0.28186094010E+03  0.28186094010E+03  0.00000000000E+00 0. -1.
      99926    2    1    2    0    0  0.00000000000E+00  0.00000000000E+00 -0.91832454454E+02  0.47188942574E+03  0.46286761653E+03 0.  0.
         25    1    3    3    0    0  0.20014217109E+02 -0.10059150461E+03 -0.28602752607E+01  0.16178661552E+03  0.12509000000E+03 0.  0.
         25    1    3    3    0    0 -0.10455013585E+02  0.91972742124E+02 -0.98209883622E+02  0.18401353739E+03  0.12509000000E+03 0.  0.
         25    1    3    3    0    0 -0.95592035240E+01  0.86187624885E+01  0.92377044286E+01  0.12608927283E+03  0.12509000000E+03 0.  0.
<mgrwt>
<rscale>  2 0.46286762E+03</rscale>
<asrwt>0</asrwt>
<pdfrwt beam="1">  1       21 0.27945366E-01 0.46286762E+03</pdfrwt>
<pdfrwt beam="2">  1       21 0.41450138E-01 0.46286762E+03</pdfrwt>
<totfact> 0.63252447E+04</totfact>
</mgrwt>
</event>
<event>
 6    0  0.1576925E-007  0.4419653E+03  0.7546771E-02  0.1030146E+00
         21   -1    0    0  502  501  0.00000000000E+00  0.00000000000E+00  0.25725681736E+03  0.25725681736E+03  0.00000000000E+00 0.  1.
         21   -1    0    0  501  502 -0.00000000000E+00 -0.00000000000E+00 -0.18982328929E+03  0.18982328929E+03  0.00000000000E+00 0.  1.
      99926    2    1    2    0    0  0.00000000000E+00  0.71054273576E-14  0.67433528068E+02  0.44708010664E+03  0.44196531657E+03 0.  0.
         25    1    3    3    0    0 -0.26644184658E+02 -0.91375634479E+02 -0.32051243768E+02  0.16041885637E+03  0.12509000000E+03 0.  0.
         25    1    3    3    0    0  0.13806925176E+02  0.55496599683E+02  0.60040825904E+02  0.15007635601E+03  0.12509000000E+03 0.  0.
         25    1    3    3    0    0  0.12837259482E+02  0.35879034796E+02  0.39443945932E+02  0.13658489426E+03  0.12509000000E+03 0.  0.
<mgrwt>
<rscale>  2 0.44196532E+03</rscale>
<asrwt>0</asrwt>
<pdfrwt beam="1">  1       21 0.37831885E-01 0.44196532E+03</pdfrwt>
<pdfrwt beam="2">  1       21 0.27915189E-01 0.44196532E+03</pdfrwt>
<totfact> 0.76811691E+04</totfact>
</mgrwt>
</event>
<event>
 6    0  0.1576925E-007  0.4579135E+03  0.7546771E-02  0.1025388E+00
         21   -1    0    0  502  501  0.00000000000E+00  0.00000000000E+00  0.64987459612E+03  0.64987459612E+03  0.00000000000E+00 0. -1.
         21   -1    0    0  501  502 -0.00000000000E+00 -0.00000000000E+00 -0.80663538522E+02  0.80663538522E+02  0.00000000000E+00 0. -1.
      99926    2    1    2    0    0  0.00000000000E+00  0.00000000000E+00  0.56921105759E+03  0.73053813464E+03  0.45791346134E+03 0.  0.
         25    1    3    3    0    0 -0.16284745649E+01 -0.41466640483E+02  0.17912060068E+03  0.22238217530E+03  0.12509000000E+03 0.  0.
         25    1    3    3    0    0  0.92352599954E+02  0.70574320489E+01  0.26099014757E+03  0.30387855353E+03  0.12509000000E+03 0.  0.
         25    1    3    3    0    0 -0.90724125389E+02  0.34409208434E+02  0.12910030934E+03  0.20427740581E+03  0.12509000000E+03 0.  0.
<mgrwt>
<rscale>  2 0.45791346E+03</rscale>
<asrwt>0</asrwt>
<pdfrwt beam="1">  1       21 0.95569791E-01 0.45791346E+03</pdfrwt>
<pdfrwt beam="2">  1       21 0.11862285E-01 0.45791346E+03</pdfrwt>
<totfact> 0.50118030E+04</totfact>
</mgrwt>
</event>
<event>
 6    0  0.1576925E-007  0.4540705E+03  0.7546771E-02  0.1026515E+00
         21   -1    0    0  502  501  0.00000000000E+00  0.00000000000E+00  0.19539489186E+03  0.19539489186E+03  0.00000000000E+00 0. -1.
         21   -1    0    0  501  502 -0.00000000000E+00 -0.00000000000E+00 -0.26379919125E+03  0.26379919125E+03  0.00000000000E+00 0. -1.
      99926    2    1    2    0    0  0.00000000000E+00  0.22204460493E-15 -0.68404299383E+02  0.45919408311E+03  0.45407054275E+03 0.  0.
         25    1    3    3    0    0 -0.73442428258E+02 -0.12396100988E+02 -0.78014763231E+02  0.16517041191E+03  0.12509000000E+03 0.  0.
         25    1    3    3    0    0 -0.12941658619E+02  0.10485155459E+02 -0.42735017252E+02  0.13323368498E+03  0.12509000000E+03 0.  0.
         25    1    3    3    0    0  0.86384086877E+02  0.19109455289E+01  0.52345481101E+02  0.16078998622E+03  0.12509000000E+03 0.  0.
<mgrwt>
<rscale>  2 0.45407054E+03</rscale>
<asrwt>0</asrwt>
<pdfrwt beam="1">  1       21 0.28734543E-01 0.45407054E+03</pdfrwt>
<pdfrwt beam="2">  1       21 0.38793999E-01 0.45407054E+03</pdfrwt>
<totfact> 0.68747491E+04</totfact>
</mgrwt>
</event>
<event>
 6    0  0.1576925E-007  0.4548128E+03  0.7546771E-02  0.1026296E+00
         21   -1    0    0  502  501  0.00000000000E+00  0.00000000000E+00  0.25531485871E+03  0.25531485871E+03  0.00000000000E+00 0. -1.
         21   -1    0    0  501  502 -0.00000000000E+00 -0.00000000000E+00 -0.20254864731E+03  0.20254864731E+03  0.00000000000E+00 0. -1.
      99926    2    1    2    0    0  0.00000000000E+00 -0.85209617140E-14  0.52766211401E+02  0.45786350602E+03  0.45481283741E+03 0.  0.
         25    1    3    3    0    0 -0.12516348142E+02 -0.84927908163E+02  0.82133756304E+02  0.17251918902E+03  0.12509000000E+03 0.  0.
         25    1    3    3    0    0  0.20312190536E+02 -0.24841990871E+00  0.14578041024E+02  0.12756439228E+03  0.12509000000E+03 0.  0.
         25    1    3    3    0    0 -0.77958423941E+01  0.85176328071E+02 -0.43945585927E+02  0.15777992472E+03  0.12509000000E+03 0.  0.
<mgrwt>
<rscale>  2 0.45481284E+03</rscale>
<asrwt>0</asrwt>
<pdfrwt beam="1">  1       21 0.37546303E-01 0.45481284E+03</pdfrwt>
<pdfrwt beam="2">  1       21 0.29786566E-01 0.45481284E+03</pdfrwt>
<totfact> 0.68438571E+04</totfact>
</mgrwt>
</event>
<event>
 6    0  0.1576925E-007  0.4320148E+03  0.7546771E-02  0.1033225E+00
         21   -1    0    0  502  501  0.00000000000E+00  0.00000000000E+00  0.12223313396E+04  0.12223313396E+04  0.00000000000E+00 0.  1.
         21   -1    0    0  501  502 -0.00000000000E+00 -0.00000000000E+00 -0.38172294296E+02  0.38172294296E+02  0.00000000000E+00 0.  1.
      99926    2    1    2    0    0  0.71054273576E-14 -0.71054273576E-14  0.11841590453E+04  0.12605036339E+04  0.43201477578E+03 0.  0.
         25    1    3    3    0    0 -0.76463777107E+02 -0.27591390802E+02  0.31403663213E+03  0.34767011444E+03  0.12509000000E+03 0.  0.
         25    1    3    3    0    0  0.55510231182E+02  0.51287650811E+02  0.49622227078E+03  0.51729668374E+03  0.12509000000E+03 0.  0.
         25    1    3    3    0    0  0.20953545925E+02 -0.23696260009E+02  0.37390014243E+03  0.39553683575E+03  0.12509000000E+03 0.  0.
<mgrwt>
<rscale>  2 0.43201478E+03</rscale>
<asrwt>0</asrwt>
<pdfrwt beam="1">  1       21 0.17975458E+00 0.43201478E+03</pdfrwt>
<pdfrwt beam="2">  1       21 0.56135735E-02 0.43201478E+03</pdfrwt>
<totfact> 0.36364677E+04</totfact>
</mgrwt>
</event>
<event>
 6    0  0.1576925E-007  0.4612328E+03  0.7546771E-02  0.1024424E+00
         21   -1    0    0  502  501  0.00000000000E+00  0.00000000000E+00  0.12792723894E+04  0.12792723894E+04  0.00000000000E+00 0.  1.
         21   -1    0    0  501  502 -0.00000000000E+00 -0.00000000000E+00 -0.41573579515E+02  0.41573579515E+02  0.00000000000E+00 0.  1.
      99926    2    1    2    0    0  0.00000000000E+00 -0.71054273576E-14  0.12376988099E+04  0.13208459690E+04  0.46123283666E+03 0.  0.
         25    1    3    3    0    0  0.67846534251E+02 -0.38709268246E+02  0.26071418257E+03  0.29953456019E+03  0.12509000000E+03 0.  0.
         25    1    3    3    0    0  0.16377987444E+02 -0.20847322419E+02  0.54770301102E+03  0.56243128088E+03  0.12509000000E+03 0.  0.
         25    1    3    3    0    0 -0.84224521694E+02  0.59556590664E+02  0.42928161634E+03  0.45888012789E+03  0.12509000000E+03 0.  0.
<mgrwt>
<rscale>  2 0.46123284E+03</rscale>
<asrwt>0</asrwt>
<pdfrwt beam="1">  1       21 0.18812827E+00 0.46123284E+03</pdfrwt>
<pdfrwt beam="2">  1       21 0.61137625E-02 0.46123284E+03</pdfrwt>
<totfact> 0.27174167E+04</totfact>
</mgrwt>
</event>
<event>
 6    0  0.1576925E-007  0.4294681E+03  0.7546771E-02  0.1034028E+00
         21   -1    0    0  502  501  0.00000000000E+00  0.00000000000E+00  0.34290466954E+03  0.34290466954E+03  0.00000000000E+00 0.  1.
         21   -1    0    0  501  502 -0.00000000000E+00 -0.00000000000E+00 -0.13447091509E+03  0.13447091509E+03  0.00000000000E+00 0.  1.
      99926    2    1    2    0    0  0.00000000000E+00  0.00000000000E+00  0.20843375445E+03  0.47737558462E+03  0.42946806494E+03 0.  0.
         25    1    3    3    0    0 -0.34815780029E+02  0.40771372604E+02  0.12383116317E+03  0.18400029466E+03  0.12509000000E+03 0.  0.
         25    1    3    3    0    0  0.60165711074E+02  0.79055631443E+01  0.14355687983E+02  0.13977125812E+03  0.12509000000E+03 0.  0.
         25    1    3    3    0    0 -0.25349931045E+02 -0.48676935749E+02  0.70246903297E+02  0.15360403185E+03  0.12509000000E+03 0.  0.
<mgrwt>
<rscale>  2 0.42946806E+03</rscale>
<asrwt>0</asrwt>
<pdfrwt beam="1">  1       21 0.50427157E-01 0.42946806E+03</pdfrwt>
<pdfrwt beam="2">  1       21 0.19775135E-01 0.42946806E+03</pdfrwt>
<totfact> 0.82360962E+04</totfact>
</mgrwt>
</event>
<event>
 6    0  0.1576925E-007  0.4570499E+03  0.7546771E-02  0.1025640E+00
         21   -1    0    0  502  501  0.00000000000E+00  0.00000000000E+00  0.27885884886E+03  0.27885884886E+03  0.00000000000E+00 0. -1.
         21   -1    0    0  501  502 -0.00000000000E+00 -0.00000000000E+00 -0.18727633440E+03  0.18727633440E+03  0.00000000000E+00 0. -1.
      99926    2    1    2    0    0 -0.35527136788E-14 -0.42188474936E-14  0.91582514463E+02  0.46613518326E+03  0.45704994488E+03 0.  0.
         25    1    3    3    0    0 -0.33094156552E+02  0.73814221201E+02  0.97007309641E+02  0.17776863805E+03  0.12509000000E+03 0.  0.
         25    1    3    3    0    0  0.13808301890E+02 -0.72603653770E+02  0.45027223367E+02  0.15210824661E+03  0.12509000000E+03 0.  0.
         25    1    3    3    0    0  0.19285854663E+02 -0.12105674309E+01 -0.50452018544E+02  0.13625829861E+03  0.12509000000E+03 0.  0.
<mgrwt>
<rscale>  2 0.45704994E+03</rscale>
<asrwt>0</asrwt>
<pdfrwt beam="1">  1       21 0.41008655E-01 0.45704994E+03</pdfrwt>
<pdfrwt beam="2">  1       21 0.27540637E-01 0.45704994E+03</pdfrwt>
<totfact> 0.66633596E+04</totfact>
</mgrwt>
</event>
<event>
 6    0  0.1576925E-007  0.4584441E+03  0.7546771E-02  0.1025233E+00
         21   -1    0    0  502  501  0.00000000000E+00  0.00000000000E+00  0.21181689208E+03  0.21181689208E+03  0.00000000000E+00 0.  1.
         21   -1    0    0  501  502 -0.00000000000E+00 -0.00000000000E+00 -0.24805736988E+03  0.24805736988E+03  0.00000000000E+00 0.  1.
      99926    2    1    2    0    0 -0.88817841970E-15  0.00000000000E+00 -0.36240477801E+02  0.45987426197E+03  0.45844406920E+03 0.  0.
         25    1    3    3    0    0  0.55139941554E+02 -0.38284905803E+02 -0.98758925178E+02  0.17293634832E+03  0.12509000000E+03 0.  0.
         25    1    3    3    0    0 -0.59451089464E+02 -0.95843481075E+01 -0.55321807355E+00  0.13883121377E+03  0.12509000000E+03 0.  0.
         25    1    3    3    0    0  0.43111479097E+01  0.47869253911E+02  0.63071665451E+02  0.14810669988E+03  0.12509000000E+03 0.  0.
<mgrwt>
<rscale>  2 0.45844407E+03</rscale>
<asrwt>0</asrwt>
<pdfrwt beam="1">  1       21 0.31149543E-01 0.45844407E+03</pdfrwt>
<pdfrwt beam="2">  1       21 0.36479025E-01 0.45844407E+03</pdfrwt>
<totfact> 0.66348179E+04</totfact>
</mgrwt>
</event>
<event>
 6    0  0.1576925E-007  0.4521263E+03  0.7546771E-02  0.1027090E+00
         21   -1    0    0  502  501  0.00000000000E+00  0.00000000000E+00  0.49553971949E+02  0.49553971949E+02  0.00000000000E+00 0. -1.
         21   -1    0    0  501  502 -0.00000000000E+00 -0.00000000000E+00 -0.10312908614E+04  0.10312908614E+04  0.00000000000E+00 0. -1.
      99926    2    1    2    0    0  0.00000000000E+00 -0.14210854715E-13 -0.98173688946E+03  0.10808448334E+04  0.45212634702E+03 0.  0.
         25    1    3    3    0    0 -0.37765215323E+02  0.90729094345E+02 -0.47145492177E+03  0.49756932322E+03  0.12509000000E+03 0.  0.
         25    1    3    3    0    0  0.29116363956E+02 -0.68877317821E+02 -0.34613079347E+03  0.37556075653E+03  0.12509000000E+03 0.  0.
         25    1    3    3    0    0  0.86488513674E+01 -0.21851776524E+02 -0.16415117422E+03  0.20771475361E+03  0.12509000000E+03 0.  0.
<mgrwt>
<rscale>  2 0.45212635E+03</rscale>
<asrwt>0</asrwt>
<pdfrwt beam="1">  1       21 0.72873490E-02 0.45212635E+03</pdfrwt>
<pdfrwt beam="2">  1       21 0.15166042E+00 0.45212635E+03</pdfrwt>
<totfact> 0.36987962E+04</totfact>
</mgrwt>
</event>
<event>
 6    0  0.1576925E-007  0.4519661E+03  0.7546771E-02  0.1027137E+00
         21   -1    0    0  502  501  0.00000000000E+00  0.00000000000E+00  0.66116660840E+02  0.66116660840E+02  0.00000000000E+00 0. -1.
         21   -1    0    0  501  502 -0.00000000000E+00 -0.00000000000E+00 -0.77239741455E+03  0.77239741455E+03  0.00000000000E+00 0. -1.
      99926    2    1    2    0    0  0.00000000000E+00  0.62172489379E-14 -0.70628075371E+03  0.83851407539E+03  0.45196609559E+03 0.  0.
         25    1    3    3    0    0  0.77879210945E+02  0.29126977280E+01 -0.37808045338E+03  0.40579057731E+03  0.12509000000E+03 0.  0.
         25    1    3    3    0    0 -0.78750361940E+02  0.33836866456E+02 -0.17695070205E+03  0.23303564554E+03  0.12509000000E+03 0.  0.
         25    1    3    3    0    0  0.87115099522E+00 -0.36749564184E+02 -0.15124959829E+03  0.19968785254E+03  0.12509000000E+03 0.  0.
<mgrwt>
<rscale>  2 0.45196610E+03</rscale>
<asrwt>0</asrwt>
<pdfrwt beam="1">  1       21 0.97230383E-02 0.45196610E+03</pdfrwt>
<pdfrwt beam="2">  1       21 0.11358786E+00 0.45196610E+03</pdfrwt>
<totfact> 0.47068001E+04</totfact>
</mgrwt>
</event>
<event>
 6    0  0.1576925E-007  0.4526837E+03  0.7546771E-02  0.1026925E+00
         21   -1    0    0  502  501  0.00000000000E+00  0.00000000000E+00  0.25993009648E+03  0.25993009648E+03  0.00000000000E+00 0.  1.
         21   -1    0    0  501  502 -0.00000000000E+00 -0.00000000000E+00 -0.19709385839E+03  0.19709385839E+03  0.00000000000E+00 0.  1.
      99926    2    1    2    0    0 -0.35527136788E-14  0.71054273576E-14  0.62836238090E+02  0.45702395488E+03  0.45268366716E+03 0.  0.
         25    1    3    3    0    0  0.26359359583E+02 -0.87057179233E+02 -0.79459890967E+01  0.15486902575E+03  0.12509000000E+03 0.  0.
         25    1    3    3    0    0 -0.42632576372E+02  0.40029105857E+02  0.91918376898E+02  0.16588056545E+03  0.12509000000E+03 0.  0.
         25    1    3    3    0    0  0.16273216789E+02  0.47028073376E+02 -0.21136149711E+02  0.13627436367E+03  0.12509000000E+03 0.  0.
<mgrwt>
<rscale>  2 0.45268367E+03</rscale>
<asrwt>0</asrwt>
<pdfrwt beam="1">  1       21 0.38225014E-01 0.45268367E+03</pdfrwt>
<pdfrwt beam="2">  1       21 0.28984391E-01 0.45268367E+03</pdfrwt>
<totfact> 0.69676210E+04</totfact>
</mgrwt>
</event>
<event>
 6    0  0.1576925E-007  0.4565086E+03  0.7546771E-02  0.1025799E+00
         21   -1    0    0  502  501  0.00000000000E+00  0.00000000000E+00  0.10896162444E+04  0.10896162444E+04  0.00000000000E+00 0. -1.
         21   -1    0    0  501  502 -0.00000000000E+00 -0.00000000000E+00 -0.47815020520E+02  0.47815020520E+02  0.00000000000E+00 0. -1.
      99926    2    1    2    0    0  0.14210854715E-13  0.00000000000E+00  0.10418012239E+04  0.11374312649E+04  0.45650858956E+03 0.  0.
         25    1    3    3    0    0 -0.74056086372E+02  0.42342308290E+02  0.27145045745E+03  0.31082154679E+03  0.12509000000E+03 0.  0.
         25    1    3    3    0    0 -0.30321576098E+02 -0.44087766889E+02  0.37998243724E+03  0.40360536404E+03  0.12509000000E+03 0.  0.
         25    1    3    3    0    0  0.10437766247E+03  0.17454585988E+01  0.39036832919E+03  0.42300435409E+03  0.12509000000E+03 0.  0.
<mgrwt>
<rscale>  2 0.45650859E+03</rscale>
<asrwt>0</asrwt>
<pdfrwt beam="1">  1       21 0.16023767E+00 0.45650859E+03</pdfrwt>
<pdfrwt beam="2">  1       21 0.70316213E-02 0.45650859E+03</pdfrwt>
<totfact> 0.33805526E+04</totfact>
</mgrwt>
</event>
<event>
 6    0  0.1576925E-007  0.4790019E+03  0.7546771E-02  0.1019410E+00
         21   -1    0    0  502  501  0.00000000000E+00  0.00000000000E+00  0.37147178022E+02  0.37147178022E+02  0.00000000000E+00 0. -1.
         21   -1    0    0  501  502 -0.00000000000E+00 -0.00000000000E+00 -0.15441472617E+04  0.15441472617E+04  0.00000000000E+00 0. -1.
      99926    2    1    2    0    0  0.00000000000E+00  0.00000000000E+00 -0.15070000837E+04  0.15812944397E+04  0.47900193412E+03 0.  0.
         25    1    3    3    0    0  0.70100494270E+02  0.10445683510E+03 -0.54640332379E+03  0.57448186224E+03  0.12509000000E+03 0.  0.
         25    1    3    3    0    0 -0.86393451832E+02 -0.50319331374E+02 -0.43342184069E+03  0.46205829039E+03  0.12509000000E+03 0.  0.
         25    1    3    3    0    0  0.16292957562E+02 -0.54137503722E+02 -0.52717491920E+03  0.54475428710E+03  0.12509000000E+03 0.  0.
<mgrwt>
<rscale>  2 0.47900193E+03</rscale>
<asrwt>0</asrwt>
<pdfrwt beam="1">  1       21 0.54628212E-02 0.47900193E+03</pdfrwt>
<pdfrwt beam="2">  1       21 0.22708044E+00 0.47900193E+03</pdfrwt>
<totfact> 0.18215922E+04</totfact>
</mgrwt>
</event>
<event>
 6    0  0.1576925E-007  0.4417752E+03  0.7546771E-02  0.1030204E+00
         21   -1    0    0  502  501  0.00000000000E+00  0.00000000000E+00  0.87483293332E+02  0.87483293332E+02  0.00000000000E+00 0. -1.
         21   -1    0    0  501  502 -0.00000000000E+00 -0.00000000000E+00 -0.55772182684E+03  0.55772182684E+03  0.00000000000E+00 0. -1.
      99926    2    1    2    0    0  0.71054273576E-14  0.71054273576E-14 -0.47023853350E+03  0.64520512017E+03  0.44177524682E+03 0.  0.
         25    1    3    3    0    0  0.44827534518E+01  0.85234213920E+02 -0.12550764660E+03  0.19668412177E+03  0.12509000000E+03 0.  0.
         25    1    3    3    0    0  0.49095399448E+02 -0.22794151884E+02 -0.14646891407E+03  0.20007644163E+03  0.12509000000E+03 0.  0.
         25    1    3    3    0    0 -0.53578152900E+02 -0.62440062036E+02 -0.19826197284E+03  0.24844455677E+03  0.12509000000E+03 0.  0.
<mgrwt>
<rscale>  2 0.44177525E+03</rscale>
<asrwt>0</asrwt>
<pdfrwt beam="1">  1       21 0.12865190E-01 0.44177525E+03</pdfrwt>
<pdfrwt beam="2">  1       21 0.82017915E-01 0.44177525E+03</pdfrwt>
<totfact> 0.62220316E+04</totfact>
</mgrwt>
</event>
<event>
 6    0  0.1576925E-007  0.4537820E+03  0.7546771E-02  0.1026600E+00
         21   -1    0    0  502  501  0.00000000000E+00  0.00000000000E+00  0.45163467634E+02  0.45163467634E+02  0.00000000000E+00 0.  1.
         21   -1    0    0  501  502 -0.00000000000E+00 -0.00000000000E+00 -0.11398490711E+04  0.11398490711E+04  0.00000000000E+00 0.  1.
      99926    2    1    2    0    0 -0.14210854715E-13 -0.14210854715E-13 -0.10946856035E+04  0.11850125388E+04  0.45378204738E+03 0.  0.
         25    1    3    3    0    0  0.19530309353E+02 -0.67186917226E+02 -0.34284747504E+03  0.37160114918E+03  0.12509000000E+03 0.  0.
         25    1    3    3    0    0  0.64061853192E+02  0.75403711349E+02 -0.40393796140E+03  0.43428449832E+03  0.12509000000E+03 0.  0.
         25    1    3    3    0    0 -0.83592162545E+02 -0.82167941228E+01 -0.34790016706E+03  0.37912689127E+03  0.12509000000E+03 0.  0.
<mgrwt>
<rscale>  2 0.45378205E+03</rscale>
<asrwt>0</asrwt>
<pdfrwt beam="1">  1       21 0.66416875E-02 0.45378205E+03</pdfrwt>
<pdfrwt beam="2">  1       21 0.16762483E+00 0.45378205E+03</pdfrwt>
<totfact> 0.32946137E+04</totfact>
</mgrwt>
</event>
<event>
 6    0  0.1576925E-007  0.4525134E+03  0.7546771E-02  0.1026975E+00
         21   -1    0    0  502  501  0.00000000000E+00  0.00000000000E+00  0.47793847705E+03  0.47793847705E+03  0.00000000000E+00 0.  1.
         21   -1    0    0  501  502 -0.00000000000E+00 -0.00000000000E+00 -0.10711021540E+03  0.10711021540E+03  0.00000000000E+00 0.  1.
      99926    2    1    2    0    0 -0.14210854715E-13  0.00000000000E+00  0.37082826165E+03  0.58504869245E+03  0.45251339528E+03 0.  0.
         25    1    3    3    0    0  0.80931124445E+02  0.38848794090E+01  0.18335412756E+03  0.23628623190E+03  0.12509000000E+03 0.  0.
         25    1    3    3    0    0 -0.10831085596E+03  0.65523191031E+01  0.10361974002E+03  0.19534260423E+03  0.12509000000E+03 0.  0.
         25    1    3    3    0    0  0.27379731516E+02 -0.10437198512E+02  0.83854394069E+02  0.15341985633E+03  0.12509000000E+03 0.  0.
<mgrwt>
<rscale>  2 0.45251340E+03</rscale>
<asrwt>0</asrwt>
<pdfrwt beam="1">  1       21 0.70285069E-01 0.45251340E+03</pdfrwt>
<pdfrwt beam="2">  1       21 0.15751502E-01 0.45251340E+03</pdfrwt>
<totfact> 0.60794283E+04</totfact>
</mgrwt>
</event>
<event>
 6    0  0.1576925E-007  0.4224557E+03  0.7546771E-02  0.1036270E+00
         21   -1    0    0  502  501  0.00000000000E+00  0.00000000000E+00  0.30654495995E+03  0.30654495995E+03  0.00000000000E+00 0. -1.
         21   -1    0    0  501  502 -0.00000000000E+00 -0.00000000000E+00 -0.14554862499E+03  0.14554862499E+03  0.00000000000E+00 0. -1.
      99926    2    1    2    0    0  0.00000000000E+00  0.00000000000E+00  0.16099633496E+03  0.45209358494E+03  0.42245566592E+03 0.  0.
         25    1    3    3    0    0 -0.17711976114E+02 -0.24617372429E+02 -0.17175840902E+02  0.12985471395E+03  0.12509000000E+03 0.  0.
         25    1    3    3    0    0  0.46653961667E+02  0.48570812730E+01  0.12123060012E+03  0.18040108061E+03  0.12509000000E+03 0.  0.
         25    1    3    3    0    0 -0.28941985553E+02  0.19760291156E+02  0.56941575738E+02  0.14183779039E+03  0.12509000000E+03 0.  0.
<mgrwt>
<rscale>  2 0.42245567E+03</rscale>
<asrwt>0</asrwt>
<pdfrwt beam="1">  1       21 0.45080141E-01 0.42245567E+03</pdfrwt>
<pdfrwt beam="2">  1       21 0.21404210E-01 0.42245567E+03</pdfrwt>
<totfact> 0.89846130E+04</totfact>
</mgrwt>
</event>
<event>
 6    0  0.1576925E-007  0.4839912E+03  0.7546771E-02  0.1018044E+00
         21   -1    0    0  502  501  0.00000000000E+00  0.00000000000E+00  0.20601145155E+03  0.20601145155E+03  0.00000000000E+00 0.  1.
         21   -1    0    0  501  502 -0.00000000000E+00 -0.00000000000E+00 -0.28426516562E+03  0.28426516562E+03  0.00000000000E+00 0.  1.
      99926    2    1    2    0    0  0.00000000000E+00  0.00000000000E+00 -0.78253714077E+02  0.49027661717E+03  0.48399123709E+03 0.  0.
         25    1    3    3    0    0  0.25865679822E+02  0.47804727611E+02 -0.42289207763E+02  0.14279429459E+03  0.12509000000E+03 0.  0.
         25    1    3    3    0    0 -0.17187365695E+02  0.56452375116E+02 -0.10168327349E+03  0.17166616557E+03  0.12509000000E+03 0.  0.
         25    1    3    3    0    0 -0.86783141272E+01 -0.10425710273E+03  0.65718767173E+02  0.17581615700E+03  0.12509000000E+03 0.  0.
<mgrwt>
<rscale>  2 0.48399124E+03</rscale>
<asrwt>0</asrwt>
<pdfrwt beam="1">  1       21 0.30295802E-01 0.48399124E+03</pdfrwt>
<pdfrwt beam="2">  1       21 0.41803700E-01 0.48399124E+03</pdfrwt>
<totfact> 0.52732369E+04</totfact>
</mgrwt>
</event>
<event>
 6    0  0.1576925E-007  0.4555310E+03  0.7546771E-02  0.1026085E+00
         21   -1    0    0  502  501  0.00000000000E+00  0.00000000000E+00  0.12753462314E+03  0.12753462314E+03  0.00000000000E+00 0. -1.
         21   -1    0    0  501  502 -0.00000000000E+00 -0.00000000000E+00 -0.40676892585E+03  0.40676892585E+03  0.00000000000E+00 0. -1.
      99926    2    1    2    0    0  0.00000000000E+00 -0.88817841970E-15 -0.27923430271E+03  0.53430354899E+03  0.45553099417E+03 0.  0.
         25    1    3    3    0    0 -0.54758709194E+02 -0.58053641386E+02 -0.15956307255E+03  0.21789131174E+03  0.12509000000E+03 0.  0.
         25    1    3    3    0    0  0.19012332097E+02  0.58137665049E+01  0.78418452898E+01  0.12690260553E+03  0.12509000000E+03 0.  0.
         25    1    3    3    0    0  0.35746377097E+02  0.52239874881E+02 -0.12751307545E+03  0.18950963172E+03  0.12509000000E+03 0.  0.
<mgrwt>
<rscale>  2 0.45553099E+03</rscale>
<asrwt>0</asrwt>
<pdfrwt beam="1">  1       21 0.18755092E-01 0.45553099E+03</pdfrwt>
<pdfrwt beam="2">  1       21 0.59818959E-01 0.45553099E+03</pdfrwt>
<totfact> 0.62651994E+04</totfact>
</mgrwt>
</event>
<event>
 6    0  0.1576925E-007  0.4557675E+03  0.7546771E-02  0.1026016E+00
         21   -1    0    0  502  501  0.00000000000E+00  0.00000000000E+00  0.17837280971E+03  0.17837280971E+03  0.00000000000E+00 0. -1.
         21   -1    0    0  501  502 -0.00000000000E+00 -0.00000000000E+00 -0.29113743830E+03  0.29113743830E+03  0.00000000000E+00 0. -1.
      99926    2    1    2    0    0  0.00000000000E+00  0.00000000000E+00 -0.11276462859E+03  0.46951024801E+03  0.45576749723E+03 0.  0.
         25    1    3    3    0    0  0.63833815534E+02  0.58396739336E+01 -0.10929548274E+03  0.17805018519E+03  0.12509000000E+03 0.  0.
         25    1    3    3    0    0 -0.94092514715E+02  0.19798385969E+02  0.16841153530E+02  0.15867107476E+03  0.12509000000E+03 0.  0.
         25    1    3    3    0    0  0.30258699182E+02 -0.25638059902E+02 -0.20310299375E+02  0.13278898807E+03  0.12509000000E+03 0.  0.
<mgrwt>
<rscale>  2 0.45576750E+03</rscale>
<asrwt>0</asrwt>
<pdfrwt beam="1">  1       21 0.26231296E-01 0.45576750E+03</pdfrwt>
<pdfrwt beam="2">  1       21 0.42814328E-01 0.45576750E+03</pdfrwt>
<totfact> 0.67062973E+04</totfact>
</mgrwt>
</event>
<event>
 6    0  0.1576925E-007  0.4549461E+03  0.7546771E-02  0.1026257E+00
         21   -1    0    0  502  501  0.00000000000E+00  0.00000000000E+00  0.12884319662E+03  0.12884319662E+03  0.00000000000E+00 0. -1.
         21   -1    0    0  501  502 -0.00000000000E+00 -0.00000000000E+00 -0.40160433566E+03  0.40160433566E+03  0.00000000000E+00 0. -1.
      99926    2    1    2    0    0  0.00000000000E+00  0.00000000000E+00 -0.27276113904E+03  0.53044753229E+03  0.45494609080E+03 0.  0.
         25    1    3    3    0    0 -0.22103483630E+02 -0.64943524205E+02 -0.94893821637E+02  0.17134342943E+03  0.12509000000E+03 0.  0.
         25    1    3    3    0    0  0.42954747938E+02 -0.20822010157E+02 -0.13633978860E+02  0.13458105348E+03  0.12509000000E+03 0.  0.
         25    1    3    3    0    0 -0.20851264308E+02  0.85765534362E+02 -0.16423333855E+03  0.22452304937E+03  0.12509000000E+03 0.  0.
<mgrwt>
<rscale>  2 0.45494609E+03</rscale>
<asrwt>0</asrwt>
<pdfrwt beam="1">  1       21 0.18947529E-01 0.45494609E+03</pdfrwt>
<pdfrwt beam="2">  1       21 0.59059462E-01 0.45494609E+03</pdfrwt>
<totfact> 0.63203240E+04</totfact>
</mgrwt>
</event>
<event>
 6    0  0.1576925E-007  0.4574995E+03  0.7546771E-02  0.1025509E+00
         21   -1    0    0  502  501  0.00000000000E+00  0.00000000000E+00  0.38490578050E+03  0.38490578050E+03  0.00000000000E+00 0. -1.
         21   -1    0    0  501  502 -0.00000000000E+00 -0.00000000000E+00 -0.13594610911E+03  0.13594610911E+03  0.00000000000E+00 0. -1.
      99926    2    1    2    0    0  0.00000000000E+00  0.23314683517E-14  0.24895967139E+03  0.52085188961E+03  0.45749947862E+03 0.  0.
         25    1    3    3    0    0  0.85604130279E+02 -0.33745001998E+02  0.65672098753E+02  0.16860345470E+03  0.12509000000E+03 0.  0.
         25    1    3    3    0    0  0.26831750626E+02  0.33085685909E+02  0.70940965991E+02  0.14998244634E+03  0.12509000000E+03 0.  0.
         25    1    3    3    0    0 -0.11243588091E+03  0.65931608961E+00  0.11234660664E+03  0.20226598858E+03  0.12509000000E+03 0.  0.
<mgrwt>
<rscale>  2 0.45749948E+03</rscale>
<asrwt>0</asrwt>
<pdfrwt beam="1">  1       21 0.56603791E-01 0.45749948E+03</pdfrwt>
<pdfrwt beam="2">  1       21 0.19992075E-01 0.45749948E+03</pdfrwt>
<totfact> 0.62579035E+04</totfact>
</mgrwt>
</event>
<event>
 6    0  0.1576925E-007  0.4536357E+03  0.7546771E-02  0.1026643E+00
         21   -1    0    0  502  501  0.00000000000E+00  0.00000000000E+00  0.50748836476E+02  0.50748836476E+02  0.00000000000E+00 0.  1.
         21   -1    0    0  501  502 -0.00000000000E+00 -0.00000000000E+00 -0.10137439799E+04  0.10137439799E+04  0.00000000000E+00 0.  1.
      99926    2    1    2    0    0  0.88817841970E-15 -0.71054273576E-14 -0.96299514338E+03  0.10644928163E+04  0.45363565760E+03 0.  0.
         25    1    3    3    0    0  0.49127727429E+02  0.49371482857E+02 -0.26465378419E+03  0.30089900383E+03  0.12509000000E+03 0.  0.
         25    1    3    3    0    0  0.47352604665E+01 -0.63703380083E+02 -0.52059866726E+03  0.53921333790E+03  0.12509000000E+03 0.  0.
         25    1    3    3    0    0 -0.53862987896E+02  0.14331897226E+02 -0.17774269193E+03  0.22438047459E+03  0.12509000000E+03 0.  0.
<mgrwt>
<rscale>  2 0.45363566E+03</rscale>
<asrwt>0</asrwt>
<pdfrwt beam="1">  1       21 0.74630647E-02 0.45363566E+03</pdfrwt>
<pdfrwt beam="2">  1       21 0.14907999E+00 0.45363566E+03</pdfrwt>
<totfact> 0.37143976E+04</totfact>
</mgrwt>
</event>
<event>
 6    0  0.1576925E-007  0.4746515E+03  0.7546771E-02  0.1020616E+00
         21   -1    0    0  502  501  0.00000000000E+00  0.00000000000E+00  0.47446719303E+03  0.47446719303E+03  0.00000000000E+00 0. -1.
         21   -1    0    0  501  502 -0.00000000000E+00 -0.00000000000E+00 -0.11870897525E+03  0.11870897525E+03  0.00000000000E+00 0. -1.
      99926    2    1    2    0    0  0.71054273576E-14  0.35527136788E-14  0.35575821778E+03  0.59317616828E+03  0.47465151122E+03 0.  0.
         25    1    3    3    0    0 -0.83022314957E+02 -0.84620109587E+02  0.78404520988E+02  0.18933579888E+03  0.12509000000E+03 0.  0.
         25    1    3    3    0    0  0.19526068430E+02  0.70067872359E+02  0.94134833529E+02  0.17262574857E+03  0.12509000000E+03 0.  0.
         25    1    3    3    0    0  0.63496246527E+02  0.14552237228E+02  0.18321886326E+03  0.23121462083E+03  0.12509000000E+03 0.  0.
<mgrwt>
<rscale>  2 0.47465151E+03</rscale>
<asrwt>0</asrwt>
<pdfrwt beam="1">  1       21 0.69774586E-01 0.47465151E+03</pdfrwt>
<pdfrwt beam="2">  1       21 0.17457202E-01 0.47465151E+03</pdfrwt>
<totfact> 0.50747055E+04</totfact>
</mgrwt>
</event>
<event>
 6    0  0.1576925E-007  0.4563281E+03  0.7546771E-02  0.1025852E+00
         21   -1    0    0  502  501  0.00000000000E+00  0.00000000000E+00  0.49640336825E+03  0.49640336825E+03  0.00000000000E+00 0.  1.
         21   -1    0    0  501  502 -0.00000000000E+00 -0.00000000000E+00 -0.10487202832E+03  0.10487202832E+03  0.00000000000E+00 0.  1.
      99926    2    1    2    0    0  0.35527136788E-14  0.00000000000E+00  0.39153133993E+03  0.60127539657E+03  0.45632807537E+03 0.  0.
         25    1    3    3    0    0  0.82619631529E+01 -0.14212480776E+02  0.29072342510E+02  0.12947186507E+03  0.12509000000E+03 0.  0.
         25    1    3    3    0    0 -0.68203278064E+02  0.13438400632E+02  0.98856427670E+02  0.17393211073E+03  0.12509000000E+03 0.  0.
         25    1    3    3    0    0  0.59941314911E+02  0.77408014410E+00  0.26360256975E+03  0.29787142077E+03  0.12509000000E+03 0.  0.
<mgrwt>
<rscale>  2 0.45632808E+03</rscale>
<asrwt>0</asrwt>
<pdfrwt beam="1">  1       21 0.73000495E-01 0.45632808E+03</pdfrwt>
<pdfrwt beam="2">  1       21 0.15422357E-01 0.45632808E+03</pdfrwt>
<totfact> 0.57988946E+04</totfact>
</mgrwt>
</event>
<event>
 6    0  0.1576925E-007  0.4542405E+03  0.7546771E-02  0.1026465E+00
         21   -1    0    0  502  501  0.00000000000E+00  0.00000000000E+00  0.16655799742E+03  0.16655799742E+03  0.00000000000E+00 0.  1.
         21   -1    0    0  501  502 -0.00000000000E+00 -0.00000000000E+00 -0.30970357696E+03  0.30970357696E+03  0.00000000000E+00 0.  1.
      99926    2    1    2    0    0 -0.71054273576E-14 -0.71054273576E-14 -0.14314557954E+03  0.47626157438E+03  0.45424049829E+03 0.  0.
         25    1    3    3    0    0 -0.28569559081E+02  0.44764510881E+02 -0.49038680688E+02  0.14447277060E+03  0.12509000000E+03 0.  0.
         25    1    3    3    0    0  0.71960152946E+02 -0.46648963869E+02 -0.12416214020E+03  0.19600544534E+03  0.12509000000E+03 0.  0.
         25    1    3    3    0    0 -0.43390593865E+02  0.18844529886E+01  0.30055241350E+02  0.13578335845E+03  0.12509000000E+03 0.  0.
<mgrwt>
<rscale>  2 0.45424050E+03</rscale>
<asrwt>0</asrwt>
<pdfrwt beam="1">  1       21 0.24493823E-01 0.45424050E+03</pdfrwt>
<pdfrwt beam="2">  1       21 0.45544643E-01 0.45424050E+03</pdfrwt>
<totfact> 0.67378475E+04</totfact>
</mgrwt>
</event>
<event>
 6    0  0.1576925E-007  0.4552221E+03  0.7546771E-02  0.1026176E+00
         21   -1    0    0  502  501  0.00000000000E+00  0.00000000000E+00  0.27149018009E+03  0.27149018009E+03  0.00000000000E+00 0.  1.
         21   -1    0    0  501  502 -0.00000000000E+00 -0.00000000000E+00 -0.19082378629E+03  0.19082378629E+03  0.00000000000E+00 0.  1.
      99926    2    1    2    0    0 -0.14210854715E-13  0.13322676296E-14  0.80666393806E+02  0.46231396638E+03  0.45522207374E+03 0.  0.
         25    1    3    3    0    0 -0.95178932378E+02 -0.48998966213E+02 -0.14044543982E+02  0.16524129379E+03  0.12509000000E+03 0.  0.
         25    1    3    3    0    0  0.24960999698E+02  0.52696255585E+02  0.49495857767E+02  0.14661955836E+03  0.12509000000E+03 0.  0.
         25    1    3    3    0    0  0.70217932679E+02 -0.36972893711E+01  0.45215080021E+02  0.15045311422E+03  0.12509000000E+03 0.  0.
<mgrwt>
<rscale>  2 0.45522207E+03</rscale>
<asrwt>0</asrwt>
<pdfrwt beam="1">  1       21 0.39925027E-01 0.45522207E+03</pdfrwt>
<pdfrwt beam="2">  1       21 0.28062321E-01 0.45522207E+03</pdfrwt>
<totfact> 0.67890037E+04</totfact>
</mgrwt>
</event>
<event>
 6    0  0.1576925E-007  0.4533770E+03  0.7546771E-02  0.1026720E+00
         21   -1    0    0  502  501  0.00000000000E+00  0.00000000000E+00  0.40466747348E+03  0.40466747348E+03  0.00000000000E+00 0.  1.
         21   -1    0    0  501  502 -0.00000000000E+00 -0.00000000000E+00 -0.12698743811E+03  0.12698743811E+03  0.00000000000E+00 0.  1.
      99926    2    1    2    0    0 -0.71054273576E-14  0.00000000000E+00  0.27768003537E+03  0.53165491159E+03  0.45337704284E+03 0.  0.
         25    1    3    3    0    0 -0.33022695097E+02 -0.42329531797E+02  0.13879746593E+03  0.19440815904E+03  0.12509000000E+03 0.  0.
         25    1    3    3    0    0 -0.49539208564E+02  0.62976697749E+02  0.31873664778E+02  0.15193299922E+03  0.12509000000E+03 0.  0.
         25    1    3    3    0    0  0.82561903661E+02 -0.20647165951E+02  0.10700890466E+03  0.18531375333E+03  0.12509000000E+03 0.  0.
<mgrwt>
<rscale>  2 0.45337704E+03</rscale>
<asrwt>0</asrwt>
<pdfrwt beam="1">  1       21 0.59509922E-01 0.45337704E+03</pdfrwt>
<pdfrwt beam="2">  1       21 0.18674623E-01 0.45337704E+03</pdfrwt>
<totfact> 0.63912400E+04</totfact>
</mgrwt>
</event>
<event>
 6    0  0.1576925E-007  0.4445114E+03  0.7546771E-02  0.1029372E+00
         21   -1    0    0  502  501  0.00000000000E+00  0.00000000000E+00  0.18591313759E+03  0.18591313759E+03  0.00000000000E+00 0.  1.
         21   -1    0    0  501  502 -0.00000000000E+00 -0.00000000000E+00 -0.26570261543E+03  0.26570261543E+03  0.00000000000E+00 0.  1.
      99926    2    1    2    0    0  0.17763568394E-14 -0.35527136788E-14 -0.79789477847E+02  0.45161575302E+03  0.44451144822E+03 0.  0.
         25    1    3    3    0    0  0.11812548059E+02 -0.78325106726E+01  0.48353777218E+02  0.13485725930E+03  0.12509000000E+03 0.  0.
         25    1    3    3    0    0  0.13160594430E+02  0.64340924733E+02 -0.10337449979E+03  0.17506213511E+03  0.12509000000E+03 0.  0.
         25    1    3    3    0    0 -0.24973142489E+02 -0.56508414060E+02 -0.24768755271E+02  0.14169635861E+03  0.12509000000E+03 0.  0.
<mgrwt>
<rscale>  2 0.44451145E+03</rscale>
<asrwt>0</asrwt>
<pdfrwt beam="1">  1       21 0.27340168E-01 0.44451145E+03</pdfrwt>
<pdfrwt beam="2">  1       21 0.39073914E-01 0.44451145E+03</pdfrwt>
<totfact> 0.74864040E+04</totfact>
</mgrwt>
</event>
<event>
 6    0  0.1576925E-007  0.4589063E+03  0.7546771E-02  0.1025099E+00
         21   -1    0    0  502  501  0.00000000000E+00  0.00000000000E+00  0.35312844743E+03  0.35312844743E+03  0.00000000000E+00 0.  1.
         21   -1    0    0  501  502 -0.00000000000E+00 -0.00000000000E+00 -0.14909233404E+03  0.14909233404E+03  0.00000000000E+00 0.  1.
      99926    2    1    2    0    0  0.00000000000E+00  0.00000000000E+00  0.20403611339E+03  0.50222078147E+03  0.45890628430E+03 0.  0.
         25    1    3    3    0    0  0.55299223765E+02 -0.27919191229E+02  0.30457845339E+01  0.13962188328E+03  0.12509000000E+03 0.  0.
         25    1    3    3    0    0 -0.52889238456E+02  0.39538102141E+02  0.20868904473E+02  0.14298095097E+03  0.12509000000E+03 0.  0.
         25    1    3    3    0    0 -0.24099853093E+01 -0.11618910912E+02  0.18012142438E+03  0.21961794722E+03  0.12509000000E+03 0.  0.
<mgrwt>
<rscale>  2 0.45890628E+03</rscale>
<asrwt>0</asrwt>
<pdfrwt beam="1">  1       21 0.51930654E-01 0.45890628E+03</pdfrwt>
<pdfrwt beam="2">  1       21 0.21925343E-01 0.45890628E+03</pdfrwt>
<totfact> 0.63134408E+04</totfact>
</mgrwt>
</event>
<event>
 6    0  0.1576925E-007  0.4538121E+03  0.7546771E-02  0.1026591E+00
         21   -1    0    0  502  501  0.00000000000E+00  0.00000000000E+00  0.20709619073E+04  0.20709619073E+04  0.00000000000E+00 0. -1.
         21   -1    0    0  501  502 -0.00000000000E+00 -0.00000000000E+00 -0.24861083384E+02  0.24861083384E+02  0.00000000000E+00 0. -1.
      99926    2    1    2    0    0 -0.13322676296E-14  0.00000000000E+00  0.20461008239E+04  0.20958229906E+04  0.45381210500E+03 0.  0.
         25    1    3    3    0    0  0.72204223166E+00  0.25412066055E+02  0.42841907199E+03  0.44703098750E+03  0.12509000000E+03 0.  0.
         25    1    3    3    0    0 -0.14209057886E+02 -0.12906225010E+01  0.13024943557E+04  0.13085650988E+04  0.12509000000E+03 0.  0.
         25    1    3    3    0    0  0.13487015655E+02 -0.24121443554E+02  0.31518739621E+03  0.34022690438E+03  0.12509000000E+03 0.  0.
<mgrwt>
<rscale>  2 0.45381210E+03</rscale>
<asrwt>0</asrwt>
<pdfrwt beam="1">  1       21 0.30455310E+00 0.45381210E+03</pdfrwt>
<pdfrwt beam="2">  1       21 0.36560431E-02 0.45381210E+03</pdfrwt>
<totfact> 0.12320933E+04</totfact>
</mgrwt>
</event>
<event>
 6    0  0.1576925E-007  0.4477831E+03  0.7546771E-02  0.1028385E+00
         21   -1    0    0  502  501  0.00000000000E+00  0.00000000000E+00  0.10961518984E+03  0.10961518984E+03  0.00000000000E+00 0.  1.
         21   -1    0    0  501  502 -0.00000000000E+00 -0.00000000000E+00 -0.45730361909E+03  0.45730361909E+03  0.00000000000E+00 0.  1.
      99926    2    1    2    0    0  0.14210854715E-13  0.13322676296E-14 -0.34768842925E+03  0.56691880893E+03  0.44778308598E+03 0.  0.
         25    1    3    3    0    0 -0.75190827131E+02 -0.34271510135E+01 -0.16982942958E+03  0.22395300645E+03  0.12509000000E+03 0.  0.
         25    1    3    3    0    0  0.97403691880E+02  0.33925552282E+02 -0.10798185941E+03  0.19479736228E+03  0.12509000000E+03 0.  0.
         25    1    3    3    0    0 -0.22212864749E+02 -0.30498401268E+02 -0.69877140270E+02  0.14816844020E+03  0.12509000000E+03 0.  0.
<mgrwt>
<rscale>  2 0.44778309E+03</rscale>
<asrwt>0</asrwt>
<pdfrwt beam="1">  1       21 0.16119881E-01 0.44778309E+03</pdfrwt>
<pdfrwt beam="2">  1       21 0.67250531E-01 0.44778309E+03</pdfrwt>
<totfact> 0.64357370E+04</totfact>
</mgrwt>
</event>
<event>
 6    0  0.1576925E-007  0.4540259E+03  0.7546771E-02  0.1026528E+00
         21   -1    0    0  502  501  0.00000000000E+00  0.00000000000E+00  0.19577041949E+04  0.19577041949E+04  0.00000000000E+00 0.  1.
         21   -1    0    0  501  502 -0.00000000000E+00 -0.00000000000E+00 -0.26324142938E+02  0.26324142938E+02  0.00000000000E+00 0.  1.
      99926    2    1    2    0    0  0.00000000000E+00 -0.71054273576E-14  0.19313800520E+04  0.19840283378E+04  0.45402592462E+03 0.  0.
         25    1    3    3    0    0 -0.61092693786E+02  0.49794620118E+02  0.72946361805E+03  0.74429597579E+03  0.12509000000E+03 0.  0.
         25    1    3    3    0    0  0.37422525609E+02 -0.53823007684E+02  0.91471456474E+03  0.92555259419E+03  0.12509000000E+03 0.  0.
         25    1    3    3    0    0  0.23670168178E+02  0.40283875665E+01  0.28720186919E+03  0.31417976786E+03  0.12509000000E+03 0.  0.
<mgrwt>
<rscale>  2 0.45402592E+03</rscale>
<asrwt>0</asrwt>
<pdfrwt beam="1">  1       21 0.28789758E+00 0.45402592E+03</pdfrwt>
<pdfrwt beam="2">  1       21 0.38711988E-02 0.45402592E+03</pdfrwt>
<totfact> 0.14078417E+04</totfact>
</mgrwt>
</event>
<event>
 6    0  0.1576925E-007  0.4526871E+03  0.7546771E-02  0.1026924E+00
         21   -1    0    0  502  501  0.00000000000E+00  0.00000000000E+00  0.18171992150E+04  0.18171992150E+04  0.00000000000E+00 0.  1.
         21   -1    0    0  501  502 -0.00000000000E+00 -0.00000000000E+00 -0.28192511208E+02  0.28192511208E+02  0.00000000000E+00 0.  1.
      99926    2    1    2    0    0  0.00000000000E+00  0.00000000000E+00  0.17890067038E+04  0.18453917262E+04  0.45268712919E+03 0.  0.
         25    1    3    3    0    0 -0.46513640465E+02 -0.42741252124E+01  0.94620199394E+03  0.95557705515E+03  0.12509000000E+03 0.  0.
         25    1    3    3    0    0  0.86150352789E+02 -0.97342689736E+01  0.40995353582E+03  0.43729400740E+03  0.12509000000E+03 0.  0.
         25    1    3    3    0    0 -0.39636712324E+02  0.14008394186E+02  0.43285117399E+03  0.45252066361E+03  0.12509000000E+03 0.  0.
<mgrwt>
<rscale>  2 0.45268713E+03</rscale>
<asrwt>0</asrwt>
<pdfrwt beam="1">  1       21 0.26723510E+00 0.45268713E+03</pdfrwt>
<pdfrwt beam="2">  1       21 0.41459588E-02 0.45268713E+03</pdfrwt>
<totfact> 0.16700497E+04</totfact>
</mgrwt>
</event>
<event>
 6    0  0.1576925E-007  0.4457953E+03  0.7546771E-02  0.1028983E+00
         21   -1    0    0  502  501  0.00000000000E+00  0.00000000000E+00  0.12971488855E+03  0.12971488855E+03  0.00000000000E+00 0.  1.
         21   -1    0    0  501  502 -0.00000000000E+00 -0.00000000000E+00 -0.38301970156E+03  0.38301970156E+03  0.00000000000E+00 0.  1.
      99926    2    1    2    0    0  0.00000000000E+00  0.71054273576E-14 -0.25330481301E+03  0.51273459011E+03  0.44579527992E+03 0.  0.
         25    1    3    3    0    0  0.56800053371E+02  0.17191147367E+02 -0.17932507183E+03  0.22655412399E+03  0.12509000000E+03 0.  0.
         25    1    3    3    0    0 -0.56674508697E+02 -0.40866848969E+02 -0.98235736142E+01  0.14361793056E+03  0.12509000000E+03 0.  0.
         25    1    3    3    0    0 -0.12554467449E+00  0.23675701602E+02 -0.64156167568E+02  0.14256253556E+03  0.12509000000E+03 0.  0.
<mgrwt>
<rscale>  2 0.44579528E+03</rscale>
<asrwt>0</asrwt>
<pdfrwt beam="1">  1       21 0.19075719E-01 0.44579528E+03</pdfrwt>
<pdfrwt beam="2">  1       21 0.56326426E-01 0.44579528E+03</pdfrwt>
<totfact> 0.69310211E+04</totfact>
</mgrwt>
</event>
<event>
 6    0  0.1576925E-007  0.4445311E+03  0.7546771E-02  0.1029366E+00
         21   -1    0    0  502  501  0.00000000000E+00  0.00000000000E+00  0.41747252773E+02  0.41747252773E+02  0.00000000000E+00 0. -1.
         21   -1    0    0  501  502 -0.00000000000E+00 -0.00000000000E+00 -0.11833589473E+04  0.11833589473E+04  0.00000000000E+00 0. -1.
      99926    2    1    2    0    0  0.71054273576E-14  0.35527136788E-14 -0.11416116945E+04  0.12251062001E+04  0.44453114669E+03 0.  0.
         25    1    3    3    0    0 -0.54952117452E+02 -0.28834409383E+02 -0.48026520602E+03  0.50015331109E+03  0.12509000000E+03 0.  0.
         25    1    3    3    0    0  0.71018601454E+02  0.43568176171E+02 -0.48426719181E+03  0.50705428594E+03  0.12509000000E+03 0.  0.
         25    1    3    3    0    0 -0.16066484001E+02 -0.14733766788E+02 -0.17707929671E+03  0.21789860306E+03  0.12509000000E+03 0.  0.
<mgrwt>
<rscale>  2 0.44453115E+03</rscale>
<asrwt>0</asrwt>
<pdfrwt beam="1">  1       21 0.61393021E-02 0.44453115E+03</pdfrwt>
<pdfrwt beam="2">  1       21 0.17402337E+00 0.44453115E+03</pdfrwt>
<totfact> 0.34062657E+04</totfact>
</mgrwt>
</event>
<event>
 6    0  0.1576925E-007  0.4514790E+03  0.7546771E-02  0.1027282E+00
         21   -1    0    0  502  501  0.00000000000E+00  0.00000000000E+00  0.65268498057E+02  0.65268498057E+02  0.00000000000E+00 0.  1.
         21   -1    0    0  501  502 -0.00000000000E+00 -0.00000000000E+00 -0.78074899883E+03  0.78074899883E+03  0.00000000000E+00 0.  1.
      99926    2    1    2    0    0  0.00000000000E+00  0.00000000000E+00 -0.71548050077E+03  0.84601749689E+03  0.45147896745E+03 0.  0.
         25    1    3    3    0    0  0.89525061335E+01  0.10338211495E+03 -0.18323688451E+03  0.24493115972E+03  0.12509000000E+03 0.  0.
         25    1    3    3    0    0 -0.21713135172E+02 -0.83641560032E+02 -0.28741424869E+03  0.32514893395E+03  0.12509000000E+03 0.  0.
         25    1    3    3    0    0  0.12760629038E+02 -0.19740554919E+02 -0.24482936758E+03  0.27593740321E+03  0.12509000000E+03 0.  0.
<mgrwt>
<rscale>  2 0.45147897E+03</rscale>
<asrwt>0</asrwt>
<pdfrwt beam="1">  1       21 0.95983098E-02 0.45147897E+03</pdfrwt>
<pdfrwt beam="2">  1       21 0.11481601E+00 0.45147897E+03</pdfrwt>
<totfact> 0.46900174E+04</totfact>
</mgrwt>
</event>
<event>
 6    0  0.1576925E-007  0.4613496E+03  0.7546771E-02  0.1024391E+00
         21   -1    0    0  502  501  0.00000000000E+00  0.00000000000E+00  0.28570068794E+03  0.28570068794E+03  0.00000000000E+00 0. -1.
         21   -1    0    0  501  502 -0.00000000000E+00 -0.00000000000E+00 -0.18624688431E+03  0.18624688431E+03  0.00000000000E+00 0. -1.
      99926    2    1    2    0    0  0.00000000000E+00  0.00000000000E+00  0.99453803636E+02  0.47194757225E+03  0.46134959834E+03 0.  0.
         25    1    3    3    0    0  0.10259546137E+03  0.34965624693E+02  0.70767901803E+02  0.18001118751E+03  0.12509000000E+03 0.  0.
         25    1    3    3    0    0 -0.61210894122E+02 -0.50754414354E+02 -0.22074674967E+02  0.14985854500E+03  0.12509000000E+03 0.  0.
         25    1    3    3    0    0 -0.41384567250E+02  0.15788789661E+02  0.50760576800E+02  0.14207783973E+03  0.12509000000E+03 0.  0.
<mgrwt>
<rscale>  2 0.46134960E+03</rscale>
<asrwt>0</asrwt>
<pdfrwt beam="1">  1       21 0.42014807E-01 0.46134960E+03</pdfrwt>
<pdfrwt beam="2">  1       21 0.27389247E-01 0.46134960E+03</pdfrwt>
<totfact> 0.64005625E+04</totfact>
</mgrwt>
</event>
<event>
 6    0  0.1576925E-007  0.4595625E+03  0.7546771E-02  0.1024908E+00
         21   -1    0    0  502  501  0.00000000000E+00  0.00000000000E+00  0.15921168469E+03  0.15921168469E+03  0.00000000000E+00 0.  1.
         21   -1    0    0  501  502 -0.00000000000E+00 -0.00000000000E+00 -0.33163026179E+03  0.33163026179E+03  0.00000000000E+00 0.  1.
      99926    2    1    2    0    0 -0.88817841970E-15  0.88817841970E-15 -0.17241857710E+03  0.49084194648E+03  0.45956245571E+03 0.  0.
         25    1    3    3    0    0 -0.15258021700E+02  0.19886266546E+02  0.61675085606E+02  0.14170248801E+03  0.12509000000E+03 0.  0.
         25    1    3    3    0    0  0.10967786565E+02 -0.27530394458E+02 -0.15286088729E+03  0.19973025290E+03  0.12509000000E+03 0.  0.
         25    1    3    3    0    0  0.42902351355E+01  0.76441279124E+01 -0.81232775419E+02  0.14940920558E+03  0.12509000000E+03 0.  0.
<mgrwt>
<rscale>  2 0.45956246E+03</rscale>
<asrwt>0</asrwt>
<pdfrwt beam="1">  1       21 0.23413483E-01 0.45956246E+03</pdfrwt>
<pdfrwt beam="2">  1       21 0.48769156E-01 0.45956246E+03</pdfrwt>
<totfact> 0.63584555E+04</totfact>
</mgrwt>
</event>
<event>
 6    0  0.1576925E-007  0.4660634E+03  0.7546771E-02  0.1023037E+00
         21   -1    0    0  502  501  0.00000000000E+00  0.00000000000E+00  0.24415792570E+03  0.24415792570E+03  0.00000000000E+00 0. -1.
         21   -1    0    0  501  502 -0.00000000000E+00 -0.00000000000E+00 -0.22241246392E+03  0.22241246392E+03  0.00000000000E+00 0. -1.
      99926    2    1    2    0    0  0.71054273576E-14  0.71054273576E-14  0.21745461784E+02  0.46657038962E+03  0.46606336840E+03 0.  0.
         25    1    3    3    0    0 -0.57047557927E+02  0.15485337094E+02  0.30068948931E+01  0.13838630368E+03  0.12509000000E+03 0.  0.
         25    1    3    3    0    0 -0.30032668596E+02  0.55563606487E+02  0.63974889496E+02  0.15404405258E+03  0.12509000000E+03 0.  0.
         25    1    3    3    0    0  0.87080226523E+02 -0.71048943582E+02 -0.45236322606E+02  0.17414003336E+03  0.12509000000E+03 0.  0.
<mgrwt>
<rscale>  2 0.46606337E+03</rscale>
<asrwt>0</asrwt>
<pdfrwt beam="1">  1       21 0.35905578E-01 0.46606337E+03</pdfrwt>
<pdfrwt beam="2">  1       21 0.32707715E-01 0.46606337E+03</pdfrwt>
<totfact> 0.62045814E+04</totfact>
</mgrwt>
</event>
<event>
 6    0  0.1576925E-007  0.4528036E+03  0.7546771E-02  0.1026889E+00
         21   -1    0    0  502  501  0.00000000000E+00  0.00000000000E+00  0.24569659993E+02  0.24569659993E+02  0.00000000000E+00 0.  1.
         21   -1    0    0  501  502 -0.00000000000E+00 -0.00000000000E+00 -0.20862227158E+04  0.20862227158E+04  0.00000000000E+00 0.  1.
      99926    2    1    2    0    0  0.71054273576E-14  0.99920072216E-15 -0.20616530558E+04  0.21107923758E+04  0.45280363426E+03 0.  0.
         25    1    3    3    0    0  0.87451156988E+02  0.28358366798E+02 -0.45562289428E+03  0.48134356931E+03  0.12509000000E+03 0.  0.
         25    1    3    3    0    0 -0.76103060920E+02 -0.29294368522E+02 -0.83212141043E+03  0.84541314498E+03  0.12509000000E+03 0.  0.
         25    1    3    3    0    0 -0.11348096068E+02  0.93600172404E+00 -0.77390875113E+03  0.78403566153E+03  0.12509000000E+03 0.  0.
<mgrwt>
<rscale>  2 0.45280363E+03</rscale>
<asrwt>0</asrwt>
<pdfrwt beam="1">  1       21 0.36131847E-02 0.45280363E+03</pdfrwt>
<pdfrwt beam="2">  1       21 0.30679751E+00 0.45280363E+03</pdfrwt>
<totfact> 0.12190470E+04</totfact>
</mgrwt>
</event>
<event>
 6    0  0.1576925E-007  0.4656627E+03  0.7546771E-02  0.1023152E+00
         21   -1    0    0  502  501  0.00000000000E+00  0.00000000000E+00  0.98252256931E+03  0.98252256931E+03  0.00000000000E+00 0.  1.
         21   -1    0    0  501  502 -0.00000000000E+00 -0.00000000000E+00 -0.55174739404E+02  0.55174739404E+02  0.00000000000E+00 0.  1.
      99926    2    1    2    0    0  0.35527136788E-14  0.14210854715E-13  0.92734782990E+03  0.10376973087E+04  0.46566265352E+03 0.  0.
         25    1    3    3    0    0  0.21302161821E+02 -0.10729897279E+03  0.47576852541E+03  0.50395441215E+03  0.12509000000E+03 0.  0.
         25    1    3    3    0    0 -0.43361588903E+02  0.40219836596E+02  0.25706677696E+03  0.29193954608E+03  0.12509000000E+03 0.  0.
         25    1    3    3    0    0  0.22059427082E+02  0.67079136190E+02  0.19451252753E+03  0.24180335048E+03  0.12509000000E+03 0.  0.
<mgrwt>
<rscale>  2 0.46566265E+03</rscale>
<asrwt>0</asrwt>
<pdfrwt beam="1">  1       21 0.14448860E+00 0.46566265E+03</pdfrwt>
<pdfrwt beam="2">  1       21 0.81139329E-02 0.46566265E+03</pdfrwt>
<totfact> 0.34748370E+04</totfact>
</mgrwt>
</event>
<event>
 6    0  0.1576925E-007  0.4498821E+03  0.7546771E-02  0.1027757E+00
         21   -1    0    0  502  501  0.00000000000E+00  0.00000000000E+00  0.22154401674E+03  0.22154401674E+03  0.00000000000E+00 0.  1.
         21   -1    0    0  501  502 -0.00000000000E+00 -0.00000000000E+00 -0.22839022153E+03  0.22839022153E+03  0.00000000000E+00 0.  1.
      99926    2    1    2    0    0  0.00000000000E+00  0.00000000000E+00 -0.68462047923E+01  0.44993423827E+03  0.44988214929E+03 0.  0.
         25    1    3    3    0    0 -0.40979025083E+02 -0.79623638565E+02  0.61865635010E+02  0.16581335655E+03  0.12509000000E+03 0.  0.
         25    1    3    3    0    0 -0.10894295243E+02  0.52248016087E+02 -0.49025975009E+02  0.14456692284E+03  0.12509000000E+03 0.  0.
         25    1    3    3    0    0  0.51873320326E+02  0.27375622478E+02 -0.19685864794E+02  0.13955395888E+03  0.12509000000E+03 0.  0.
<mgrwt>
<rscale>  2 0.44988215E+03</rscale>
<asrwt>0</asrwt>
<pdfrwt beam="1">  1       21 0.32580003E-01 0.44988215E+03</pdfrwt>
<pdfrwt beam="2">  1       21 0.33586797E-01 0.44988215E+03</pdfrwt>
<totfact> 0.71806232E+04</totfact>
</mgrwt>
</event>
<event>
 6    0  0.1576925E-007  0.4538255E+03  0.7546771E-02  0.1026587E+00
         21   -1    0    0  502  501  0.00000000000E+00  0.00000000000E+00  0.90793482354E+02  0.90793482354E+02  0.00000000000E+00 0.  1.
         21   -1    0    0  501  502 -0.00000000000E+00 -0.00000000000E+00 -0.56710445641E+03  0.56710445641E+03  0.00000000000E+00 0.  1.
      99926    2    1    2    0    0 -0.26645352591E-14  0.00000000000E+00 -0.47631097406E+03  0.65789793876E+03  0.45382546626E+03 0.  0.
         25    1    3    3    0    0  0.64907241759E+02 -0.43706071141E+01 -0.31441872940E+03  0.34458481936E+03  0.12509000000E+03 0.  0.
         25    1    3    3    0    0 -0.32935672568E+01 -0.72395081157E+01 -0.53342652929E+02  0.13622116130E+03  0.12509000000E+03 0.  0.
         25    1    3    3    0    0 -0.61613674502E+02  0.11610115230E+02 -0.10854959173E+03  0.17709195811E+03  0.12509000000E+03 0.  0.
<mgrwt>
<rscale>  2 0.45382547E+03</rscale>
<asrwt>0</asrwt>
<pdfrwt beam="1">  1       21 0.13351982E-01 0.45382547E+03</pdfrwt>
<pdfrwt beam="2">  1       21 0.83397718E-01 0.45382547E+03</pdfrwt>
<totfact> 0.55763289E+04</totfact>
</mgrwt>
</event>
<event>
 6    0  0.1576925E-007  0.4412562E+03  0.7546771E-02  0.1030362E+00
         21   -1    0    0  502  501  0.00000000000E+00  0.00000000000E+00  0.29593553088E+04  0.29593553088E+04  0.00000000000E+00 0.  1.
         21   -1    0    0  501  502 -0.00000000000E+00 -0.00000000000E+00 -0.16448437059E+02  0.16448437059E+02  0.00000000000E+00 0.  1.
      99926    2    1    2    0    0  0.00000000000E+00  0.31086244690E-14  0.29429068717E+04  0.29758037458E+04  0.44125624996E+03 0.  0.
         25    1    3    3    0    0 -0.71858675581E+01 -0.50598577591E+02  0.56941119802E+03  0.58522514751E+03  0.12509000000E+03 0.  0.
         25    1    3    3    0    0  0.58026835060E+02 -0.55401480509E+00  0.13326564257E+04  0.13397716513E+04  0.12509000000E+03 0.  0.
         25    1    3    3    0    0 -0.50840967502E+02  0.51152592397E+02  0.10408392480E+04  0.10508069470E+04  0.12509000000E+03 0.  0.
<mgrwt>
<rscale>  2 0.44125625E+03</rscale>
<asrwt>0</asrwt>
<pdfrwt beam="1">  1       21 0.43519894E+00 0.44125625E+03</pdfrwt>
<pdfrwt beam="2">  1       21 0.24188899E-02 0.44125625E+03</pdfrwt>
<totfact> 0.37716291E+03</totfact>
</mgrwt>
</event>
<event>
 6    0  0.1576925E-007  0.4509528E+03  0.7546771E-02  0.1027438E+00
         21   -1    0    0  502  501  0.00000000000E+00  0.00000000000E+00  0.10314644378E+04  0.10314644378E+04  0.00000000000E+00 0.  1.
         21   -1    0    0  501  502 -0.00000000000E+00 -0.00000000000E+00 -0.49288752912E+02  0.49288752912E+02  0.00000000000E+00 0.  1.
      99926    2    1    2    0    0  0.00000000000E+00  0.71054273576E-14  0.98217568484E+03  0.10807531907E+04  0.45095275056E+03 0.  0.
         25    1    3    3    0    0 -0.10833052521E+03  0.25906280612E+02  0.32923604651E+03  0.36939209586E+03  0.12509000000E+03 0.  0.
         25    1    3    3    0    0  0.38837670247E+02  0.18829891909E+02  0.29845953255E+03  0.32647898880E+03  0.12509000000E+03 0.  0.
         25    1    3    3    0    0  0.69492854960E+02 -0.44736172521E+02  0.35448010579E+03  0.38488210600E+03  0.12509000000E+03 0.  0.
<mgrwt>
<rscale>  2 0.45095275E+03</rscale>
<asrwt>0</asrwt>
<pdfrwt beam="1">  1       21 0.15168593E+00 0.45095275E+03</pdfrwt>
<pdfrwt beam="2">  1       21 0.72483467E-02 0.45095275E+03</pdfrwt>
<totfact> 0.37333913E+04</totfact>
</mgrwt>
</event>
<event>
 6    0  0.1576925E-007  0.4557808E+03  0.7546771E-02  0.1026012E+00
         21   -1    0    0  502  501  0.00000000000E+00  0.00000000000E+00  0.28299859853E+04  0.28299859853E+04  0.00000000000E+00 0.  1.
         21   -1    0    0  501  502 -0.00000000000E+00 -0.00000000000E+00 -0.18351340339E+02  0.18351340339E+02  0.00000000000E+00 0.  1.
      99926    2    1    2    0    0  0.00000000000E+00  0.00000000000E+00  0.28116346450E+04  0.28483373256E+04  0.45578080684E+03 0.  0.
         25    1    3    3    0    0 -0.29789098960E+02 -0.53879987003E+02  0.46948239322E+03  0.48974653552E+03  0.12509000000E+03 0.  0.
         25    1    3    3    0    0  0.12427094913E+01  0.68911795608E+02  0.98436819462E+03  0.99467513822E+03  0.12509000000E+03 0.  0.
         25    1    3    3    0    0  0.28546389469E+02 -0.15031808606E+02  0.13577840571E+04  0.13639156519E+04  0.12509000000E+03 0.  0.
<mgrwt>
<rscale>  2 0.45578081E+03</rscale>
<asrwt>0</asrwt>
<pdfrwt beam="1">  1       21 0.41617411E+00 0.45578081E+03</pdfrwt>
<pdfrwt beam="2">  1       21 0.26987285E-02 0.45578081E+03</pdfrwt>
<totfact> 0.41588053E+03</totfact>
</mgrwt>
</event>
<event>
 6    0  0.1576925E-007  0.4530944E+03  0.7546771E-02  0.1026803E+00
         21   -1    0    0  502  501  0.00000000000E+00  0.00000000000E+00  0.27488929475E+03  0.27488929475E+03  0.00000000000E+00 0.  1.
         21   -1    0    0  501  502 -0.00000000000E+00 -0.00000000000E+00 -0.18670659787E+03  0.18670659787E+03  0.00000000000E+00 0.  1.
      99926    2    1    2    0    0  0.00000000000E+00  0.00000000000E+00  0.88182696886E+02  0.46159589262E+03  0.45309444938E+03 0.  0.
         25    1    3    3    0    0  0.87514294256E+02 -0.13796581910E+02  0.71096094966E+02  0.16897118154E+03  0.12509000000E+03 0.  0.
         25    1    3    3    0    0 -0.50869033016E+02  0.37796892399E+01  0.69328184852E+02  0.15184152886E+03  0.12509000000E+03 0.  0.
         25    1    3    3    0    0 -0.36645261240E+02  0.10016892670E+02 -0.52241582931E+02  0.14078318222E+03  0.12509000000E+03 0.  0.
<mgrwt>
<rscale>  2 0.45309445E+03</rscale>
<asrwt>0</asrwt>
<pdfrwt beam="1">  1       21 0.40424896E-01 0.45309445E+03</pdfrwt>
<pdfrwt beam="2">  1       21 0.27456853E-01 0.45309445E+03</pdfrwt>
<totfact> 0.69104499E+04</totfact>
</mgrwt>
</event>
<event>
 6    0  0.1576925E-007  0.4506428E+03  0.7546771E-02  0.1027531E+00
         21   -1    0    0  502  501  0.00000000000E+00  0.00000000000E+00  0.54996930355E+02  0.54996930355E+02  0.00000000000E+00 0.  1.
         21   -1    0    0  501  502 -0.00000000000E+00 -0.00000000000E+00 -0.92313743169E+03  0.92313743169E+03  0.00000000000E+00 0.  1.
      99926    2    1    2    0    0  0.88817841970E-15  0.71054273576E-14 -0.86814050134E+03  0.97813436205E+03  0.45064276334E+03 0.  0.
         25    1    3    3    0    0 -0.96549127283E+01  0.33552834132E+02 -0.16331467171E+03  0.20865809381E+03  0.12509000000E+03 0.  0.
         25    1    3    3    0    0  0.14025324411E+02 -0.92257866696E+02 -0.48780385999E+03  0.51216046081E+03  0.12509000000E+03 0.  0.
         25    1    3    3    0    0 -0.43704116827E+01  0.58705032563E+02 -0.21702196964E+03  0.25731580743E+03  0.12509000000E+03 0.  0.
<mgrwt>
<rscale>  2 0.45064276E+03</rscale>
<asrwt>0</asrwt>
<pdfrwt beam="1">  1       21 0.80877840E-02 0.45064276E+03</pdfrwt>
<pdfrwt beam="2">  1       21 0.13575550E+00 0.45064276E+03</pdfrwt>
<totfact> 0.41414711E+04</totfact>
</mgrwt>
</event>
<event>
 6    0  0.1576925E-007  0.4550680E+03  0.7546771E-02  0.1026221E+00
         21   -1    0    0  502  501  0.00000000000E+00  0.00000000000E+00  0.36229876465E+02  0.36229876465E+02  0.00000000000E+00 0. -1.
         21   -1    0    0  501  502 -0.00000000000E+00 -0.00000000000E+00 -0.14289787658E+04  0.14289787658E+04  0.00000000000E+00 0. -1.
      99926    2    1    2    0    0 -0.35527136788E-14  0.00000000000E+00 -0.13927488894E+04  0.14652086423E+04  0.45506801319E+03 0.  0.
         25    1    3    3    0    0  0.47567863726E+02  0.40828758758E+02 -0.46663112788E+03  0.48715686058E+03  0.12509000000E+03 0.  0.
         25    1    3    3    0    0 -0.64632806215E+02 -0.10230706110E+03 -0.51464394067E+03  0.54327711912E+03  0.12509000000E+03 0.  0.
         25    1    3    3    0    0  0.17064942490E+02  0.61478302340E+02 -0.41147382080E+03  0.43477466258E+03  0.12509000000E+03 0.  0.
<mgrwt>
<rscale>  2 0.45506801E+03</rscale>
<asrwt>0</asrwt>
<pdfrwt beam="1">  1       21 0.53279218E-02 0.45506801E+03</pdfrwt>
<pdfrwt beam="2">  1       21 0.21014398E+00 0.45506801E+03</pdfrwt>
<totfact> 0.24631718E+04</totfact>
</mgrwt>
</event>
<event>
 6    0  0.1576925E-007  0.4570979E+03  0.7546771E-02  0.1025626E+00
         21   -1    0    0  502  501  0.00000000000E+00  0.00000000000E+00  0.24194810534E+03  0.24194810534E+03  0.00000000000E+00 0. -1.
         21   -1    0    0  501  502 -0.00000000000E+00 -0.00000000000E+00 -0.21589180779E+03  0.21589180779E+03  0.00000000000E+00 0. -1.
      99926    2    1    2    0    0 -0.71054273576E-14 -0.71054273576E-14  0.26056297547E+02  0.45783991313E+03  0.45709786196E+03 0.  0.
         25    1    3    3    0    0  0.94823084818E+02  0.61837250665E+02 -0.37847272616E+02  0.17290224732E+03  0.12509000000E+03 0.  0.
         25    1    3    3    0    0 -0.47849784446E+02 -0.23237670130E+02  0.51287374133E+02  0.14528418369E+03  0.12509000000E+03 0.  0.
         25    1    3    3    0    0 -0.46973300372E+02 -0.38599580535E+02  0.12616196030E+02  0.13965348212E+03  0.12509000000E+03 0.  0.
<mgrwt>
<rscale>  2 0.45709786E+03</rscale>
<asrwt>0</asrwt>
<pdfrwt beam="1">  1       21 0.35580604E-01 0.45709786E+03</pdfrwt>
<pdfrwt beam="2">  1       21 0.31748795E-01 0.45709786E+03</pdfrwt>
<totfact> 0.67206278E+04</totfact>
</mgrwt>
</event>
<event>
 6    0  0.1576925E-007  0.4522860E+03  0.7546771E-02  0.1027043E+00
         21   -1    0    0  502  501  0.00000000000E+00  0.00000000000E+00  0.16274795973E+03  0.16274795973E+03  0.00000000000E+00 0. -1.
         21   -1    0    0  501  502 -0.00000000000E+00 -0.00000000000E+00 -0.31423221007E+03  0.31423221007E+03  0.00000000000E+00 0. -1.
      99926    2    1    2    0    0 -0.35527136788E-14 -0.35527136788E-14 -0.15148425034E+03  0.47698016980E+03  0.45228597622E+03 0.  0.
         25    1    3    3    0    0 -0.38978883153E+02  0.55616329364E+02 -0.12375674510E+01  0.14234313857E+03  0.12509000000E+03 0.  0.
         25    1    3    3    0    0  0.29464200750E+02 -0.22610117207E+02  0.71386567641E+01  0.13068215275E+03  0.12509000000E+03 0.  0.
         25    1    3    3    0    0  0.95146824034E+01 -0.33006212157E+02 -0.15738533965E+03  0.20395487849E+03  0.12509000000E+03 0.  0.
<mgrwt>
<rscale>  2 0.45228598E+03</rscale>
<asrwt>0</asrwt>
<pdfrwt beam="1">  1       21 0.23933524E-01 0.45228598E+03</pdfrwt>
<pdfrwt beam="2">  1       21 0.46210619E-01 0.45228598E+03</pdfrwt>
<totfact> 0.68381787E+04</totfact>
</mgrwt>
</event>
<event>
 6    0  0.1576925E-007  0.4520936E+03  0.7546771E-02  0.1027100E+00
         21   -1    0    0  502  501  0.00000000000E+00  0.00000000000E+00  0.23834891781E+03  0.23834891781E+03  0.00000000000E+00 0.  1.
         21   -1    0    0  501  502 -0.00000000000E+00 -0.00000000000E+00 -0.21437964255E+03  0.21437964255E+03  0.00000000000E+00 0.  1.
      99926    2    1    2    0    0  0.00000000000E+00  0.00000000000E+00  0.23969275264E+02  0.45272856036E+03  0.45209360005E+03 0.  0.
         25    1    3    3    0    0 -0.43641139187E+02 -0.35205213983E+02  0.32559834659E+02  0.14089573114E+03  0.12509000000E+03 0.  0.
         25    1    3    3    0    0 -0.11029020861E+02  0.63396993829E+02 -0.72762839734E+02  0.15837536764E+03  0.12509000000E+03 0.  0.
         25    1    3    3    0    0  0.54670160048E+02 -0.28191779846E+02  0.64172280340E+02  0.15345746158E+03  0.12509000000E+03 0.  0.
<mgrwt>
<rscale>  2 0.45209360E+03</rscale>
<asrwt>0</asrwt>
<pdfrwt beam="1">  1       21 0.35051312E-01 0.45209360E+03</pdfrwt>
<pdfrwt beam="2">  1       21 0.31526418E-01 0.45209360E+03</pdfrwt>
<totfact> 0.70329370E+04</totfact>
</mgrwt>
</event>
<event>
 6    0  0.1576925E-007  0.4510027E+03  0.7546771E-02  0.1027423E+00
         21   -1    0    0  502  501  0.00000000000E+00  0.00000000000E+00  0.65065900231E+03  0.65065900231E+03  0.00000000000E+00 0.  1.
         21   -1    0    0  501  502 -0.00000000000E+00 -0.00000000000E+00 -0.78152860990E+02  0.78152860990E+02  0.00000000000E+00 0.  1.
      99926    2    1    2    0    0  0.00000000000E+00 -0.71054273576E-14  0.57250614132E+03  0.72881186330E+03  0.45100271644E+03 0.  0.
         25    1    3    3    0    0 -0.86769821908E+02  0.64026006700E+02  0.23827670650E+03  0.28991658885E+03  0.12509000000E+03 0.  0.
         25    1    3    3    0    0  0.26242228300E+02 -0.62906074014E+01  0.10941851231E+03  0.16836907443E+03  0.12509000000E+03 0.  0.
         25    1    3    3    0    0  0.60527593608E+02 -0.57735399298E+02  0.22481092251E+03  0.27052620002E+03  0.12509000000E+03 0.  0.
<mgrwt>
<rscale>  2 0.45100272E+03</rscale>
<asrwt>0</asrwt>
<pdfrwt beam="1">  1       21 0.95685144E-01 0.45100272E+03</pdfrwt>
<pdfrwt beam="2">  1       21 0.11493068E-01 0.45100272E+03</pdfrwt>
<totfact> 0.53013304E+04</totfact>
</mgrwt>
</event>
<event>
 6    0  0.1576925E-007  0.4545035E+03  0.7546771E-02  0.1026388E+00
         21   -1    0    0  502  501  0.00000000000E+00  0.00000000000E+00  0.26110117837E+03  0.26110117837E+03  0.00000000000E+00 0.  1.
         21   -1    0    0  501  502 -0.00000000000E+00 -0.00000000000E+00 -0.19779058761E+03  0.19779058761E+03  0.00000000000E+00 0.  1.
      99926    2    1    2    0    0  0.00000000000E+00  0.00000000000E+00  0.63310590758E+02  0.45889176598E+03  0.45450348952E+03 0.  0.
         25    1    3    3    0    0 -0.10561672533E+03  0.29894933399E+01  0.84059137282E+02  0.18405780722E+03  0.12509000000E+03 0.  0.
         25    1    3    3    0    0  0.38814183743E+02  0.11872380851E+01  0.28677578066E+01  0.13101023826E+03  0.12509000000E+03 0.  0.
         25    1    3    3    0    0  0.66802541585E+02 -0.41767314250E+01 -0.23616304330E+02  0.14382372050E+03  0.12509000000E+03 0.  0.
<mgrwt>
<rscale>  2 0.45450349E+03</rscale>
<asrwt>0</asrwt>
<pdfrwt beam="1">  1       21 0.38397232E-01 0.45450349E+03</pdfrwt>
<pdfrwt beam="2">  1       21 0.29086851E-01 0.45450349E+03</pdfrwt>
<totfact> 0.68532370E+04</totfact>
</mgrwt>
</event>
<event>
 6    0  0.1576925E-007  0.4502945E+03  0.7546771E-02  0.1027634E+00
         21   -1    0    0  502  501  0.00000000000E+00  0.00000000000E+00  0.20566667127E+03  0.20566667127E+03  0.00000000000E+00 0.  1.
         21   -1    0    0  501  502 -0.00000000000E+00 -0.00000000000E+00 -0.24647301515E+03  0.24647301515E+03  0.00000000000E+00 0.  1.
      99926    2    1    2    0    0  0.13322676296E-14  0.00000000000E+00 -0.40806343885E+02  0.45213968642E+03  0.45029450179E+03 0.  0.
         25    1    3    3    0    0  0.37781976218E+01 -0.15302175879E+02  0.33860712404E+01  0.12612456122E+03  0.12509000000E+03 0.  0.
         25    1    3    3    0    0  0.12559092123E+02  0.22567279616E+02 -0.12281153707E+03  0.17719253551E+03  0.12509000000E+03 0.  0.
         25    1    3    3    0    0 -0.16337289744E+02 -0.72651037369E+01  0.78619121942E+02  0.14882258969E+03  0.12509000000E+03 0.  0.
<mgrwt>
<rscale>  2 0.45029450E+03</rscale>
<asrwt>0</asrwt>
<pdfrwt beam="1">  1       21 0.30245099E-01 0.45029450E+03</pdfrwt>
<pdfrwt beam="2">  1       21 0.36246031E-01 0.45029450E+03</pdfrwt>
<totfact> 0.71399009E+04</totfact>
</mgrwt>
</event>
<event>
 6    0  0.1576925E-007  0.4564463E+03  0.7546771E-02  0.1025817E+00
         21   -1    0    0  502  501  0.00000000000E+00  0.00000000000E+00  0.26042577244E+03  0.26042577244E+03  0.00000000000E+00 0.  1.
         21   -1    0    0  501  502 -0.00000000000E+00 -0.00000000000E+00 -0.20000249842E+03  0.20000249842E+03  0.00000000000E+00 0.  1.
      99926    2    1    2    0    0  0.00000000000E+00  0.00000000000E+00  0.60423274023E+02  0.46042827086E+03  0.45644629538E+03 0.  0.
         25    1    3    3    0    0 -0.15869463279E+02 -0.10748779671E+03  0.72507008818E+02  0.18085972668E+03  0.12509000000E+03 0.  0.
         25    1    3    3    0    0  0.34640646703E+01  0.45483674124E+02 -0.34692303262E+02  0.13759298079E+03  0.12509000000E+03 0.  0.
         25    1    3    3    0    0  0.12405398609E+02  0.62004122589E+02  0.22608568467E+02  0.14197556339E+03  0.12509000000E+03 0.  0.
<mgrwt>
<rscale>  2 0.45644630E+03</rscale>
<asrwt>0</asrwt>
<pdfrwt beam="1">  1       21 0.38297908E-01 0.45644630E+03</pdfrwt>
<pdfrwt beam="2">  1       21 0.29412132E-01 0.45644630E+03</pdfrwt>
<totfact> 0.67368971E+04</totfact>
</mgrwt>
</event>
<event>
 6    0  0.1576925E-007  0.4571258E+03  0.7546771E-02  0.1025618E+00
         21   -1    0    0  502  501  0.00000000000E+00  0.00000000000E+00  0.16232906120E+03  0.16232906120E+03  0.00000000000E+00 0.  1.
         21   -1    0    0  501  502 -0.00000000000E+00 -0.00000000000E+00 -0.32182163756E+03  0.32182163756E+03  0.00000000000E+00 0.  1.
      99926    2    1    2    0    0  0.00000000000E+00 -0.35527136788E-14 -0.15949257636E+03  0.48415069876E+03  0.45712582207E+03 0.  0.
         25    1    3    3    0    0 -0.77012097666E+02 -0.28242572376E+02  0.12410026107E+02  0.15010004307E+03  0.12509000000E+03 0.  0.
         25    1    3    3    0    0  0.28966000447E+02 -0.61840174794E+00 -0.14621618663E+03  0.19459211940E+03  0.12509000000E+03 0.  0.
         25    1    3    3    0    0  0.48046097220E+02  0.28860974124E+02 -0.25686415843E+02  0.13945853629E+03  0.12509000000E+03 0.  0.
<mgrwt>
<rscale>  2 0.45712582E+03</rscale>
<asrwt>0</asrwt>
<pdfrwt beam="1">  1       21 0.23871921E-01 0.45712582E+03</pdfrwt>
<pdfrwt beam="2">  1       21 0.47326711E-01 0.45712582E+03</pdfrwt>
<totfact> 0.65290437E+04</totfact>
</mgrwt>
</event>
<event>
 6    0  0.1576925E-007  0.4590112E+03  0.7546771E-02  0.1025068E+00
         21   -1    0    0  502  501  0.00000000000E+00  0.00000000000E+00  0.10237887851E+03  0.10237887851E+03  0.00000000000E+00 0.  1.
         21   -1    0    0  501  502 -0.00000000000E+00 -0.00000000000E+00 -0.51448902510E+03  0.51448902510E+03  0.00000000000E+00 0.  1.
      99926    2    1    2    0    0  0.00000000000E+00  0.00000000000E+00 -0.41211014659E+03  0.61686790362E+03  0.45901115193E+03 0.  0.
         25    1    3    3    0    0 -0.28105023897E+01  0.79301961212E+02 -0.12819548621E+03  0.19590377934E+03  0.12509000000E+03 0.  0.
         25    1    3    3    0    0  0.25486042136E+02 -0.79549126594E+02 -0.56981072239E+02  0.16084760669E+03  0.12509000000E+03 0.  0.
         25    1    3    3    0    0 -0.22675539746E+02  0.24716538221E+00 -0.22693358813E+03  0.26011651758E+03  0.12509000000E+03 0.  0.
<mgrwt>
<rscale>  2 0.45901115E+03</rscale>
<asrwt>0</asrwt>
<pdfrwt beam="1">  1       21 0.15055717E-01 0.45901115E+03</pdfrwt>
<pdfrwt beam="2">  1       21 0.75660151E-01 0.45901115E+03</pdfrwt>
<totfact> 0.55861125E+04</totfact>
</mgrwt>
</event>
<event>
 6    0  0.1576925E-007  0.4562159E+03  0.7546771E-02  0.1025884E+00
         21   -1    0    0  502  501  0.00000000000E+00  0.00000000000E+00  0.30521419203E+03  0.30521419203E+03  0.00000000000E+00 0. -1.
         21   -1    0    0  501  502 -0.00000000000E+00 -0.00000000000E+00 -0.17048103440E+03  0.17048103440E+03  0.00000000000E+00 0. -1.
      99926    2    1    2    0    0 -0.17763568394E-14  0.22204460493E-14  0.13473315763E+03  0.47569522644E+03  0.45621587510E+03 0.  0.
         25    1    3    3    0    0  0.34537971907E+02 -0.56864259430E+02  0.50949272170E+02  0.15056477655E+03  0.12509000000E+03 0.  0.
         25    1    3    3    0    0 -0.14932457174E+02 -0.29035078193E+01  0.12669167469E+03  0.17868882777E+03  0.12509000000E+03 0.  0.
         25    1    3    3    0    0 -0.19605514733E+02  0.59767767250E+02 -0.42907789232E+02  0.14644162211E+03  0.12509000000E+03 0.  0.
<mgrwt>
<rscale>  2 0.45621588E+03</rscale>
<asrwt>0</asrwt>
<pdfrwt beam="1">  1       21 0.44884440E-01 0.45621588E+03</pdfrwt>
<pdfrwt beam="2">  1       21 0.25070740E-01 0.45621588E+03</pdfrwt>
<totfact> 0.66372085E+04</totfact>
</mgrwt>
</event>
<event>
 6    0  0.1576925E-007  0.4564965E+03  0.7546771E-02  0.1025802E+00
         21   -1    0    0  502  501  0.00000000000E+00  0.00000000000E+00  0.80636629343E+03  0.80636629343E+03  0.00000000000E+00 0.  1.
         21   -1    0    0  501  502 -0.00000000000E+00 -0.00000000000E+00 -0.64607451650E+02  0.64607451650E+02  0.00000000000E+00 0.  1.
      99926    2    1    2    0    0 -0.44408920985E-15  0.14210854715E-13  0.74175884178E+03  0.87097374508E+03  0.45649653368E+03 0.  0.
         25    1    3    3    0    0  0.22627587314E+01 -0.10266330242E+03  0.21101063855E+03  0.26592832008E+03  0.12509000000E+03 0.  0.
         25    1    3    3    0    0 -0.79593073174E+01  0.75710434216E+02  0.37994490196E+03  0.40718675943E+03  0.12509000000E+03 0.  0.
         25    1    3    3    0    0  0.56965485860E+01  0.26952868201E+02  0.15080330127E+03  0.19785866558E+03  0.12509000000E+03 0.  0.
<mgrwt>
<rscale>  2 0.45649653E+03</rscale>
<asrwt>0</asrwt>
<pdfrwt beam="1">  1       21 0.11858327E+00 0.45649653E+03</pdfrwt>
<pdfrwt beam="2">  1       21 0.95010963E-02 0.45649653E+03</pdfrwt>
<totfact> 0.43994495E+04</totfact>
</mgrwt>
</event>
<event>
 6    0  0.1576925E-007  0.4547629E+03  0.7546771E-02  0.1026311E+00
         21   -1    0    0  502  501  0.00000000000E+00  0.00000000000E+00  0.66366408753E+03  0.66366408753E+03  0.00000000000E+00 0.  1.
         21   -1    0    0  501  502 -0.00000000000E+00 -0.00000000000E+00 -0.77904346888E+02  0.77904346888E+02  0.00000000000E+00 0.  1.
      99926    2    1    2    0    0 -0.35527136788E-14 -0.35527136788E-14  0.58575974064E+03  0.74156843442E+03  0.45476287136E+03 0.  0.
         25    1    3    3    0    0 -0.28287951588E+02  0.29203450238E+02  0.74028270993E+02  0.15093290800E+03  0.12509000000E+03 0.  0.
         25    1    3    3    0    0  0.64679756642E+02  0.31334245489E+02  0.19240378778E+03  0.24048291314E+03  0.12509000000E+03 0.  0.
         25    1    3    3    0    0 -0.36391805053E+02 -0.60537695728E+02  0.31932768187E+03  0.35015261328E+03  0.12509000000E+03 0.  0.
<mgrwt>
<rscale>  2 0.45476287E+03</rscale>
<asrwt>0</asrwt>
<pdfrwt beam="1">  1       21 0.97597657E-01 0.45476287E+03</pdfrwt>
<pdfrwt beam="2">  1       21 0.11456522E-01 0.45476287E+03</pdfrwt>
<totfact> 0.50798115E+04</totfact>
</mgrwt>
</event>
<event>
 6    0  0.1576925E-007  0.4481995E+03  0.7546771E-02  0.1028260E+00
         21   -1    0    0  502  501  0.00000000000E+00  0.00000000000E+00  0.26155336124E+02  0.26155336124E+02  0.00000000000E+00 0. -1.
         21   -1    0    0  501  502 -0.00000000000E+00 -0.00000000000E+00 -0.19200938006E+04  0.19200938006E+04  0.00000000000E+00 0. -1.
      99926    2    1    2    0    0  0.00000000000E+00  0.00000000000E+00 -0.18939384645E+04  0.19462491367E+04  0.44819950354E+03 0.  0.
         25    1    3    3    0    0 -0.40561808991E+02 -0.68881476086E+02 -0.50760657394E+03  0.52886847146E+03  0.12509000000E+03 0.  0.
         25    1    3    3    0    0  0.48935554702E+02 -0.27158421169E+02 -0.66036252161E+03  0.67443193608E+03  0.12509000000E+03 0.  0.
         25    1    3    3    0    0 -0.83737457107E+01  0.96039897255E+02 -0.72596936893E+03  0.74294872920E+03  0.12509000000E+03 0.  0.
<mgrwt>
<rscale>  2 0.44819950E+03</rscale>
<asrwt>0</asrwt>
<pdfrwt beam="1">  1       21 0.38463713E-02 0.44819950E+03</pdfrwt>
<pdfrwt beam="2">  1       21 0.28236685E+00 0.44819950E+03</pdfrwt>
<totfact> 0.15404623E+04</totfact>
</mgrwt>
</event>
<event>
 6    0  0.1576925E-007  0.4530552E+03  0.7546771E-02  0.1026815E+00
         21   -1    0    0  502  501  0.00000000000E+00  0.00000000000E+00  0.69647916100E+03  0.69647916100E+03  0.00000000000E+00 0.  1.
         21   -1    0    0  501  502 -0.00000000000E+00 -0.00000000000E+00 -0.73677367789E+02  0.73677367789E+02  0.00000000000E+00 0.  1.
      99926    2    1    2    0    0 -0.35527136788E-14  0.00000000000E+00  0.62280179321E+03  0.77015652879E+03  0.45305519003E+03 0.  0.
         25    1    3    3    0    0 -0.15084915301E+02 -0.84584298687E+02  0.28849970722E+03  0.32597798610E+03  0.12509000000E+03 0.  0.
         25    1    3    3    0    0 -0.40392863069E+02  0.32251484901E+02  0.22024495878E+03  0.25850936469E+03  0.12509000000E+03 0.  0.
         25    1    3    3    0    0  0.55477778370E+02  0.52332813786E+02  0.11405712721E+03  0.18566917800E+03  0.12509000000E+03 0.  0.
<mgrwt>
<rscale>  2 0.45305519E+03</rscale>
<asrwt>0</asrwt>
<pdfrwt beam="1">  1       21 0.10242340E+00 0.45305519E+03</pdfrwt>
<pdfrwt beam="2">  1       21 0.10834907E-01 0.45305519E+03</pdfrwt>
<totfact> 0.50001137E+04</totfact>
</mgrwt>
</event>
<event>
 6    0  0.1576925E-007  0.4890902E+03  0.7546771E-02  0.1016666E+00
         21   -1    0    0  502  501  0.00000000000E+00  0.00000000000E+00  0.14377159444E+03  0.14377159444E+03  0.00000000000E+00 0.  1.
         21   -1    0    0  501  502 -0.00000000000E+00 -0.00000000000E+00 -0.41595361746E+03  0.41595361746E+03  0.00000000000E+00 0.  1.
      99926    2    1    2    0    0  0.35527136788E-14  0.14210854715E-13 -0.27218202301E+03  0.55972521190E+03  0.48909023624E+03 0.  0.
         25    1    3    3    0    0  0.15919468194E+02 -0.12387218714E+03 -0.15571172393E+03  0.23556612083E+03  0.12509000000E+03 0.  0.
         25    1    3    3    0    0  0.27101369916E+02  0.23022006328E+02 -0.83608354782E+02  0.15460388778E+03  0.12509000000E+03 0.  0.
         25    1    3    3    0    0 -0.43020838110E+02  0.10085018081E+03 -0.32861944301E+02  0.16955520329E+03  0.12509000000E+03 0.  0.
<mgrwt>
<rscale>  2 0.48909024E+03</rscale>
<asrwt>0</asrwt>
<pdfrwt beam="1">  1       21 0.21142882E-01 0.48909024E+03</pdfrwt>
<pdfrwt beam="2">  1       21 0.61169648E-01 0.48909024E+03</pdfrwt>
<totfact> 0.47153528E+04</totfact>
</mgrwt>
</event>
<event>
 6    0  0.1576925E-007  0.4422839E+03  0.7546771E-02  0.1030048E+00
         21   -1    0    0  502  501  0.00000000000E+00  0.00000000000E+00  0.17934659812E+03  0.17934659812E+03  0.00000000000E+00 0. -1.
         21   -1    0    0  501  502 -0.00000000000E+00 -0.00000000000E+00 -0.27267739395E+03  0.27267739395E+03  0.00000000000E+00 0. -1.
      99926    2    1    2    0    0  0.88817841970E-15  0.00000000000E+00 -0.93330795828E+02  0.45202399207E+03  0.44228390425E+03 0.  0.
         25    1    3    3    0    0 -0.22458326054E+02  0.44488533076E+02 -0.92750914618E+02  0.16350488142E+03  0.12509000000E+03 0.  0.
         25    1    3    3    0    0 -0.33116715425E+01  0.35579981192E+02  0.32718373108E+02  0.13414507918E+03  0.12509000000E+03 0.  0.
         25    1    3    3    0    0  0.25769997596E+02 -0.80068514268E+02 -0.33298254318E+02  0.15437403148E+03  0.12509000000E+03 0.  0.
<mgrwt>
<rscale>  2 0.44228390E+03</rscale>
<asrwt>0</asrwt>
<pdfrwt beam="1">  1       21 0.26374500E-01 0.44228390E+03</pdfrwt>
<pdfrwt beam="2">  1       21 0.40099616E-01 0.44228390E+03</pdfrwt>
<totfact> 0.76196850E+04</totfact>
</mgrwt>
</event>
<event>
 6    0  0.1576925E-007  0.4455526E+03  0.7546771E-02  0.1029057E+00
         21   -1    0    0  502  501  0.00000000000E+00  0.00000000000E+00  0.19120042424E+03  0.19120042424E+03  0.00000000000E+00 0. -1.
         21   -1    0    0  501  502 -0.00000000000E+00 -0.00000000000E+00 -0.25956678744E+03  0.25956678744E+03  0.00000000000E+00 0. -1.
      99926    2    1    2    0    0  0.00000000000E+00  0.00000000000E+00 -0.68366363204E+02  0.45076721167E+03  0.44555260015E+03 0.  0.
         25    1    3    3    0    0 -0.73844042615E+02 -0.49468335737E+01 -0.15015669206E+02  0.14611773408E+03  0.12509000000E+03 0.  0.
         25    1    3    3    0    0 -0.22697096842E+02  0.46979050180E+02 -0.35936510375E+02  0.14021815232E+03  0.12509000000E+03 0.  0.
         25    1    3    3    0    0  0.96541139457E+02 -0.42032216606E+02 -0.17414183623E+02  0.16443132528E+03  0.12509000000E+03 0.  0.
<mgrwt>
<rscale>  2 0.44555260E+03</rscale>
<asrwt>0</asrwt>
<pdfrwt beam="1">  1       21 0.28117710E-01 0.44555260E+03</pdfrwt>
<pdfrwt beam="2">  1       21 0.38171586E-01 0.44555260E+03</pdfrwt>
<totfact> 0.74300657E+04</totfact>
</mgrwt>
</event>
<event>
 6    0  0.1576925E-007  0.4533985E+03  0.7546771E-02  0.1026713E+00
         21   -1    0    0  502  501  0.00000000000E+00  0.00000000000E+00  0.43574218566E+02  0.43574218566E+02  0.00000000000E+00 0.  1.
         21   -1    0    0  501  502 -0.00000000000E+00 -0.00000000000E+00 -0.11794254774E+04  0.11794254774E+04  0.00000000000E+00 0.  1.
      99926    2    1    2    0    0  0.71054273576E-14  0.00000000000E+00 -0.11358512589E+04  0.12229996960E+04  0.45339847170E+03 0.  0.
         25    1    3    3    0    0  0.42936488120E+02  0.25307443188E+02 -0.33189026085E+03  0.35816569077E+03  0.12509000000E+03 0.  0.
         25    1    3    3    0    0  0.35975991677E+02  0.42564370366E+02 -0.51817029643E+03  0.53596078383E+03  0.12509000000E+03 0.  0.
         25    1    3    3    0    0 -0.78912479797E+02 -0.67871813554E+02 -0.28579070157E+03  0.32887322139E+03  0.12509000000E+03 0.  0.
<mgrwt>
<rscale>  2 0.45339847E+03</rscale>
<asrwt>0</asrwt>
<pdfrwt beam="1">  1       21 0.64079737E-02 0.45339847E+03</pdfrwt>
<pdfrwt beam="2">  1       21 0.17344491E+00 0.45339847E+03</pdfrwt>
<totfact> 0.31830502E+04</totfact>
</mgrwt>
</event>
<event>
 6    0  0.1576925E-007  0.4562452E+03  0.7546771E-02  0.1025876E+00
         21   -1    0    0  502  501  0.00000000000E+00  0.00000000000E+00  0.56303816815E+02  0.56303816815E+02  0.00000000000E+00 0. -1.
         21   -1    0    0  501  502 -0.00000000000E+00 -0.00000000000E+00 -0.92427003937E+03  0.92427003937E+03  0.00000000000E+00 0. -1.
      99926    2    1    2    0    0  0.00000000000E+00  0.71054273576E-14 -0.86796622256E+03  0.98057385619E+03  0.45624524539E+03 0.  0.
         25    1    3    3    0    0 -0.28145591814E+02  0.24057321577E+02 -0.23125783993E+03  0.26551577296E+03  0.12509000000E+03 0.  0.
         25    1    3    3    0    0  0.31795388719E+01 -0.62464416720E+02 -0.12934635104E+03  0.19049907992E+03  0.12509000000E+03 0.  0.
         25    1    3    3    0    0  0.24966052942E+02  0.38407095142E+02 -0.50736203158E+03  0.52455900331E+03  0.12509000000E+03 0.  0.
<mgrwt>
<rscale>  2 0.45624525E+03</rscale>
<asrwt>0</asrwt>
<pdfrwt beam="1">  1       21 0.82799732E-02 0.45624525E+03</pdfrwt>
<pdfrwt beam="2">  1       21 0.13592206E+00 0.45624525E+03</pdfrwt>
<totfact> 0.39540516E+04</totfact>
</mgrwt>
</event>
<event>
 6    0  0.1576925E-007  0.4874006E+03  0.7546771E-02  0.1017121E+00
         21   -1    0    0  502  501  0.00000000000E+00  0.00000000000E+00  0.79403845295E+03  0.79403845295E+03  0.00000000000E+00 0.  1.
         21   -1    0    0  501  502 -0.00000000000E+00 -0.00000000000E+00 -0.74794655618E+02  0.74794655618E+02  0.00000000000E+00 0.  1.
      99926    2    1    2    0    0 -0.71054273576E-14 -0.71054273576E-14  0.71924379733E+03  0.86883310857E+03  0.48740058529E+03 0.  0.
         25    1    3    3    0    0  0.82852191532E+02 -0.32960953185E+02  0.34369895180E+03  0.37646698082E+03  0.12509000000E+03 0.  0.
         25    1    3    3    0    0 -0.17772679655E+02  0.42650445442E+02  0.59236008075E+02  0.14591552827E+03  0.12509000000E+03 0.  0.
         25    1    3    3    0    0 -0.65079511877E+02 -0.96894922571E+01  0.31630883745E+03  0.34645059948E+03  0.12509000000E+03 0.  0.
<mgrwt>
<rscale>  2 0.48740059E+03</rscale>
<asrwt>0</asrwt>
<pdfrwt beam="1">  1       21 0.11677036E+00 0.48740059E+03</pdfrwt>
<pdfrwt beam="2">  1       21 0.10999215E-01 0.48740059E+03</pdfrwt>
<totfact> 0.34866086E+04</totfact>
</mgrwt>
</event>
<event>
 6    0  0.1576925E-007  0.4541244E+03  0.7546771E-02  0.1026499E+00
         21   -1    0    0  502  501  0.00000000000E+00  0.00000000000E+00  0.10857138202E+04  0.10857138202E+04  0.00000000000E+00 0.  1.
         21   -1    0    0  501  502 -0.00000000000E+00 -0.00000000000E+00 -0.47486949756E+02  0.47486949756E+02  0.00000000000E+00 0.  1.
      99926    2    1    2    0    0  0.71054273576E-14  0.00000000000E+00  0.10382268705E+04  0.11332007700E+04  0.45412437781E+03 0.  0.
         25    1    3    3    0    0 -0.63356619988E+02  0.30396063411E+02  0.49960345586E+03  0.51979717503E+03  0.12509000000E+03 0.  0.
         25    1    3    3    0    0 -0.25674046754E+02 -0.52720354780E+02  0.24225335363E+03  0.27887772936E+03  0.12509000000E+03 0.  0.
         25    1    3    3    0    0  0.89030666742E+02  0.22324291370E+02  0.29637006099E+03  0.33452586561E+03  0.12509000000E+03 0.  0.
<mgrwt>
<rscale>  2 0.45412438E+03</rscale>
<asrwt>0</asrwt>
<pdfrwt beam="1">  1       21 0.15966378E+00 0.45412438E+03</pdfrwt>
<pdfrwt beam="2">  1       21 0.69833757E-02 0.45412438E+03</pdfrwt>
<totfact> 0.34583688E+04</totfact>
</mgrwt>
</event>
<event>
 6    0  0.1576925E-007  0.4530438E+03  0.7546771E-02  0.1026818E+00
         21   -1    0    0  502  501  0.00000000000E+00  0.00000000000E+00  0.10904783460E+04  0.10904783460E+04  0.00000000000E+00 0. -1.
         21   -1    0    0  501  502 -0.00000000000E+00 -0.00000000000E+00 -0.47054735556E+02  0.47054735556E+02  0.00000000000E+00 0. -1.
      99926    2    1    2    0    0  0.00000000000E+00  0.35527136788E-14  0.10434236104E+04  0.11375330815E+04  0.45304379567E+03 0.  0.
         25    1    3    3    0    0 -0.75154429954E+02 -0.31980423167E+02  0.23758937561E+03  0.28065486867E+03  0.12509000000E+03 0.  0.
         25    1    3    3    0    0  0.73792839109E+02  0.17840571420E+02  0.27709007119E+03  0.31335297149E+03  0.12509000000E+03 0.  0.
         25    1    3    3    0    0  0.13615908453E+01  0.14139851746E+02  0.52874416363E+03  0.54352524137E+03  0.12509000000E+03 0.  0.
<mgrwt>
<rscale>  2 0.45304380E+03</rscale>
<asrwt>0</asrwt>
<pdfrwt beam="1">  1       21 0.16036445E+00 0.45304380E+03</pdfrwt>
<pdfrwt beam="2">  1       21 0.69198148E-02 0.45304380E+03</pdfrwt>
<totfact> 0.34727868E+04</totfact>
</mgrwt>
</event>
<event>
 6    0  0.1576925E-007  0.4627583E+03  0.7546771E-02  0.1023984E+00
         21   -1    0    0  502  501  0.00000000000E+00  0.00000000000E+00  0.98694680199E+03  0.98694680199E+03  0.00000000000E+00 0. -1.
         21   -1    0    0  501  502 -0.00000000000E+00 -0.00000000000E+00 -0.54244380994E+02  0.54244380994E+02  0.00000000000E+00 0. -1.
      99926    2    1    2    0    0  0.00000000000E+00  0.17763568394E-14  0.93270242099E+03  0.10411911830E+04  0.46275833152E+03 0.  0.
         25    1    3    3    0    0 -0.67055791514E+02  0.14562392146E+02  0.24055112347E+03  0.27967998416E+03  0.12509000000E+03 0.  0.
         25    1    3    3    0    0 -0.55832435922E+02  0.12359378650E+02  0.35104544856E+03  0.37702842094E+03  0.12509000000E+03 0.  0.
         25    1    3    3    0    0  0.12288822744E+03 -0.26921770796E+02  0.34110584897E+03  0.38448277788E+03  0.12509000000E+03 0.  0.
<mgrwt>
<rscale>  2 0.46275833E+03</rscale>
<asrwt>0</asrwt>
<pdfrwt beam="1">  1       21 0.14513922E+00 0.46275833E+03</pdfrwt>
<pdfrwt beam="2">  1       21 0.79771155E-02 0.46275833E+03</pdfrwt>
<totfact> 0.35408760E+04</totfact>
</mgrwt>
</event>
<event>
 6    0  0.1576925E-007  0.4577142E+03  0.7546771E-02  0.1025446E+00
         21   -1    0    0  502  501  0.00000000000E+00  0.00000000000E+00  0.71139685896E+03  0.71139685896E+03  0.00000000000E+00 0. -1.
         21   -1    0    0  501  502 -0.00000000000E+00 -0.00000000000E+00 -0.73623564563E+02  0.73623564563E+02  0.00000000000E+00 0. -1.
      99926    2    1    2    0    0  0.00000000000E+00  0.00000000000E+00  0.63777329440E+03  0.78502042353E+03  0.45771420155E+03 0.  0.
         25    1    3    3    0    0  0.63043633293E+02 -0.34386663948E+02  0.25557220953E+03  0.29346482709E+03  0.12509000000E+03 0.  0.
         25    1    3    3    0    0 -0.46303030742E+01  0.62990148113E+02  0.29281708376E+03  0.32462062644E+03  0.12509000000E+03 0.  0.
         25    1    3    3    0    0 -0.58413330218E+02 -0.28603484165E+02  0.89384001108E+02  0.16693497000E+03  0.12509000000E+03 0.  0.
<mgrwt>
<rscale>  2 0.45771420E+03</rscale>
<asrwt>0</asrwt>
<pdfrwt beam="1">  1       21 0.10461718E+00 0.45771420E+03</pdfrwt>
<pdfrwt beam="2">  1       21 0.10826995E-01 0.45771420E+03</pdfrwt>
<totfact> 0.47478376E+04</totfact>
</mgrwt>
</event>
<event>
 6    0  0.1576925E-007  0.4439879E+03  0.7546771E-02  0.1029530E+00
         21   -1    0    0  502  501  0.00000000000E+00  0.00000000000E+00  0.38246359712E+02  0.38246359712E+02  0.00000000000E+00 0. -1.
         21   -1    0    0  501  502 -0.00000000000E+00 -0.00000000000E+00 -0.12885229139E+04  0.12885229139E+04  0.00000000000E+00 0. -1.
      99926    2    1    2    0    0 -0.71054273576E-14 -0.53290705182E-14 -0.12502765541E+04  0.13267692736E+04  0.44398788660E+03 0.  0.
         25    1    3    3    0    0 -0.44762180463E+02 -0.97346309412E+01 -0.33253322826E+03  0.35822377341E+03  0.12509000000E+03 0.  0.
         25    1    3    3    0    0  0.37952929286E+02 -0.78789211128E+02 -0.38477100597E+03  0.41393767619E+03  0.12509000000E+03 0.  0.
         25    1    3    3    0    0  0.68092511768E+01  0.88523842069E+02 -0.53297231991E+03  0.55460782397E+03  0.12509000000E+03 0.  0.
<mgrwt>
<rscale>  2 0.44398789E+03</rscale>
<asrwt>0</asrwt>
<pdfrwt beam="1">  1       21 0.56244649E-02 0.44398789E+03</pdfrwt>
<pdfrwt beam="2">  1       21 0.18948865E+00 0.44398789E+03</pdfrwt>
<totfact> 0.30910328E+04</totfact>
</mgrwt>
</event>
<event>
 6    0  0.1576925E-007  0.4492828E+03  0.7546771E-02  0.1027936E+00
         21   -1    0    0  502  501  0.00000000000E+00  0.00000000000E+00  0.39011248883E+03  0.39011248883E+03  0.00000000000E+00 0.  1.
         21   -1    0    0  501  502 -0.00000000000E+00 -0.00000000000E+00 -0.12935693755E+03  0.12935693755E+03  0.00000000000E+00 0.  1.
      99926    2    1    2    0    0  0.35527136788E-14  0.00000000000E+00  0.26075555128E+03  0.51946942638E+03  0.44928279227E+03 0.  0.
         25    1    3    3    0    0 -0.28891413293E+01 -0.48912018741E+02  0.16411394198E+03  0.21208872381E+03  0.12509000000E+03 0.  0.
         25    1    3    3    0    0 -0.17011472978E+02 -0.44856375367E+02  0.38400322043E+02  0.13936849521E+03  0.12509000000E+03 0.  0.
         25    1    3    3    0    0  0.19900614307E+02  0.93768394108E+02  0.58241287259E+02  0.16801220737E+03  0.12509000000E+03 0.  0.
<mgrwt>
<rscale>  2 0.44928279E+03</rscale>
<asrwt>0</asrwt>
<pdfrwt beam="1">  1       21 0.57369483E-01 0.44928279E+03</pdfrwt>
<pdfrwt beam="2">  1       21 0.19023079E-01 0.44928279E+03</pdfrwt>
<totfact> 0.66906449E+04</totfact>
</mgrwt>
</event>
<event>
 6    0  0.1576925E-007  0.4663384E+03  0.7546771E-02  0.1022959E+00
         21   -1    0    0  502  501  0.00000000000E+00  0.00000000000E+00  0.81768959525E+03  0.81768959525E+03  0.00000000000E+00 0. -1.
         21   -1    0    0  501  502 -0.00000000000E+00 -0.00000000000E+00 -0.66489625928E+02  0.66489625928E+02  0.00000000000E+00 0. -1.
      99926    2    1    2    0    0  0.00000000000E+00  0.00000000000E+00  0.75119996932E+03  0.88417922117E+03  0.46633839779E+03 0.  0.
         25    1    3    3    0    0  0.98732048890E+02  0.15156875435E+02  0.21591477502E+03  0.26878327054E+03  0.12509000000E+03 0.  0.
         25    1    3    3    0    0 -0.19096504564E+02 -0.64270419894E+02  0.31340798293E+03  0.34404568770E+03  0.12509000000E+03 0.  0.
         25    1    3    3    0    0 -0.79635544326E+02  0.49113544459E+02  0.22187721136E+03  0.27135026293E+03  0.12509000000E+03 0.  0.
<mgrwt>
<rscale>  2 0.46633840E+03</rscale>
<asrwt>0</asrwt>
<pdfrwt beam="1">  1       21 0.12024846E+00 0.46633840E+03</pdfrwt>
<pdfrwt beam="2">  1       21 0.97778867E-02 0.46633840E+03</pdfrwt>
<totfact> 0.40231644E+04</totfact>
</mgrwt>
</event>
<event>
 6    0  0.1576925E-007  0.4583286E+03  0.7546771E-02  0.1025267E+00
         21   -1    0    0  502  501  0.00000000000E+00  0.00000000000E+00  0.92817649153E+03  0.92817649153E+03  0.00000000000E+00 0. -1.
         21   -1    0    0  501  502 -0.00000000000E+00 -0.00000000000E+00 -0.56580061481E+02  0.56580061481E+02  0.00000000000E+00 0. -1.
      99926    2    1    2    0    0  0.00000000000E+00 -0.71054273576E-14  0.87159643005E+03  0.98475655301E+03  0.45832862863E+03 0.  0.
         25    1    3    3    0    0  0.60443027570E+02  0.64961709743E+02  0.41567083151E+03  0.44306109238E+03  0.12509000000E+03 0.  0.
         25    1    3    3    0    0  0.27082918066E+02 -0.40340174056E+02  0.16951641297E+03  0.21620392332E+03  0.12509000000E+03 0.  0.
         25    1    3    3    0    0 -0.87525945636E+02 -0.24621535687E+02  0.28640918557E+03  0.32549153731E+03  0.12509000000E+03 0.  0.
<mgrwt>
<rscale>  2 0.45832863E+03</rscale>
<asrwt>0</asrwt>
<pdfrwt beam="1">  1       21 0.13649653E+00 0.45832863E+03</pdfrwt>
<pdfrwt beam="2">  1       21 0.83205978E-02 0.45832863E+03</pdfrwt>
<totfact> 0.38746286E+04</totfact>
</mgrwt>
</event>
<event>
 6    0  0.1576925E-007  0.4572807E+03  0.7546771E-02  0.1025573E+00
         21   -1    0    0  502  501  0.00000000000E+00  0.00000000000E+00  0.11090018719E+03  0.11090018719E+03  0.00000000000E+00 0.  1.
         21   -1    0    0  501  502 -0.00000000000E+00 -0.00000000000E+00 -0.47138258261E+03  0.47138258261E+03  0.00000000000E+00 0.  1.
      99926    2    1    2    0    0 -0.35527136788E-14  0.00000000000E+00 -0.36048239542E+03  0.58228276980E+03  0.45728073062E+03 0.  0.
         25    1    3    3    0    0  0.21815414276E+02 -0.71909888171E+02 -0.17256109906E+03  0.22599067531E+03  0.12509000000E+03 0.  0.
         25    1    3    3    0    0 -0.82516451372E+00  0.10326119181E+03 -0.14824534049E+03  0.21974472396E+03  0.12509000000E+03 0.  0.
         25    1    3    3    0    0 -0.20990249763E+02 -0.31351303640E+02 -0.39675955869E+02  0.13654737053E+03  0.12509000000E+03 0.  0.
<mgrwt>
<rscale>  2 0.45728073E+03</rscale>
<asrwt>0</asrwt>
<pdfrwt beam="1">  1       21 0.16308851E-01 0.45728073E+03</pdfrwt>
<pdfrwt beam="2">  1       21 0.69320968E-01 0.45728073E+03</pdfrwt>
<totfact> 0.58716450E+04</totfact>
</mgrwt>
</event>
<event>
 6    0  0.1576925E-007  0.4581667E+03  0.7546771E-02  0.1025314E+00
         21   -1    0    0  502  501  0.00000000000E+00  0.00000000000E+00  0.80629506360E+03  0.80629506360E+03  0.00000000000E+00 0. -1.
         21   -1    0    0  501  502 -0.00000000000E+00 -0.00000000000E+00 -0.65086819270E+02  0.65086819270E+02  0.00000000000E+00 0. -1.
      99926    2    1    2    0    0 -0.35527136788E-14 -0.71054273576E-14  0.74120824433E+03  0.87138188287E+03  0.45816669928E+03 0.  0.
         25    1    3    3    0    0  0.26935595217E+02  0.58041562184E+02  0.33002436034E+03  0.35868919101E+03  0.12509000000E+03 0.  0.
         25    1    3    3    0    0  0.36853427929E+02 -0.93973173336E+02  0.23165252118E+03  0.28195661214E+03  0.12509000000E+03 0.  0.
         25    1    3    3    0    0 -0.63789023146E+02  0.35931611151E+02  0.17953136281E+03  0.23073607972E+03  0.12509000000E+03 0.  0.
<mgrwt>
<rscale>  2 0.45816670E+03</rscale>
<asrwt>0</asrwt>
<pdfrwt beam="1">  1       21 0.11857280E+00 0.45816670E+03</pdfrwt>
<pdfrwt beam="2">  1       21 0.95715915E-02 0.45816670E+03</pdfrwt>
<totfact> 0.43407404E+04</totfact>
</mgrwt>
</event>
<event>
 6    0  0.1576925E-007  0.4555808E+03  0.7546771E-02  0.1026071E+00
         21   -1    0    0  502  501  0.00000000000E+00  0.00000000000E+00  0.13862150537E+03  0.13862150537E+03  0.00000000000E+00 0. -1.
         21   -1    0    0  501  502 -0.00000000000E+00 -0.00000000000E+00 -0.37431753458E+03  0.37431753458E+03  0.00000000000E+00 0. -1.
      99926    2    1    2    0    0  0.00000000000E+00  0.71054273576E-14 -0.23569602920E+03  0.51293903995E+03  0.45558077277E+03 0.  0.
         25    1    3    3    0    0 -0.82817388036E+02  0.44468156325E+02 -0.12865344577E+03  0.20257184873E+03  0.12509000000E+03 0.  0.
         25    1    3    3    0    0  0.27168405603E+02  0.34193510043E+00 -0.10617269322E+03  0.16630811185E+03  0.12509000000E+03 0.  0.
         25    1    3    3    0    0  0.55648982434E+02 -0.44810091425E+02 -0.86989021181E+00  0.14405907937E+03  0.12509000000E+03 0.  0.
<mgrwt>
<rscale>  2 0.45558077E+03</rscale>
<asrwt>0</asrwt>
<pdfrwt beam="1">  1       21 0.20385516E-01 0.45558077E+03</pdfrwt>
<pdfrwt beam="2">  1       21 0.55046696E-01 0.45558077E+03</pdfrwt>
<totfact> 0.64075062E+04</totfact>
</mgrwt>
</event>
<event>
 6    0  0.1576925E-007  0.4531787E+03  0.7546771E-02  0.1026778E+00
         21   -1    0    0  502  501  0.00000000000E+00  0.00000000000E+00  0.61015008476E+03  0.61015008476E+03  0.00000000000E+00 0.  1.
         21   -1    0    0  501  502 -0.00000000000E+00 -0.00000000000E+00 -0.84147703538E+02  0.84147703538E+02  0.00000000000E+00 0.  1.
      99926    2    1    2    0    0  0.00000000000E+00 -0.35527136788E-14  0.52600238122E+03  0.69429778830E+03  0.45317867755E+03 0.  0.
         25    1    3    3    0    0 -0.38792599060E+02  0.63705306041E+02  0.21507113929E+03  0.25974282438E+03  0.12509000000E+03 0.  0.
         25    1    3    3    0    0  0.76118467271E+02  0.14717185562E+02  0.11718441035E+03  0.18812312654E+03  0.12509000000E+03 0.  0.
         25    1    3    3    0    0 -0.37325868211E+02 -0.78422491603E+02  0.19374683159E+03  0.24643183739E+03  0.12509000000E+03 0.  0.
<mgrwt>
<rscale>  2 0.45317868E+03</rscale>
<asrwt>0</asrwt>
<pdfrwt beam="1">  1       21 0.89727951E-01 0.45317868E+03</pdfrwt>
<pdfrwt beam="2">  1       21 0.12374663E-01 0.45317868E+03</pdfrwt>
<totfact> 0.53983416E+04</totfact>
</mgrwt>
</event>
<event>
 6    0  0.1576925E-007  0.4539966E+03  0.7546771E-02  0.1026537E+00
         21   -1    0    0  502  501  0.00000000000E+00  0.00000000000E+00  0.65511947741E+02  0.65511947741E+02  0.00000000000E+00 0.  1.
         21   -1    0    0  501  502 -0.00000000000E+00 -0.00000000000E+00 -0.78654701203E+03  0.78654701203E+03  0.00000000000E+00 0.  1.
      99926    2    1    2    0    0  0.00000000000E+00  0.71054273576E-14 -0.72103506429E+03  0.85205895977E+03  0.45399659359E+03 0.  0.
         25    1    3    3    0    0 -0.90056631418E+02  0.20124240563E+01 -0.35733776729E+03  0.38916838868E+03  0.12509000000E+03 0.  0.
         25    1    3    3    0    0  0.32472680793E+02  0.38974609384E+02 -0.22969278446E+03  0.26642030423E+03  0.12509000000E+03 0.  0.
         25    1    3    3    0    0  0.57583950624E+02 -0.40987033440E+02 -0.13400451253E+03  0.19647026686E+03  0.12509000000E+03 0.  0.
<mgrwt>
<rscale>  2 0.45399659E+03</rscale>
<asrwt>0</asrwt>
<pdfrwt beam="1">  1       21 0.96341106E-02 0.45399659E+03</pdfrwt>
<pdfrwt beam="2">  1       21 0.11566867E+00 0.45399659E+03</pdfrwt>
<totfact> 0.45706107E+04</totfact>
</mgrwt>
</event>
<event>
 6    0  0.1576925E-007  0.4652973E+03  0.7546771E-02  0.1023256E+00
         21   -1    0    0  502  501  0.00000000000E+00  0.00000000000E+00  0.71125487686E+03  0.71125487686E+03  0.00000000000E+00 0.  1.
         21   -1    0    0  501  502 -0.00000000000E+00 -0.00000000000E+00 -0.76098436812E+02  0.76098436812E+02  0.00000000000E+00 0.  1.
      99926    2    1    2    0    0  0.35527136788E-14  0.00000000000E+00  0.63515644005E+03  0.78735331367E+03  0.46529725683E+03 0.  0.
         25    1    3    3    0    0  0.26099569471E+02 -0.69249692209E+02  0.13779046966E+03  0.20027588229E+03  0.12509000000E+03 0.  0.
         25    1    3    3    0    0  0.31641950197E+02 -0.22938430144E+01  0.34998140696E+03  0.37301604261E+03  0.12509000000E+03 0.  0.
         25    1    3    3    0    0 -0.57741519669E+02  0.71543535224E+02  0.14738456344E+03  0.21406138878E+03  0.12509000000E+03 0.  0.
<mgrwt>
<rscale>  2 0.46529726E+03</rscale>
<asrwt>0</asrwt>
<pdfrwt beam="1">  1       21 0.10459630E+00 0.46529726E+03</pdfrwt>
<pdfrwt beam="2">  1       21 0.11190947E-01 0.46529726E+03</pdfrwt>
<totfact> 0.44662214E+04</totfact>
</mgrwt>
</event>
<event>
 6    0  0.1576925E-007  0.4487564E+03  0.7546771E-02  0.1028094E+00
         21   -1    0    0  502  501  0.00000000000E+00  0.00000000000E+00  0.83383191643E+03  0.83383191643E+03  0.00000000000E+00 0.  1.
         21   -1    0    0  501  502 -0.00000000000E+00 -0.00000000000E+00 -0.60378579392E+02  0.60378579392E+02  0.00000000000E+00 0.  1.
      99926    2    1    2    0    0  0.17763568394E-14  0.00000000000E+00  0.77345333704E+03  0.89421049582E+03  0.44875644426E+03 0.  0.
         25    1    3    3    0    0  0.17841211377E+02  0.61489172381E+02  0.12798999195E+03  0.19007412576E+03  0.12509000000E+03 0.  0.
         25    1    3    3    0    0 -0.31676917791E+02  0.19003135988E+02  0.33823453383E+03  0.36251159192E+03  0.12509000000E+03 0.  0.
         25    1    3    3    0    0  0.13835706414E+02 -0.80492308368E+02  0.30722881125E+03  0.34162477814E+03  0.12509000000E+03 0.  0.
<mgrwt>
<rscale>  2 0.44875644E+03</rscale>
<asrwt>0</asrwt>
<pdfrwt beam="1">  1       21 0.12262233E+00 0.44875644E+03</pdfrwt>
<pdfrwt beam="2">  1       21 0.88792034E-02 0.44875644E+03</pdfrwt>
<totfact> 0.45677273E+04</totfact>
</mgrwt>
</event>
<event>
 6    0  0.1576925E-007  0.4542897E+03  0.7546771E-02  0.1026450E+00
         21   -1    0    0  502  501  0.00000000000E+00  0.00000000000E+00  0.46479194869E+02  0.46479194869E+02  0.00000000000E+00 0.  1.
         21   -1    0    0  501  502 -0.00000000000E+00 -0.00000000000E+00 -0.11100621176E+04  0.11100621176E+04  0.00000000000E+00 0.  1.
      99926    2    1    2    0    0  0.53290705182E-14  0.53290705182E-14 -0.10635829227E+04  0.11565413124E+04  0.45428974666E+03 0.  0.
         25    1    3    3    0    0 -0.10439237668E+03 -0.40365128800E+02 -0.45898711188E+03  0.48871647087E+03  0.12509000000E+03 0.  0.
         25    1    3    3    0    0  0.90580734620E+02  0.30341942806E+02 -0.33631281335E+03  0.37132104640E+03  0.12509000000E+03 0.  0.
         25    1    3    3    0    0  0.13811642063E+02  0.10023185994E+02 -0.26828299748E+03  0.29650379517E+03  0.12509000000E+03 0.  0.
<mgrwt>
<rscale>  2 0.45428975E+03</rscale>
<asrwt>0</asrwt>
<pdfrwt beam="1">  1       21 0.68351761E-02 0.45428975E+03</pdfrwt>
<pdfrwt beam="2">  1       21 0.16324442E+00 0.45428975E+03</pdfrwt>
<totfact> 0.33751145E+04</totfact>
</mgrwt>
</event>
<event>
 6    0  0.1576925E-007  0.4585398E+03  0.7546771E-02  0.1025206E+00
         21   -1    0    0  502  501  0.00000000000E+00  0.00000000000E+00  0.29791611183E+02  0.29791611183E+02  0.00000000000E+00 0.  1.
         21   -1    0    0  501  502 -0.00000000000E+00 -0.00000000000E+00 -0.17644125546E+04  0.17644125546E+04  0.00000000000E+00 0.  1.
      99926    2    1    2    0    0 -0.71054273576E-14  0.00000000000E+00 -0.17346209434E+04  0.17942041658E+04  0.45853982507E+03 0.  0.
         25    1    3    3    0    0  0.42341090341E+02 -0.64942588079E+02 -0.55900767205E+03  0.57805483580E+03  0.12509000000E+03 0.  0.
         25    1    3    3    0    0 -0.82951554303E+02  0.80933204251E+02 -0.79661501092E+03  0.81466197139E+03  0.12509000000E+03 0.  0.
         25    1    3    3    0    0  0.40610463962E+02 -0.15990616172E+02 -0.37899826046E+03  0.40148735861E+03  0.12509000000E+03 0.  0.
<mgrwt>
<rscale>  2 0.45853983E+03</rscale>
<asrwt>0</asrwt>
<pdfrwt beam="1">  1       21 0.43811183E-02 0.45853983E+03</pdfrwt>
<pdfrwt beam="2">  1       21 0.25947249E+00 0.45853983E+03</pdfrwt>
<totfact> 0.16901789E+04</totfact>
</mgrwt>
</event>
<event>
 6    0  0.1576925E-007  0.4488778E+03  0.7546771E-02  0.1028057E+00
         21   -1    0    0  502  501  0.00000000000E+00  0.00000000000E+00  0.26300831131E+04  0.26300831131E+04  0.00000000000E+00 0.  1.
         21   -1    0    0  501  502 -0.00000000000E+00 -0.00000000000E+00 -0.19152557016E+02  0.19152557016E+02  0.00000000000E+00 0.  1.
      99926    2    1    2    0    0  0.35527136788E-14 -0.17763568394E-14  0.26109305561E+04  0.26492356701E+04  0.44887778640E+03 0.  0.
         25    1    3    3    0    0  0.66131636431E+02  0.65854731701E+02  0.13432770044E+04  0.13523131508E+04  0.12509000000E+03 0.  0.
         25    1    3    3    0    0 -0.26275500337E+02 -0.36135233418E+01  0.64341944696E+03  0.65600270753E+03  0.12509000000E+03 0.  0.
         25    1    3    3    0    0 -0.39856136093E+02 -0.62241208359E+02  0.62423410466E+03  0.64091981177E+03  0.12509000000E+03 0.  0.
<mgrwt>
<rscale>  2 0.44887779E+03</rscale>
<asrwt>0</asrwt>
<pdfrwt beam="1">  1       21 0.38677668E+00 0.44887779E+03</pdfrwt>
<pdfrwt beam="2">  1       21 0.28165543E-02 0.44887779E+03</pdfrwt>
<totfact> 0.60029760E+03</totfact>
</mgrwt>
</event>
<event>
 6    0  0.1576925E-007  0.4518172E+03  0.7546771E-02  0.1027182E+00
         21   -1    0    0  502  501  0.00000000000E+00  0.00000000000E+00  0.32752657619E+03  0.32752657619E+03  0.00000000000E+00 0. -1.
         21   -1    0    0  501  502 -0.00000000000E+00 -0.00000000000E+00 -0.15581849681E+03  0.15581849681E+03  0.00000000000E+00 0. -1.
      99926    2    1    2    0    0 -0.17763568394E-14  0.00000000000E+00  0.17170807938E+03  0.48334507300E+03  0.45181721422E+03 0.  0.
         25    1    3    3    0    0 -0.68765850758E+02  0.45164976610E+02  0.54663092546E+02  0.15938688506E+03  0.12509000000E+03 0.  0.
         25    1    3    3    0    0  0.90298910620E+01 -0.79512243378E+02  0.16734655328E+02  0.14943658377E+03  0.12509000000E+03 0.  0.
         25    1    3    3    0    0  0.59735959696E+02  0.34347266768E+02  0.10031033151E+03  0.17452160417E+03  0.12509000000E+03 0.  0.
<mgrwt>
<rscale>  2 0.45181721E+03</rscale>
<asrwt>0</asrwt>
<pdfrwt beam="1">  1       21 0.48165673E-01 0.45181721E+03</pdfrwt>
<pdfrwt beam="2">  1       21 0.22914485E-01 0.45181721E+03</pdfrwt>
<totfact> 0.68163417E+04</totfact>
</mgrwt>
</event>
<event>
 6    0  0.1576925E-007  0.4541605E+03  0.7546771E-02  0.1026489E+00
         21   -1    0    0  502  501  0.00000000000E+00  0.00000000000E+00  0.13591955344E+03  0.13591955344E+03  0.00000000000E+00 0.  1.
         21   -1    0    0  501  502 -0.00000000000E+00 -0.00000000000E+00 -0.37938206830E+03  0.37938206830E+03  0.00000000000E+00 0.  1.
      99926    2    1    2    0    0  0.35527136788E-14  0.00000000000E+00 -0.24346251487E+03  0.51530162174E+03  0.45416050602E+03 0.  0.
         25    1    3    3    0    0 -0.28836584666E+02  0.51067408672E+02 -0.12403604925E+03  0.18566604013E+03  0.12509000000E+03 0.  0.
         25    1    3    3    0    0 -0.40984094114E+01 -0.39065365298E+01  0.27583139193E+02  0.12822010628E+03  0.12509000000E+03 0.  0.
         25    1    3    3    0    0  0.32934994077E+02 -0.47160872142E+02 -0.14700960481E+03  0.20141547533E+03  0.12509000000E+03 0.  0.
<mgrwt>
<rscale>  2 0.45416051E+03</rscale>
<asrwt>0</asrwt>
<pdfrwt beam="1">  1       21 0.19988170E-01 0.45416051E+03</pdfrwt>
<pdfrwt beam="2">  1       21 0.55791480E-01 0.45416051E+03</pdfrwt>
<totfact> 0.64638005E+04</totfact>
</mgrwt>
</event>
<event>
 6    0  0.1576925E-007  0.4504134E+03  0.7546771E-02  0.1027599E+00
         21   -1    0    0  502  501  0.00000000000E+00  0.00000000000E+00  0.15954482458E+04  0.15954482458E+04  0.00000000000E+00 0.  1.
         21   -1    0    0  501  502 -0.00000000000E+00 -0.00000000000E+00 -0.31789221762E+02  0.31789221762E+02  0.00000000000E+00 0.  1.
      99926    2    1    2    0    0  0.71054273576E-14  0.00000000000E+00  0.15636590240E+04  0.16272374676E+04  0.45041340165E+03 0.  0.
         25    1    3    3    0    0  0.43197194905E+02  0.46670289300E+02  0.34964030668E+03  0.37674920797E+03  0.12509000000E+03 0.  0.
         25    1    3    3    0    0  0.13420648614E+02 -0.29126205206E+01  0.84516153863E+03  0.85447886554E+03  0.12509000000E+03 0.  0.
         25    1    3    3    0    0 -0.56617843519E+02 -0.43757668779E+02  0.36885717874E+03  0.39600939406E+03  0.12509000000E+03 0.  0.
<mgrwt>
<rscale>  2 0.45041340E+03</rscale>
<asrwt>0</asrwt>
<pdfrwt beam="1">  1       21 0.23462469E+00 0.45041340E+03</pdfrwt>
<pdfrwt beam="2">  1       21 0.46748866E-02 0.45041340E+03</pdfrwt>
<totfact> 0.21579574E+04</totfact>
</mgrwt>
</event>
<event>
 6    0  0.1576925E-007  0.4527594E+03  0.7546771E-02  0.1026902E+00
         21   -1    0    0  502  501  0.00000000000E+00  0.00000000000E+00  0.21559983978E+03  0.21559983978E+03  0.00000000000E+00 0.  1.
         21   -1    0    0  501  502 -0.00000000000E+00 -0.00000000000E+00 -0.23769850162E+03  0.23769850162E+03  0.00000000000E+00 0.  1.
      99926    2    1    2    0    0  0.00000000000E+00  0.00000000000E+00 -0.22098661838E+02  0.45329834140E+03  0.45275935712E+03 0.  0.
         25    1    3    3    0    0  0.88873475674E+02 -0.59779419988E+02 -0.31386640071E+02  0.16764457345E+03  0.12509000000E+03 0.  0.
         25    1    3    3    0    0 -0.83785263571E+02  0.46088052415E+02  0.22376842960E+02  0.15903556259E+03  0.12509000000E+03 0.  0.
         25    1    3    3    0    0 -0.50882121030E+01  0.13691367573E+02 -0.13088864728E+02  0.12661820536E+03  0.12509000000E+03 0.  0.
<mgrwt>
<rscale>  2 0.45275936E+03</rscale>
<asrwt>0</asrwt>
<pdfrwt beam="1">  1       21 0.31705859E-01 0.45275936E+03</pdfrwt>
<pdfrwt beam="2">  1       21 0.34955662E-01 0.45275936E+03</pdfrwt>
<totfact> 0.69912201E+04</totfact>
</mgrwt>
</event>
<event>
 6    0  0.1576925E-007  0.4534629E+03  0.7546771E-02  0.1026694E+00
         21   -1    0    0  502  501  0.00000000000E+00  0.00000000000E+00  0.74051288499E+02  0.74051288499E+02  0.00000000000E+00 0.  1.
         21   -1    0    0  501  502 -0.00000000000E+00 -0.00000000000E+00 -0.69421022543E+03  0.69421022543E+03  0.00000000000E+00 0.  1.
      99926    2    1    2    0    0  0.00000000000E+00 -0.14210854715E-13 -0.62015893693E+03  0.76826151393E+03  0.45346294968E+03 0.  0.
         25    1    3    3    0    0 -0.22254464914E+02  0.93923238444E+02 -0.30544488470E+03  0.34389085713E+03  0.12509000000E+03 0.  0.
         25    1    3    3    0    0 -0.26736960503E+02 -0.27443905457E+02 -0.18219062015E+03  0.22429659644E+03  0.12509000000E+03 0.  0.
         25    1    3    3    0    0  0.48991425417E+02 -0.66479332987E+02 -0.13252343209E+03  0.20007406037E+03  0.12509000000E+03 0.  0.
<mgrwt>
<rscale>  2 0.45346295E+03</rscale>
<asrwt>0</asrwt>
<pdfrwt beam="1">  1       21 0.10889896E-01 0.45346295E+03</pdfrwt>
<pdfrwt beam="2">  1       21 0.10208973E+00 0.45346295E+03</pdfrwt>
<totfact> 0.49938031E+04</totfact>
</mgrwt>
</event>
<event>
 6    0  0.1576925E-007  0.4380443E+03  0.7546771E-02  0.1031349E+00
         21   -1    0    0  502  501  0.00000000000E+00  0.00000000000E+00  0.21090005496E+03  0.21090005496E+03  0.00000000000E+00 0. -1.
         21   -1    0    0  501  502 -0.00000000000E+00 -0.00000000000E+00 -0.22745701941E+03  0.22745701941E+03  0.00000000000E+00 0. -1.
      99926    2    1    2    0    0 -0.35527136788E-14  0.17763568394E-14 -0.16556964452E+02  0.43835707437E+03  0.43804428039E+03 0.  0.
         25    1    3    3    0    0  0.49314076271E+02 -0.44363112875E+02  0.40812873791E+02  0.14735386886E+03  0.12509000000E+03 0.  0.
         25    1    3    3    0    0 -0.65648301022E+02  0.31002692853E+02  0.14237403664E+02  0.14533092635E+03  0.12509000000E+03 0.  0.
         25    1    3    3    0    0  0.16334224751E+02  0.13360420021E+02 -0.71607241907E+02  0.14567227916E+03  0.12509000000E+03 0.  0.
<mgrwt>
<rscale>  2 0.43804428E+03</rscale>
<asrwt>0</asrwt>
<pdfrwt beam="1">  1       21 0.31014714E-01 0.43804428E+03</pdfrwt>
<pdfrwt beam="2">  1       21 0.33449561E-01 0.43804428E+03</pdfrwt>
<totfact> 0.80080507E+04</totfact>
</mgrwt>
</event>
<event>
 6    0  0.1576925E-007  0.4649310E+03  0.7546771E-02  0.1023361E+00
         21   -1    0    0  502  501  0.00000000000E+00  0.00000000000E+00  0.54996591591E+03  0.54996591591E+03  0.00000000000E+00 0.  1.
         21   -1    0    0  501  502 -0.00000000000E+00 -0.00000000000E+00 -0.98261014232E+02  0.98261014232E+02  0.00000000000E+00 0.  1.
      99926    2    1    2    0    0  0.00000000000E+00  0.00000000000E+00  0.45170490168E+03  0.64822693014E+03  0.46493100000E+03 0.  0.
         25    1    3    3    0    0 -0.85113331073E+02 -0.34647929867E+02  0.18225849623E+03  0.23939596011E+03  0.12509000000E+03 0.  0.
         25    1    3    3    0    0  0.19552070397E+02 -0.30679971795E+02  0.49401568272E+02  0.13932540032E+03  0.12509000000E+03 0.  0.
         25    1    3    3    0    0  0.65561260677E+02  0.65327901662E+02  0.22004483718E+03  0.26950556971E+03  0.12509000000E+03 0.  0.
<mgrwt>
<rscale>  2 0.46493100E+03</rscale>
<asrwt>0</asrwt>
<pdfrwt beam="1">  1       21 0.80877339E-01 0.46493100E+03</pdfrwt>
<pdfrwt beam="2">  1       21 0.14450149E-01 0.46493100E+03</pdfrwt>
<totfact> 0.51637134E+04</totfact>
</mgrwt>
</event>
<event>
 6    0  0.1576925E-007  0.4564262E+03  0.7546771E-02  0.1025823E+00
         21   -1    0    0  502  501  0.00000000000E+00  0.00000000000E+00  0.37585524792E+03  0.37585524792E+03  0.00000000000E+00 0. -1.
         21   -1    0    0  501  502 -0.00000000000E+00 -0.00000000000E+00 -0.13856723977E+03  0.13856723977E+03  0.00000000000E+00 0. -1.
      99926    2    1    2    0    0  0.00000000000E+00  0.35527136788E-14  0.23728800814E+03  0.51442248769E+03  0.45642622299E+03 0.  0.
         25    1    3    3    0    0 -0.26377682557E+02 -0.57535401141E+02  0.63691649080E+02  0.15398129362E+03  0.12509000000E+03 0.  0.
         25    1    3    3    0    0 -0.27932591563E+02  0.34231517416E+02 -0.71129206758E+01  0.13285378503E+03  0.12509000000E+03 0.  0.
         25    1    3    3    0    0  0.54310274120E+02  0.23303883725E+02  0.18070927974E+03  0.22758740904E+03  0.12509000000E+03 0.  0.
<mgrwt>
<rscale>  2 0.45642622E+03</rscale>
<asrwt>0</asrwt>
<pdfrwt beam="1">  1       21 0.55272831E-01 0.45642622E+03</pdfrwt>
<pdfrwt beam="2">  1       21 0.20377535E-01 0.45642622E+03</pdfrwt>
<totfact> 0.63546606E+04</totfact>
</mgrwt>
</event>
<event>
 6    0  0.1576925E-007  0.4462119E+03  0.7546771E-02  0.1028858E+00
         21   -1    0    0  502  501  0.00000000000E+00  0.00000000000E+00  0.17645257376E+03  0.17645257376E+03  0.00000000000E+00 0.  1.
         21   -1    0    0  501  502 -0.00000000000E+00 -0.00000000000E+00 -0.28209432073E+03  0.28209432073E+03  0.00000000000E+00 0.  1.
      99926    2    1    2    0    0 -0.71054273576E-14  0.00000000000E+00 -0.10564174697E+03  0.45854689449E+03  0.44621191798E+03 0.  0.
         25    1    3    3    0    0  0.51070860132E+01 -0.80278101929E+02  0.16345620347E+02  0.14961732313E+03  0.12509000000E+03 0.  0.
         25    1    3    3    0    0  0.39817857794E+02  0.37849306667E+02 -0.96081182938E+02  0.16702435041E+03  0.12509000000E+03 0.  0.
         25    1    3    3    0    0 -0.44924943808E+02  0.42428795263E+02 -0.25906184383E+02  0.14190522095E+03  0.12509000000E+03 0.  0.
<mgrwt>
<rscale>  2 0.44621192E+03</rscale>
<asrwt>0</asrwt>
<pdfrwt beam="1">  1       21 0.25948908E-01 0.44621192E+03</pdfrwt>
<pdfrwt beam="2">  1       21 0.41484459E-01 0.44621192E+03</pdfrwt>
<totfact> 0.73273313E+04</totfact>
</mgrwt>
</event>
<event>
 6    0  0.1576925E-007  0.4546276E+03  0.7546771E-02  0.1026351E+00
         21   -1    0    0  502  501  0.00000000000E+00  0.00000000000E+00  0.12595752682E+03  0.12595752682E+03  0.00000000000E+00 0. -1.
         21   -1    0    0  501  502 -0.00000000000E+00 -0.00000000000E+00 -0.41023005674E+03  0.41023005674E+03  0.00000000000E+00 0. -1.
      99926    2    1    2    0    0 -0.35527136788E-14  0.35527136788E-14 -0.28427252991E+03  0.53618758356E+03  0.45462759870E+03 0.  0.
         25    1    3    3    0    0 -0.37011461315E+02  0.69524342098E+02 -0.16994164353E+03  0.22523577140E+03  0.12509000000E+03 0.  0.
         25    1    3    3    0    0  0.20562502720E+02  0.25708309106E+02 -0.34540304450E+02  0.13388156858E+03  0.12509000000E+03 0.  0.
         25    1    3    3    0    0  0.16448958595E+02 -0.95232651204E+02 -0.79790581936E+02  0.17707024358E+03  0.12509000000E+03 0.  0.
<mgrwt>
<rscale>  2 0.45462760E+03</rscale>
<asrwt>0</asrwt>
<pdfrwt beam="1">  1       21 0.18523166E-01 0.45462760E+03</pdfrwt>
<pdfrwt beam="2">  1       21 0.60327949E-01 0.45462760E+03</pdfrwt>
<totfact> 0.62973986E+04</totfact>
</mgrwt>
</event>
<event>
 6    0  0.1576925E-007  0.4512113E+03  0.7546771E-02  0.1027361E+00
         21   -1    0    0  502  501  0.00000000000E+00  0.00000000000E+00  0.60885625654E+02  0.60885625654E+02  0.00000000000E+00 0.  1.
         21   -1    0    0  501  502 -0.00000000000E+00 -0.00000000000E+00 -0.83595931644E+03  0.83595931644E+03  0.00000000000E+00 0.  1.
      99926    2    1    2    0    0  0.00000000000E+00  0.53290705182E-14 -0.77507369079E+03  0.89684494210E+03  0.45121128533E+03 0.  0.
         25    1    3    3    0    0  0.68179870775E+02 -0.80426110900E+02 -0.31830397968E+03  0.35788515710E+03  0.12509000000E+03 0.  0.
         25    1    3    3    0    0 -0.23118448007E+01  0.72216162425E+02 -0.23256932916E+03  0.27378188345E+03  0.12509000000E+03 0.  0.
         25    1    3    3    0    0 -0.65868025974E+02  0.82099484745E+01 -0.22420038195E+03  0.26517790154E+03  0.12509000000E+03 0.  0.
<mgrwt>
<rscale>  2 0.45121129E+03</rscale>
<asrwt>0</asrwt>
<pdfrwt beam="1">  1       21 0.89537686E-02 0.45121129E+03</pdfrwt>
<pdfrwt beam="2">  1       21 0.12293519E+00 0.45121129E+03</pdfrwt>
<totfact> 0.44681165E+04</totfact>
</mgrwt>
</event>
<event>
 6    0  0.1576925E-007  0.4668114E+03  0.7546771E-02  0.1022824E+00
         21   -1    0    0  502  501  0.00000000000E+00  0.00000000000E+00  0.73040745007E+03  0.73040745007E+03  0.00000000000E+00 0. -1.
         21   -1    0    0  501  502 -0.00000000000E+00 -0.00000000000E+00 -0.74586068791E+02  0.74586068791E+02  0.00000000000E+00 0. -1.
      99926    2    1    2    0    0  0.71054273576E-14 -0.35527136788E-14  0.65582138128E+03  0.80499351886E+03  0.46681139796E+03 0.  0.
         25    1    3    3    0    0  0.72869786046E+02  0.67143286241E+02  0.30773250156E+03  0.34664827595E+03  0.12509000000E+03 0.  0.
         25    1    3    3    0    0 -0.16243149764E+02 -0.94010252116E+02  0.16590075850E+03  0.22863144400E+03  0.12509000000E+03 0.  0.
         25    1    3    3    0    0 -0.56626636282E+02  0.26866965876E+02  0.18218812123E+03  0.22971379891E+03  0.12509000000E+03 0.  0.
<mgrwt>
<rscale>  2 0.46681140E+03</rscale>
<asrwt>0</asrwt>
<pdfrwt beam="1">  1       21 0.10741286E+00 0.46681140E+03</pdfrwt>
<pdfrwt beam="2">  1       21 0.10968540E-01 0.46681140E+03</pdfrwt>
<totfact> 0.43363026E+04</totfact>
</mgrwt>
</event>
<event>
 6    0  0.1576925E-007  0.4632592E+03  0.7546771E-02  0.1023840E+00
         21   -1    0    0  502  501  0.00000000000E+00  0.00000000000E+00  0.34154879032E+04  0.34154879032E+04  0.00000000000E+00 0.  1.
         21   -1    0    0  501  502 -0.00000000000E+00 -0.00000000000E+00 -0.15708526317E+02  0.15708526317E+02  0.00000000000E+00 0.  1.
      99926    2    1    2    0    0  0.00000000000E+00  0.00000000000E+00  0.33997793769E+04  0.34311964295E+04  0.46325924324E+03 0.  0.
         25    1    3    3    0    0 -0.44073109494E+02  0.60677562505E+01  0.13607477967E+04  0.13672093223E+04  0.12509000000E+03 0.  0.
         25    1    3    3    0    0 -0.57878511297E+02 -0.19036493310E+02  0.60228589999E+03  0.61814894935E+03  0.12509000000E+03 0.  0.
         25    1    3    3    0    0  0.10195162079E+03  0.12968737060E+02  0.14367456802E+04  0.14458381579E+04  0.12509000000E+03 0.  0.
<mgrwt>
<rscale>  2 0.46325924E+03</rscale>
<asrwt>0</asrwt>
<pdfrwt beam="1">  1       21 0.50227712E+00 0.46325924E+03</pdfrwt>
<pdfrwt beam="2">  1       21 0.23100798E-02 0.46325924E+03</pdfrwt>
<totfact> 0.13835979E+03</totfact>
</mgrwt>
</event>
<event>
 6    0  0.1576925E-007  0.4372659E+03  0.7546771E-02  0.1031589E+00
         21   -1    0    0  502  501  0.00000000000E+00  0.00000000000E+00  0.16148724770E+03  0.16148724770E+03  0.00000000000E+00 0. -1.
         21   -1    0    0  501  502 -0.00000000000E+00 -0.00000000000E+00 -0.29600090652E+03  0.29600090652E+03  0.00000000000E+00 0. -1.
      99926    2    1    2    0    0  0.00000000000E+00  0.00000000000E+00 -0.13451365882E+03  0.45748815422E+03  0.43726592234E+03 0.  0.
         25    1    3    3    0    0 -0.10075611088E+02 -0.59413969946E+02  0.18448980681E+02  0.14006930696E+03  0.12509000000E+03 0.  0.
         25    1    3    3    0    0  0.51287255471E+02  0.41617230483E+02 -0.10484752484E+03  0.17607636983E+03  0.12509000000E+03 0.  0.
         25    1    3    3    0    0 -0.41211644383E+02  0.17796739463E+02 -0.48115114657E+02  0.14134247743E+03  0.12509000000E+03 0.  0.
<mgrwt>
<rscale>  2 0.43726592E+03</rscale>
<asrwt>0</asrwt>
<pdfrwt beam="1">  1       21 0.23748125E-01 0.43726592E+03</pdfrwt>
<pdfrwt beam="2">  1       21 0.43529545E-01 0.43726592E+03</pdfrwt>
<totfact> 0.78908739E+04</totfact>
</mgrwt>
</event>
<event>
 6    0  0.1576925E-007  0.4534026E+03  0.7546771E-02  0.1026712E+00
         21   -1    0    0  502  501  0.00000000000E+00  0.00000000000E+00  0.67451212408E+03  0.67451212408E+03  0.00000000000E+00 0. -1.
         21   -1    0    0  501  502 -0.00000000000E+00 -0.00000000000E+00 -0.76193551387E+02  0.76193551387E+02  0.00000000000E+00 0. -1.
      99926    2    1    2    0    0  0.00000000000E+00  0.00000000000E+00  0.59831857269E+03  0.75070567546E+03  0.45340257691E+03 0.  0.
         25    1    3    3    0    0 -0.46623031507E+02  0.52738637706E+02  0.13659174432E+03  0.19814107017E+03  0.12509000000E+03 0.  0.
         25    1    3    3    0    0 -0.24964121935E+02 -0.35464931061E+02  0.33373922016E+03  0.35904086660E+03  0.12509000000E+03 0.  0.
         25    1    3    3    0    0  0.71587153442E+02 -0.17273706644E+02  0.12798760822E+03  0.19352373869E+03  0.12509000000E+03 0.  0.
<mgrwt>
<rscale>  2 0.45340258E+03</rscale>
<asrwt>0</asrwt>
<pdfrwt beam="1">  1       21 0.99192956E-01 0.45340258E+03</pdfrwt>
<pdfrwt beam="2">  1       21 0.11204934E-01 0.45340258E+03</pdfrwt>
<totfact> 0.50870587E+04</totfact>
</mgrwt>
</event>
<event>
 6    0  0.1576925E-007  0.4492417E+03  0.7546771E-02  0.1027948E+00
         21   -1    0    0  502  501  0.00000000000E+00  0.00000000000E+00  0.97241409338E+02  0.97241409338E+02  0.00000000000E+00 0. -1.
         21   -1    0    0  501  502 -0.00000000000E+00 -0.00000000000E+00 -0.51885853180E+03  0.51885853180E+03  0.00000000000E+00 0. -1.
      99926    2    1    2    0    0  0.35527136788E-14  0.71054273576E-14 -0.42161712246E+03  0.61609994114E+03  0.44924173840E+03 0.  0.
         25    1    3    3    0    0  0.11173049412E+02 -0.32857017939E+02 -0.11904560596E+03  0.17613570070E+03  0.12509000000E+03 0.  0.
         25    1    3    3    0    0 -0.37480775256E+02  0.55038603461E+02 -0.27195902074E+03  0.30666475743E+03  0.12509000000E+03 0.  0.
         25    1    3    3    0    0  0.26307725844E+02 -0.22181585522E+02 -0.30612495757E+02  0.13329948301E+03  0.12509000000E+03 0.  0.
<mgrwt>
<rscale>  2 0.44924174E+03</rscale>
<asrwt>0</asrwt>
<pdfrwt beam="1">  1       21 0.14300207E-01 0.44924174E+03</pdfrwt>
<pdfrwt beam="2">  1       21 0.76302725E-01 0.44924174E+03</pdfrwt>
<totfact> 0.60398107E+04</totfact>
</mgrwt>
</event>
<event>
 6    0  0.1576925E-007  0.4494565E+03  0.7546771E-02  0.1027884E+00
         21   -1    0    0  502  501  0.00000000000E+00  0.00000000000E+00  0.35312659724E+03  0.35312659724E+03  0.00000000000E+00 0. -1.
         21   -1    0    0  501  502 -0.00000000000E+00 -0.00000000000E+00 -0.14301609194E+03  0.14301609194E+03  0.00000000000E+00 0. -1.
      99926    2    1    2    0    0  0.00000000000E+00 -0.17763568394E-14  0.21011050530E+03  0.49614268918E+03  0.44945649800E+03 0.  0.
         25    1    3    3    0    0  0.71633764490E+02  0.26536172672E+02  0.17741452231E+02  0.14764088831E+03  0.12509000000E+03 0.  0.
         25    1    3    3    0    0 -0.76896490086E+02  0.73335131593E+01  0.48528511316E+02  0.15482046090E+03  0.12509000000E+03 0.  0.
         25    1    3    3    0    0  0.52627255956E+01 -0.33869685831E+02  0.14384054176E+03  0.19368133997E+03  0.12509000000E+03 0.  0.
<mgrwt>
<rscale>  2 0.44945650E+03</rscale>
<asrwt>0</asrwt>
<pdfrwt beam="1">  1       21 0.51930382E-01 0.44945650E+03</pdfrwt>
<pdfrwt beam="2">  1       21 0.21031778E-01 0.44945650E+03</pdfrwt>
<totfact> 0.68507926E+04</totfact>
</mgrwt>
</event>
<event>
 6    0  0.1576925E-007  0.4562967E+03  0.7546771E-02  0.1025861E+00
         21   -1    0    0  502  501  0.00000000000E+00  0.00000000000E+00  0.76432808573E+02  0.76432808573E+02  0.00000000000E+00 0. -1.
         21   -1    0    0  501  502 -0.00000000000E+00 -0.00000000000E+00 -0.68101214081E+03  0.68101214081E+03  0.00000000000E+00 0. -1.
      99926    2    1    2    0    0 -0.71054273576E-14  0.00000000000E+00 -0.60457933223E+03  0.75744494938E+03  0.45629670432E+03 0.  0.
         25    1    3    3    0    0  0.11556058710E+03 -0.16868155430E+02 -0.25325545026E+03  0.30565440475E+03  0.12509000000E+03 0.  0.
         25    1    3    3    0    0 -0.28764185932E+02  0.27963895662E+02 -0.15919203685E+03  0.20639518054E+03  0.12509000000E+03 0.  0.
         25    1    3    3    0    0 -0.86796401164E+02 -0.11095740232E+02 -0.19213184513E+03  0.24539536409E+03  0.12509000000E+03 0.  0.
<mgrwt>
<rscale>  2 0.45629670E+03</rscale>
<asrwt>0</asrwt>
<pdfrwt beam="1">  1       21 0.11240118E-01 0.45629670E+03</pdfrwt>
<pdfrwt beam="2">  1       21 0.10014885E+00 0.45629670E+03</pdfrwt>
<totfact> 0.49386637E+04</totfact>
</mgrwt>
</event>
<event>
 6    0  0.1576925E-007  0.4547814E+03  0.7546771E-02  0.1026306E+00
         21   -1    0    0  502  501  0.00000000000E+00  0.00000000000E+00  0.10031503224E+03  0.10031503224E+03  0.00000000000E+00 0. -1.
         21   -1    0    0  501  502 -0.00000000000E+00 -0.00000000000E+00 -0.51544157630E+03  0.51544157630E+03  0.00000000000E+00 0. -1.
      99926    2    1    2    0    0  0.00000000000E+00  0.00000000000E+00 -0.41512654406E+03  0.61575660854E+03  0.45478143473E+03 0.  0.
         25    1    3    3    0    0 -0.26067513017E+02 -0.23966014404E+02 -0.60805994635E+02  0.14352268868E+03  0.12509000000E+03 0.  0.
         25    1    3    3    0    0 -0.10369596809E+02  0.69927228680E+02 -0.78457565534E+02  0.16370841010E+03  0.12509000000E+03 0.  0.
         25    1    3    3    0    0  0.36437109826E+02 -0.45961214276E+02 -0.27586298389E+03  0.30852550976E+03  0.12509000000E+03 0.  0.
<mgrwt>
<rscale>  2 0.45478143E+03</rscale>
<asrwt>0</asrwt>
<pdfrwt beam="1">  1       21 0.14752210E-01 0.45478143E+03</pdfrwt>
<pdfrwt beam="2">  1       21 0.75800234E-01 0.45478143E+03</pdfrwt>
<totfact> 0.57818479E+04</totfact>
</mgrwt>
</event>
<event>
 6    0  0.1576925E-007  0.4415555E+03  0.7546771E-02  0.1030271E+00
         21   -1    0    0  502  501  0.00000000000E+00  0.00000000000E+00  0.35915686550E+03  0.35915686550E+03  0.00000000000E+00 0. -1.
         21   -1    0    0  501  502 -0.00000000000E+00 -0.00000000000E+00 -0.13571453192E+03  0.13571453192E+03  0.00000000000E+00 0. -1.
      99926    2    1    2    0    0  0.00000000000E+00 -0.71054273576E-14  0.22344233358E+03  0.49487139743E+03  0.44155545921E+03 0.  0.
         25    1    3    3    0    0 -0.49352831237E+01 -0.40913169733E+02 -0.53468555852E+01  0.13181176519E+03  0.12509000000E+03 0.  0.
         25    1    3    3    0    0 -0.12660279631E+02 -0.18686032374E+02  0.16815416120E+03  0.21079084543E+03  0.12509000000E+03 0.  0.
         25    1    3    3    0    0  0.17595562754E+02  0.59599202108E+02  0.60635027963E+02  0.15226878681E+03  0.12509000000E+03 0.  0.
<mgrwt>
<rscale>  2 0.44155546E+03</rscale>
<asrwt>0</asrwt>
<pdfrwt beam="1">  1       21 0.52817186E-01 0.44155546E+03</pdfrwt>
<pdfrwt beam="2">  1       21 0.19958019E-01 0.44155546E+03</pdfrwt>
<totfact> 0.73130716E+04</totfact>
</mgrwt>
</event>
<event>
 6    0  0.1576925E-007  0.4308478E+03  0.7546771E-02  0.1033592E+00
         21   -1    0    0  502  501  0.00000000000E+00  0.00000000000E+00  0.30081064002E+04  0.30081064002E+04  0.00000000000E+00 0.  1.
         21   -1    0    0  501  502 -0.00000000000E+00 -0.00000000000E+00 -0.15427468677E+02  0.15427468677E+02  0.00000000000E+00 0.  1.
      99926    2    1    2    0    0  0.71054273576E-14  0.88817841970E-14  0.29926789315E+04  0.30235338689E+04  0.43084784909E+03 0.  0.
         25    1    3    3    0    0  0.56424801957E+02  0.13791389696E+02  0.10960649714E+04  0.11047080566E+04  0.12509000000E+03 0.  0.
         25    1    3    3    0    0 -0.41852808184E+02 -0.73500822902E+02  0.10543730226E+04  0.10651309813E+04  0.12509000000E+03 0.  0.
         25    1    3    3    0    0 -0.14571993773E+02  0.59709433206E+02  0.84224093754E+03  0.85369483094E+03  0.12509000000E+03 0.  0.
<mgrwt>
<rscale>  2 0.43084785E+03</rscale>
<asrwt>0</asrwt>
<pdfrwt beam="1">  1       21 0.44236818E+00 0.43084785E+03</pdfrwt>
<pdfrwt beam="2">  1       21 0.22687475E-02 0.43084785E+03</pdfrwt>
<totfact> 0.37802796E+03</totfact>
</mgrwt>
</event>
<event>
 6    0  0.1576925E-007  0.4837597E+03  0.7546771E-02  0.1018107E+00
         21   -1    0    0  502  501  0.00000000000E+00  0.00000000000E+00  0.23888747315E+03  0.23888747315E+03  0.00000000000E+00 0.  1.
         21   -1    0    0  501  502 -0.00000000000E+00 -0.00000000000E+00 -0.24490973794E+03  0.24490973794E+03  0.00000000000E+00 0.  1.
      99926    2    1    2    0    0  0.35527136788E-14 -0.35527136788E-14 -0.60222647841E+01  0.48379721109E+03  0.48375972733E+03 0.  0.
         25    1    3    3    0    0  0.66710092941E+02 -0.29798688674E+02 -0.87506218506E+02  0.16924256180E+03  0.12509000000E+03 0.  0.
         25    1    3    3    0    0 -0.17646145814E+02 -0.18554189914E+02 -0.32595987150E+02  0.13177879535E+03  0.12509000000E+03 0.  0.
         25    1    3    3    0    0 -0.49063947127E+02  0.48352878589E+02  0.11407994087E+03  0.18277585394E+03  0.12509000000E+03 0.  0.
<mgrwt>
<rscale>  2 0.48375973E+03</rscale>
<asrwt>0</asrwt>
<pdfrwt beam="1">  1       21 0.35130511E-01 0.48375973E+03</pdfrwt>
<pdfrwt beam="2">  1       21 0.36016138E-01 0.48375973E+03</pdfrwt>
<totfact> 0.53191114E+04</totfact>
</mgrwt>
</event>
<event>
 6    0  0.1576925E-007  0.4891084E+03  0.7546771E-02  0.1016662E+00
         21   -1    0    0  502  501  0.00000000000E+00  0.00000000000E+00  0.77531762971E+03  0.77531762971E+03  0.00000000000E+00 0. -1.
         21   -1    0    0  501  502 -0.00000000000E+00 -0.00000000000E+00 -0.77138388353E+02  0.77138388353E+02  0.00000000000E+00 0. -1.
      99926    2    1    2    0    0  0.12212453271E-14  0.00000000000E+00  0.69817924136E+03  0.85245601806E+03  0.48910838234E+03 0.  0.
         25    1    3    3    0    0  0.40736335620E+02  0.95759154799E+02  0.16154857966E+03  0.22929177146E+03  0.12509000000E+03 0.  0.
         25    1    3    3    0    0 -0.40323624066E+02  0.34739917878E+02  0.23755237473E+03  0.27369964448E+03  0.12509000000E+03 0.  0.
         25    1    3    3    0    0 -0.41271155344E+00 -0.13049907268E+03  0.29907828697E+03  0.34946460212E+03  0.12509000000E+03 0.  0.
<mgrwt>
<rscale>  2 0.48910838E+03</rscale>
<asrwt>0</asrwt>
<pdfrwt beam="1">  1       21 0.11401729E+00 0.48910838E+03</pdfrwt>
<pdfrwt beam="2">  1       21 0.11343881E-01 0.48910838E+03</pdfrwt>
<totfact> 0.34985541E+04</totfact>
</mgrwt>
</event>
<event>
 6    0  0.1576925E-007  0.4858258E+03  0.7546771E-02  0.1017546E+00
         21   -1    0    0  502  501  0.00000000000E+00  0.00000000000E+00  0.19502167845E+03  0.19502167845E+03  0.00000000000E+00 0.  1.
         21   -1    0    0  501  502 -0.00000000000E+00 -0.00000000000E+00 -0.30256465746E+03  0.30256465746E+03  0.00000000000E+00 0.  1.
      99926    2    1    2    0    0  0.00000000000E+00  0.17763568394E-14 -0.10754297901E+03  0.49758633591E+03  0.48582576028E+03 0.  0.
         25    1    3    3    0    0  0.67685649774E+02  0.95936734387E+02  0.15901748230E+02  0.17229503152E+03  0.12509000000E+03 0.  0.
         25    1    3    3    0    0 -0.34098470237E+02 -0.84668370955E+01 -0.65010472850E+01  0.13009290803E+03  0.12509000000E+03 0.  0.
         25    1    3    3    0    0 -0.33587179537E+02 -0.87469897291E+02 -0.11694367996E+03  0.19519839637E+03  0.12509000000E+03 0.  0.
<mgrwt>
<rscale>  2 0.48582576E+03</rscale>
<asrwt>0</asrwt>
<pdfrwt beam="1">  1       21 0.28679659E-01 0.48582576E+03</pdfrwt>
<pdfrwt beam="2">  1       21 0.44494801E-01 0.48582576E+03</pdfrwt>
<totfact> 0.51605211E+04</totfact>
</mgrwt>
</event>
<event>
 6    0  0.1576925E-007  0.4557394E+03  0.7546771E-02  0.1026024E+00
         21   -1    0    0  502  501  0.00000000000E+00  0.00000000000E+00  0.10905505697E+03  0.10905505697E+03  0.00000000000E+00 0.  1.
         21   -1    0    0  501  502 -0.00000000000E+00 -0.00000000000E+00 -0.47613190927E+03  0.47613190927E+03  0.00000000000E+00 0.  1.
      99926    2    1    2    0    0  0.24424906542E-14  0.39968028887E-14 -0.36707685230E+03  0.58518696624E+03  0.45573936627E+03 0.  0.
         25    1    3    3    0    0 -0.59630561894E+02  0.60673643078E+02 -0.21842565616E+03  0.26569601097E+03  0.12509000000E+03 0.  0.
         25    1    3    3    0    0  0.59906911310E+02 -0.63094308193E+02 -0.50668228233E+02  0.16057554982E+03  0.12509000000E+03 0.  0.
         25    1    3    3    0    0 -0.27634941647E+00  0.24206651151E+01 -0.97982967902E+02  0.15891540544E+03  0.12509000000E+03 0.  0.
<mgrwt>
<rscale>  2 0.45573937E+03</rscale>
<asrwt>0</asrwt>
<pdfrwt beam="1">  1       21 0.16037509E-01 0.45573937E+03</pdfrwt>
<pdfrwt beam="2">  1       21 0.70019396E-01 0.45573937E+03</pdfrwt>
<totfact> 0.59252384E+04</totfact>
</mgrwt>
</event>
<event>
 6    0  0.1576925E-007  0.4598498E+03  0.7546771E-02  0.1024825E+00
         21   -1    0    0  502  501  0.00000000000E+00  0.00000000000E+00  0.15679316379E+03  0.15679316379E+03  0.00000000000E+00 0.  1.
         21   -1    0    0  501  502 -0.00000000000E+00 -0.00000000000E+00 -0.33716687959E+03  0.33716687959E+03  0.00000000000E+00 0.  1.
      99926    2    1    2    0    0  0.00000000000E+00  0.35527136788E-14 -0.18037371580E+03  0.49396004338E+03  0.45984980929E+03 0.  0.
         25    1    3    3    0    0  0.30075937841E+02 -0.92857990319E+01 -0.18300293791E+03  0.22389366111E+03  0.12509000000E+03 0.  0.
         25    1    3    3    0    0 -0.42109776979E+02 -0.22556235629E+02  0.30809617095E+02  0.13739999159E+03  0.12509000000E+03 0.  0.
         25    1    3    3    0    0  0.12033839138E+02  0.31842034661E+02 -0.28180394977E+02  0.13266639068E+03  0.12509000000E+03 0.  0.
<mgrwt>
<rscale>  2 0.45984981E+03</rscale>
<asrwt>0</asrwt>
<pdfrwt beam="1">  1       21 0.23057818E-01 0.45984981E+03</pdfrwt>
<pdfrwt beam="2">  1       21 0.49583365E-01 0.45984981E+03</pdfrwt>
<totfact> 0.63227490E+04</totfact>
</mgrwt>
</event>
<event>
 6    0  0.1576925E-007  0.4643404E+03  0.7546771E-02  0.1023530E+00
         21   -1    0    0  502  501  0.00000000000E+00  0.00000000000E+00  0.12389803119E+04  0.12389803119E+04  0.00000000000E+00 0.  1.
         21   -1    0    0  501  502 -0.00000000000E+00 -0.00000000000E+00 -0.43505935685E+02  0.43505935685E+02  0.00000000000E+00 0.  1.
      99926    2    1    2    0    0  0.35527136788E-14  0.00000000000E+00  0.11954743762E+04  0.12824862475E+04  0.46434038275E+03 0.  0.
         25    1    3    3    0    0  0.62797718317E+02  0.97818332520E+02  0.42554413539E+03  0.45852731529E+03  0.12509000000E+03 0.  0.
         25    1    3    3    0    0 -0.33941771113E+02 -0.65067379441E+02  0.53433069659E+03  0.55366290206E+03  0.12509000000E+03 0.  0.
         25    1    3    3    0    0 -0.28855947204E+02 -0.32750953080E+02  0.23559954419E+03  0.27029603019E+03  0.12509000000E+03 0.  0.
<mgrwt>
<rscale>  2 0.46434038E+03</rscale>
<asrwt>0</asrwt>
<pdfrwt beam="1">  1       21 0.18220297E+00 0.46434038E+03</pdfrwt>
<pdfrwt beam="2">  1       21 0.63979325E-02 0.46434038E+03</pdfrwt>
<totfact> 0.27568603E+04</totfact>
</mgrwt>
</event>
<event>
 6    0  0.1576925E-007  0.4519240E+03  0.7546771E-02  0.1027150E+00
         21   -1    0    0  502  501  0.00000000000E+00  0.00000000000E+00  0.15078114085E+03  0.15078114085E+03  0.00000000000E+00 0. -1.
         21   -1    0    0  501  502 -0.00000000000E+00 -0.00000000000E+00 -0.33862867131E+03  0.33862867131E+03  0.00000000000E+00 0. -1.
      99926    2    1    2    0    0 -0.35527136788E-14 -0.71054273576E-14 -0.18784753046E+03  0.48940981217E+03  0.45192396434E+03 0.  0.
         25    1    3    3    0    0 -0.86138344434E+01 -0.63950352791E+02 -0.37996952980E+02  0.14579136566E+03  0.12509000000E+03 0.  0.
         25    1    3    3    0    0  0.34088093969E+02  0.10235681959E+03 -0.12700167166E+03  0.20836470279E+03  0.12509000000E+03 0.  0.
         25    1    3    3    0    0 -0.25474259525E+02 -0.38406466798E+02 -0.22848905825E+02  0.13525374371E+03  0.12509000000E+03 0.  0.
<mgrwt>
<rscale>  2 0.45192396E+03</rscale>
<asrwt>0</asrwt>
<pdfrwt beam="1">  1       21 0.22173697E-01 0.45192396E+03</pdfrwt>
<pdfrwt beam="2">  1       21 0.49798334E-01 0.45192396E+03</pdfrwt>
<totfact> 0.67658412E+04</totfact>
</mgrwt>
</event>
<event>
 6    0  0.1576925E-007  0.4561351E+03  0.7546771E-02  0.1025908E+00
         21   -1    0    0  502  501  0.00000000000E+00  0.00000000000E+00  0.47766141436E+03  0.47766141436E+03  0.00000000000E+00 0. -1.
         21   -1    0    0  501  502 -0.00000000000E+00 -0.00000000000E+00 -0.10889473720E+03  0.10889473720E+03  0.00000000000E+00 0. -1.
      99926    2    1    2    0    0  0.00000000000E+00  0.00000000000E+00  0.36876667716E+03  0.58655615157E+03  0.45613512993E+03 0.  0.
         25    1    3    3    0    0 -0.22975835988E+02 -0.64437001929E+02  0.79718223464E+02  0.16334784819E+03  0.12509000000E+03 0.  0.
         25    1    3    3    0    0  0.32243280398E+02 -0.99409973466E+01  0.41759700967E+02  0.13612433024E+03  0.12509000000E+03 0.  0.
         25    1    3    3    0    0 -0.92674444103E+01  0.74377999275E+02  0.24728875273E+03  0.28708397313E+03  0.12509000000E+03 0.  0.
<mgrwt>
<rscale>  2 0.45613513E+03</rscale>
<asrwt>0</asrwt>
<pdfrwt beam="1">  1       21 0.70244325E-01 0.45613513E+03</pdfrwt>
<pdfrwt beam="2">  1       21 0.16013932E-01 0.45613513E+03</pdfrwt>
<totfact> 0.58982495E+04</totfact>
</mgrwt>
</event>
<event>
 6    0  0.1576925E-007  0.4525375E+03  0.7546771E-02  0.1026968E+00
         21   -1    0    0  502  501  0.00000000000E+00  0.00000000000E+00  0.12041734210E+03  0.12041734210E+03  0.00000000000E+00 0.  1.
         21   -1    0    0  501  502 -0.00000000000E+00 -0.00000000000E+00 -0.42516756760E+03  0.42516756760E+03  0.00000000000E+00 0.  1.
      99926    2    1    2    0    0 -0.71054273576E-14  0.71054273576E-14 -0.30475022550E+03  0.54558490970E+03  0.45253750535E+03 0.  0.
         25    1    3    3    0    0  0.16894761993E+02  0.34614438626E+02 -0.10318208103E+03  0.16666626020E+03  0.12509000000E+03 0.  0.
         25    1    3    3    0    0 -0.47144784237E+02  0.54943506116E+02 -0.32113193771E+02  0.14805466848E+03  0.12509000000E+03 0.  0.
         25    1    3    3    0    0  0.30250022244E+02 -0.89557944741E+02 -0.16945495070E+03  0.23086398102E+03  0.12509000000E+03 0.  0.
<mgrwt>
<rscale>  2 0.45253751E+03</rscale>
<asrwt>0</asrwt>
<pdfrwt beam="1">  1       21 0.17708433E-01 0.45253751E+03</pdfrwt>
<pdfrwt beam="2">  1       21 0.62524642E-01 0.45253751E+03</pdfrwt>
<totfact> 0.63385281E+04</totfact>
</mgrwt>
</event>
<event>
 6    0  0.1576925E-007  0.4538785E+03  0.7546771E-02  0.1026572E+00
         21   -1    0    0  502  501  0.00000000000E+00  0.00000000000E+00  0.10646764857E+04  0.10646764857E+04  0.00000000000E+00 0. -1.
         21   -1    0    0  501  502 -0.00000000000E+00 -0.00000000000E+00 -0.48372834869E+02  0.48372834869E+02  0.00000000000E+00 0. -1.
      99926    2    1    2    0    0 -0.17763568394E-14  0.00000000000E+00  0.10163036508E+04  0.11130493205E+04  0.45387848519E+03 0.  0.
         25    1    3    3    0    0  0.21116047273E+02  0.76346650440E+01  0.21560847733E+03  0.25027724459E+03  0.12509000000E+03 0.  0.
         25    1    3    3    0    0 -0.33328936760E+02  0.86174835743E+02  0.50011729742E+03  0.52373823578E+03  0.12509000000E+03 0.  0.
         25    1    3    3    0    0  0.12212889487E+02 -0.93809500787E+02  0.30057787606E+03  0.33903384017E+03  0.12509000000E+03 0.  0.
<mgrwt>
<rscale>  2 0.45387849E+03</rscale>
<asrwt>0</asrwt>
<pdfrwt beam="1">  1       21 0.15657006E+00 0.45387849E+03</pdfrwt>
<pdfrwt beam="2">  1       21 0.71136529E-02 0.45387849E+03</pdfrwt>
<totfact> 0.35348318E+04</totfact>
</mgrwt>
</event>
<event>
 6    0  0.1576925E-007  0.4527744E+03  0.7546771E-02  0.1026898E+00
         21   -1    0    0  502  501  0.00000000000E+00  0.00000000000E+00  0.97723026486E+03  0.97723026486E+03  0.00000000000E+00 0.  1.
         21   -1    0    0  501  502 -0.00000000000E+00 -0.00000000000E+00 -0.52445326032E+02  0.52445326032E+02  0.00000000000E+00 0.  1.
      99926    2    1    2    0    0 -0.35527136788E-14 -0.55511151231E-15  0.92478493883E+03  0.10296755909E+04  0.45277438023E+03 0.  0.
         25    1    3    3    0    0  0.23311541301E+02  0.58063128418E+02  0.19294712109E+03  0.23830831810E+03  0.12509000000E+03 0.  0.
         25    1    3    3    0    0 -0.54769219519E+02 -0.57113669940E+02  0.54204300816E+03  0.56188946377E+03  0.12509000000E+03 0.  0.
         25    1    3    3    0    0  0.31457678217E+02 -0.94945847799E+00  0.18979480958E+03  0.22947780902E+03  0.12509000000E+03 0.  0.
<mgrwt>
<rscale>  2 0.45277438E+03</rscale>
<asrwt>0</asrwt>
<pdfrwt beam="1">  1       21 0.14371032E+00 0.45277438E+03</pdfrwt>
<pdfrwt beam="2">  1       21 0.77125485E-02 0.45277438E+03</pdfrwt>
<totfact> 0.38700180E+04</totfact>
</mgrwt>
</event>
<event>
 6    0  0.1576925E-007  0.4502710E+03  0.7546771E-02  0.1027641E+00
         21   -1    0    0  502  501  0.00000000000E+00  0.00000000000E+00  0.10071566878E+03  0.10071566878E+03  0.00000000000E+00 0.  1.
         21   -1    0    0  501  502 -0.00000000000E+00 -0.00000000000E+00 -0.50325831736E+03  0.50325831736E+03  0.00000000000E+00 0.  1.
      99926    2    1    2    0    0  0.14210854715E-13  0.35527136788E-14 -0.40254264858E+03  0.60397398614E+03  0.45027102062E+03 0.  0.
         25    1    3    3    0    0  0.14772002130E+02 -0.40899508695E+02 -0.16718233134E+03  0.21328014880E+03  0.12509000000E+03 0.  0.
         25    1    3    3    0    0 -0.88433421673E+02 -0.15874656648E+02 -0.95128882652E+02  0.18102344380E+03  0.12509000000E+03 0.  0.
         25    1    3    3    0    0  0.73661419542E+02  0.56774165344E+02 -0.14023143458E+03  0.20967039353E+03  0.12509000000E+03 0.  0.
<mgrwt>
<rscale>  2 0.45027102E+03</rscale>
<asrwt>0</asrwt>
<pdfrwt beam="1">  1       21 0.14811128E-01 0.45027102E+03</pdfrwt>
<pdfrwt beam="2">  1       21 0.74008576E-01 0.45027102E+03</pdfrwt>
<totfact> 0.60669337E+04</totfact>
</mgrwt>
</event>
<event>
 6    0  0.1576925E-007  0.4580764E+03  0.7546771E-02  0.1025341E+00
         21   -1    0    0  502  501  0.00000000000E+00  0.00000000000E+00  0.11616470351E+03  0.11616470351E+03  0.00000000000E+00 0.  1.
         21   -1    0    0  501  502 -0.00000000000E+00 -0.00000000000E+00 -0.45158726281E+03  0.45158726281E+03  0.00000000000E+00 0.  1.
      99926    2    1    2    0    0  0.00000000000E+00  0.71054273576E-14 -0.33542255930E+03  0.56775196633E+03  0.45807641500E+03 0.  0.
         25    1    3    3    0    0 -0.41503647198E+02  0.57555503878E+02 -0.19825494653E+03  0.24492390794E+03  0.12509000000E+03 0.  0.
         25    1    3    3    0    0  0.63487359741E+02  0.19241417913E+02 -0.47116921245E+02  0.14922596751E+03  0.12509000000E+03 0.  0.
         25    1    3    3    0    0 -0.21983712543E+02 -0.76796921792E+02 -0.90050691520E+02  0.17360209088E+03  0.12509000000E+03 0.  0.
<mgrwt>
<rscale>  2 0.45807642E+03</rscale>
<asrwt>0</asrwt>
<pdfrwt beam="1">  1       21 0.17083044E-01 0.45807642E+03</pdfrwt>
<pdfrwt beam="2">  1       21 0.66409892E-01 0.45807642E+03</pdfrwt>
<totfact> 0.59253648E+04</totfact>
</mgrwt>
</event>
<event>
 6    0  0.1576925E-007  0.4540927E+03  0.7546771E-02  0.1026509E+00
         21   -1    0    0  502  501  0.00000000000E+00  0.00000000000E+00  0.10050434829E+03  0.10050434829E+03  0.00000000000E+00 0. -1.
         21   -1    0    0  501  502 -0.00000000000E+00 -0.00000000000E+00 -0.51291348717E+03  0.51291348717E+03  0.00000000000E+00 0. -1.
      99926    2    1    2    0    0  0.00000000000E+00  0.00000000000E+00 -0.41240913888E+03  0.61341783546E+03  0.45409265909E+03 0.  0.
         25    1    3    3    0    0 -0.26539192937E+01  0.11030898431E+02 -0.23639564378E+03  0.26769223467E+03  0.12509000000E+03 0.  0.
         25    1    3    3    0    0 -0.49864625699E+02  0.54638938940E+02 -0.10383601547E+03  0.17860940835E+03  0.12509000000E+03 0.  0.
         25    1    3    3    0    0  0.52518544993E+02 -0.65669837371E+02 -0.72177479634E+02  0.16711619244E+03  0.12509000000E+03 0.  0.
<mgrwt>
<rscale>  2 0.45409266E+03</rscale>
<asrwt>0</asrwt>
<pdfrwt beam="1">  1       21 0.14780051E-01 0.45409266E+03</pdfrwt>
<pdfrwt beam="2">  1       21 0.75428454E-01 0.45409266E+03</pdfrwt>
<totfact> 0.58276377E+04</totfact>
</mgrwt>
</event>
<event>
 6    0  0.1576925E-007  0.4488679E+03  0.7546771E-02  0.1028060E+00
         21   -1    0    0  502  501  0.00000000000E+00  0.00000000000E+00  0.11519899448E+03  0.11519899448E+03  0.00000000000E+00 0. -1.
         21   -1    0    0  501  502 -0.00000000000E+00 -0.00000000000E+00 -0.43724857080E+03  0.43724857080E+03  0.00000000000E+00 0. -1.
      99926    2    1    2    0    0 -0.17763568394E-14  0.00000000000E+00 -0.32204957632E+03  0.55244756528E+03  0.44886789012E+03 0.  0.
         25    1    3    3    0    0  0.39329464502E+02  0.50378895191E+02 -0.22828743700E+03  0.26804384315E+03  0.12509000000E+03 0.  0.
         25    1    3    3    0    0  0.97550711786E+01 -0.47230839347E+02 -0.44839094928E+02  0.14136465659E+03  0.12509000000E+03 0.  0.
         25    1    3    3    0    0 -0.49084535680E+02 -0.31480558445E+01 -0.48923044392E+02  0.14303906554E+03  0.12509000000E+03 0.  0.
<mgrwt>
<rscale>  2 0.44886789E+03</rscale>
<asrwt>0</asrwt>
<pdfrwt beam="1">  1       21 0.16941029E-01 0.44886789E+03</pdfrwt>
<pdfrwt beam="2">  1       21 0.64301260E-01 0.44886789E+03</pdfrwt>
<totfact> 0.64791559E+04</totfact>
</mgrwt>
</event>
<event>
 6    0  0.1576925E-007  0.4648371E+03  0.7546771E-02  0.1023388E+00
         21   -1    0    0  502  501  0.00000000000E+00  0.00000000000E+00  0.14258853663E+04  0.14258853663E+04  0.00000000000E+00 0. -1.
         21   -1    0    0  501  502 -0.00000000000E+00 -0.00000000000E+00 -0.37884100995E+02  0.37884100995E+02  0.00000000000E+00 0. -1.
      99926    2    1    2    0    0 -0.44408920985E-14 -0.88817841970E-15  0.13880012653E+04  0.14637694673E+04  0.46483711222E+03 0.  0.
         25    1    3    3    0    0 -0.48407821689E+02  0.95268569302E+01  0.18617558027E+03  0.22965829615E+03  0.12509000000E+03 0.  0.
         25    1    3    3    0    0  0.55082423412E+02 -0.26793249370E+01  0.84238868778E+03  0.85340931653E+03  0.12509000000E+03 0.  0.
         25    1    3    3    0    0 -0.66746017229E+01 -0.68475319932E+01  0.35943699722E+03  0.38070185457E+03  0.12509000000E+03 0.  0.
<mgrwt>
<rscale>  2 0.46483711E+03</rscale>
<asrwt>0</asrwt>
<pdfrwt beam="1">  1       21 0.20968899E+00 0.46483711E+03</pdfrwt>
<pdfrwt beam="2">  1       21 0.55711923E-02 0.46483711E+03</pdfrwt>
<totfact> 0.22881617E+04</totfact>
</mgrwt>
</event>
<event>
 6    0  0.1576925E-007  0.4546238E+03  0.7546771E-02  0.1026352E+00
         21   -1    0    0  502  501  0.00000000000E+00  0.00000000000E+00  0.16940400034E+04  0.16940400034E+04  0.00000000000E+00 0. -1.
         21   -1    0    0  501  502 -0.00000000000E+00 -0.00000000000E+00 -0.30501470439E+02  0.30501470439E+02  0.00000000000E+00 0. -1.
      99926    2    1    2    0    0  0.71054273576E-14 -0.48849813084E-14  0.16635385329E+04  0.17245414738E+04  0.45462384929E+03 0.  0.
         25    1    3    3    0    0  0.51976593624E+02 -0.26345892098E+01  0.63282329622E+03  0.64716407478E+03  0.12509000000E+03 0.  0.
         25    1    3    3    0    0  0.41235885761E+02  0.62727475562E+02  0.51302753789E+03  0.53336656925E+03  0.12509000000E+03 0.  0.
         25    1    3    3    0    0 -0.93212479385E+02 -0.60092886352E+02  0.51768769881E+03  0.54401082977E+03  0.12509000000E+03 0.  0.
<mgrwt>
<rscale>  2 0.45462385E+03</rscale>
<asrwt>0</asrwt>
<pdfrwt beam="1">  1       21 0.24912347E+00 0.45462385E+03</pdfrwt>
<pdfrwt beam="2">  1       21 0.44855115E-02 0.45462385E+03</pdfrwt>
<totfact> 0.18810342E+04</totfact>
</mgrwt>
</event>
<event>
 6    0  0.1576925E-007  0.4741901E+03  0.7546771E-02  0.1020744E+00
         21   -1    0    0  502  501  0.00000000000E+00  0.00000000000E+00  0.14086774855E+03  0.14086774855E+03  0.00000000000E+00 0.  1.
         21   -1    0    0  501  502 -0.00000000000E+00 -0.00000000000E+00 -0.39905564785E+03  0.39905564785E+03  0.00000000000E+00 0.  1.
      99926    2    1    2    0    0  0.00000000000E+00  0.00000000000E+00 -0.25818789930E+03  0.53992339640E+03  0.47419013343E+03 0.  0.
         25    1    3    3    0    0 -0.10453088255E+02 -0.10427176770E+03 -0.11923262920E+03  0.20210343035E+03  0.12509000000E+03 0.  0.
         25    1    3    3    0    0  0.52691487256E+02  0.10732373193E+02 -0.10633000588E+03  0.17275750320E+03  0.12509000000E+03 0.  0.
         25    1    3    3    0    0 -0.42238399001E+02  0.93539394510E+02 -0.32625264221E+02  0.16506246285E+03  0.12509000000E+03 0.  0.
<mgrwt>
<rscale>  2 0.47419013E+03</rscale>
<asrwt>0</asrwt>
<pdfrwt beam="1">  1       21 0.20715845E-01 0.47419013E+03</pdfrwt>
<pdfrwt beam="2">  1       21 0.58684654E-01 0.47419013E+03</pdfrwt>
<totfact> 0.53867710E+04</totfact>
</mgrwt>
</event>
<event>
 6    0  0.1576925E-007  0.4566800E+03  0.7546771E-02  0.1025749E+00
         21   -1    0    0  502  501  0.00000000000E+00  0.00000000000E+00  0.75998906155E+03  0.75998906155E+03  0.00000000000E+00 0. -1.
         21   -1    0    0  501  502 -0.00000000000E+00 -0.00000000000E+00 -0.68605132940E+02  0.68605132940E+02  0.00000000000E+00 0. -1.
      99926    2    1    2    0    0  0.71054273576E-14  0.00000000000E+00  0.69138392861E+03  0.82859419449E+03  0.45667997811E+03 0.  0.
         25    1    3    3    0    0  0.95874804739E+02 -0.22939652691E+02  0.23872062786E+03  0.28697256335E+03  0.12509000000E+03 0.  0.
         25    1    3    3    0    0 -0.87251285716E+02 -0.30058999613E+02  0.29399380274E+03  0.33256006144E+03  0.12509000000E+03 0.  0.
         25    1    3    3    0    0 -0.86235190231E+01  0.52998652304E+02  0.15866949801E+03  0.20906156970E+03  0.12509000000E+03 0.  0.
<mgrwt>
<rscale>  2 0.45667998E+03</rscale>
<asrwt>0</asrwt>
<pdfrwt beam="1">  1       21 0.11176309E+00 0.45667998E+03</pdfrwt>
<pdfrwt beam="2">  1       21 0.10088991E-01 0.45667998E+03</pdfrwt>
<totfact> 0.45805865E+04</totfact>
</mgrwt>
</event>
<event>
 6    0  0.1576925E-007  0.4503467E+03  0.7546771E-02  0.1027619E+00
         21   -1    0    0  502  501  0.00000000000E+00  0.00000000000E+00  0.58940362789E+03  0.58940362789E+03  0.00000000000E+00 0.  1.
         21   -1    0    0  501  502 -0.00000000000E+00 -0.00000000000E+00 -0.86024291069E+02  0.86024291069E+02  0.00000000000E+00 0.  1.
      99926    2    1    2    0    0  0.00000000000E+00  0.00000000000E+00  0.50337933682E+03  0.67542791896E+03  0.45034666310E+03 0.  0.
         25    1    3    3    0    0  0.81069565791E+02  0.62518103756E+01  0.10054510203E+03  0.17991160405E+03  0.12509000000E+03 0.  0.
         25    1    3    3    0    0 -0.11350685210E+02  0.33240042611E+02  0.25361540142E+03  0.28495967859E+03  0.12509000000E+03 0.  0.
         25    1    3    3    0    0 -0.69718880581E+02 -0.39491852986E+02  0.14921883337E+03  0.21055663631E+03  0.12509000000E+03 0.  0.
<mgrwt>
<rscale>  2 0.45034666E+03</rscale>
<asrwt>0</asrwt>
<pdfrwt beam="1">  1       21 0.86677002E-01 0.45034666E+03</pdfrwt>
<pdfrwt beam="2">  1       21 0.12650631E-01 0.45034666E+03</pdfrwt>
<totfact> 0.56292824E+04</totfact>
</mgrwt>
</event>
<event>
 6    0  0.1576925E-007  0.4273879E+03  0.7546771E-02  0.1034688E+00
         21   -1    0    0  502  501  0.00000000000E+00  0.00000000000E+00  0.11269167079E+04  0.11269167079E+04  0.00000000000E+00 0. -1.
         21   -1    0    0  501  502 -0.00000000000E+00 -0.00000000000E+00 -0.40522173291E+02  0.40522173291E+02  0.00000000000E+00 0. -1.
      99926    2    1    2    0    0  0.00000000000E+00  0.00000000000E+00  0.10863945346E+04  0.11674388812E+04  0.42738794612E+03 0.  0.
         25    1    3    3    0    0 -0.77522576325E+02 -0.15176728613E+02  0.41880533964E+03  0.44416832794E+03  0.12509000000E+03 0.  0.
         25    1    3    3    0    0  0.65144587939E+02  0.14327927360E+02  0.25260068944E+03  0.28966139413E+03  0.12509000000E+03 0.  0.
         25    1    3    3    0    0  0.12377988386E+02  0.84880125213E+00  0.41498850552E+03  0.43360915912E+03  0.12509000000E+03 0.  0.
<mgrwt>
<rscale>  2 0.42738795E+03</rscale>
<asrwt>0</asrwt>
<pdfrwt beam="1">  1       21 0.16572303E+00 0.42738795E+03</pdfrwt>
<pdfrwt beam="2">  1       21 0.59591439E-02 0.42738795E+03</pdfrwt>
<totfact> 0.41425507E+04</totfact>
</mgrwt>
</event>
<event>
 6    0  0.1576925E-007  0.4532463E+03  0.7546771E-02  0.1026758E+00
         21   -1    0    0  502  501  0.00000000000E+00  0.00000000000E+00  0.68071171404E+03  0.68071171404E+03  0.00000000000E+00 0. -1.
         21   -1    0    0  501  502 -0.00000000000E+00 -0.00000000000E+00 -0.75447582873E+02  0.75447582873E+02  0.00000000000E+00 0. -1.
      99926    2    1    2    0    0  0.35527136788E-14 -0.71054273576E-14  0.60526413117E+03  0.75615929691E+03  0.45324630592E+03 0.  0.
         25    1    3    3    0    0 -0.25234462149E+02 -0.56681037698E+02  0.82891046504E+02  0.16238211664E+03  0.12509000000E+03 0.  0.
         25    1    3    3    0    0 -0.37746874044E+02  0.53727704229E+02  0.28662092903E+03  0.31954742646E+03  0.12509000000E+03 0.  0.
         25    1    3    3    0    0  0.62981336193E+02  0.29533334691E+01  0.23575215564E+03  0.27422975381E+03  0.12509000000E+03 0.  0.
<mgrwt>
<rscale>  2 0.45324631E+03</rscale>
<asrwt>0</asrwt>
<pdfrwt beam="1">  1       21 0.10010466E+00 0.45324631E+03</pdfrwt>
<pdfrwt beam="2">  1       21 0.11095233E-01 0.45324631E+03</pdfrwt>
<totfact> 0.50651550E+04</totfact>
</mgrwt>
</event>
<event>
 6    0  0.1576925E-007  0.4455638E+03  0.7546771E-02  0.1029053E+00
         21   -1    0    0  502  501  0.00000000000E+00  0.00000000000E+00  0.10206903226E+03  0.10206903226E+03  0.00000000000E+00 0.  1.
         21   -1    0    0  501  502 -0.00000000000E+00 -0.00000000000E+00 -0.48625698957E+03  0.48625698957E+03  0.00000000000E+00 0.  1.
      99926    2    1    2    0    0 -0.35527136788E-14  0.00000000000E+00 -0.38418795731E+03  0.58832602183E+03  0.44556382418E+03 0.  0.
         25    1    3    3    0    0 -0.76104728960E+02 -0.15480153326E+02 -0.77261863834E+02  0.16627828668E+03  0.12509000000E+03 0.  0.
         25    1    3    3    0    0  0.46374191958E+02  0.68241333679E+02 -0.14295008933E+03  0.20709824104E+03  0.12509000000E+03 0.  0.
         25    1    3    3    0    0  0.29730537002E+02 -0.52761180353E+02 -0.16397600414E+03  0.21494949411E+03  0.12509000000E+03 0.  0.
<mgrwt>
<rscale>  2 0.44556382E+03</rscale>
<asrwt>0</asrwt>
<pdfrwt beam="1">  1       21 0.15010152E-01 0.44556382E+03</pdfrwt>
<pdfrwt beam="2">  1       21 0.71508380E-01 0.44556382E+03</pdfrwt>
<totfact> 0.64047287E+04</totfact>
</mgrwt>
</event>
<event>
 6    0  0.1576925E-007  0.4542151E+03  0.7546771E-02  0.1026472E+00
         21   -1    0    0  502  501  0.00000000000E+00  0.00000000000E+00  0.67140061487E+02  0.67140061487E+02  0.00000000000E+00 0.  1.
         21   -1    0    0  501  502 -0.00000000000E+00 -0.00000000000E+00 -0.76821272524E+03  0.76821272524E+03  0.00000000000E+00 0.  1.
      99926    2    1    2    0    0 -0.14210854715E-13 -0.14210854715E-13 -0.70107266375E+03  0.83535278673E+03  0.45421514553E+03 0.  0.
         25    1    3    3    0    0 -0.84487620237E+02 -0.42340651145E+02 -0.25906043918E+03  0.30280473570E+03  0.12509000000E+03 0.  0.
         25    1    3    3    0    0  0.81991399134E+02  0.75582283055E+02 -0.25090534587E+03  0.30172217639E+03  0.12509000000E+03 0.  0.
         25    1    3    3    0    0  0.24962211036E+01 -0.33241631910E+02 -0.19110687870E+03  0.23082587463E+03  0.12509000000E+03 0.  0.
<mgrwt>
<rscale>  2 0.45421515E+03</rscale>
<asrwt>0</asrwt>
<pdfrwt beam="1">  1       21 0.98735387E-02 0.45421515E+03</pdfrwt>
<pdfrwt beam="2">  1       21 0.11297246E+00 0.45421515E+03</pdfrwt>
<totfact> 0.46386855E+04</totfact>
</mgrwt>
</event>
<event>
 6    0  0.1576925E-007  0.4439316E+03  0.7546771E-02  0.1029547E+00
         21   -1    0    0  502  501  0.00000000000E+00  0.00000000000E+00  0.81829941845E+03  0.81829941845E+03  0.00000000000E+00 0.  1.
         21   -1    0    0  501  502 -0.00000000000E+00 -0.00000000000E+00 -0.60208788298E+02  0.60208788298E+02  0.00000000000E+00 0.  1.
      99926    2    1    2    0    0  0.00000000000E+00  0.00000000000E+00  0.75809063015E+03  0.87850820674E+03  0.44393160036E+03 0.  0.
         25    1    3    3    0    0  0.87118510523E+02  0.79314915430E+01  0.35322884928E+03  0.38479952118E+03  0.12509000000E+03 0.  0.
         25    1    3    3    0    0 -0.20974098751E+02  0.40251431434E+02  0.19151023017E+03  0.23320327380E+03  0.12509000000E+03 0.  0.
         25    1    3    3    0    0 -0.66144411772E+02 -0.48182922977E+02  0.21335155070E+03  0.26050541177E+03  0.12509000000E+03 0.  0.
<mgrwt>
<rscale>  2 0.44393160E+03</rscale>
<asrwt>0</asrwt>
<pdfrwt beam="1">  1       21 0.12033814E+00 0.44393160E+03</pdfrwt>
<pdfrwt beam="2">  1       21 0.88542341E-02 0.44393160E+03</pdfrwt>
<totfact> 0.48222082E+04</totfact>
</mgrwt>
</event>
<event>
 6    0  0.1576925E-007  0.4511903E+03  0.7546771E-02  0.1027368E+00
         21   -1    0    0  502  501  0.00000000000E+00  0.00000000000E+00  0.64511647241E+03  0.64511647241E+03  0.00000000000E+00 0. -1.
         21   -1    0    0  501  502 -0.00000000000E+00 -0.00000000000E+00 -0.78889879373E+02  0.78889879373E+02  0.00000000000E+00 0. -1.
      99926    2    1    2    0    0  0.35527136788E-14  0.00000000000E+00  0.56622659304E+03  0.72400635179E+03  0.45119025118E+03 0.  0.
         25    1    3    3    0    0  0.20288144350E+02  0.76981928884E+02  0.23734343479E+03  0.27985217582E+03  0.12509000000E+03 0.  0.
         25    1    3    3    0    0  0.23175742054E+02 -0.63374633958E+02  0.25491721141E+03  0.29186255673E+03  0.12509000000E+03 0.  0.
         25    1    3    3    0    0 -0.43463886404E+02 -0.13607294927E+02  0.73965946847E+02  0.15229161924E+03  0.12509000000E+03 0.  0.
<mgrwt>
<rscale>  2 0.45119025E+03</rscale>
<asrwt>0</asrwt>
<pdfrwt beam="1">  1       21 0.94870067E-01 0.45119025E+03</pdfrwt>
<pdfrwt beam="2">  1       21 0.11601453E-01 0.45119025E+03</pdfrwt>
<totfact> 0.53194945E+04</totfact>
</mgrwt>
</event>
<event>
 6    0  0.1576925E-007  0.4640068E+03  0.7546771E-02  0.1023626E+00
         21   -1    0    0  502  501  0.00000000000E+00  0.00000000000E+00  0.60167606591E+03  0.60167606591E+03  0.00000000000E+00 0.  1.
         21   -1    0    0  501  502 -0.00000000000E+00 -0.00000000000E+00 -0.89459381969E+02  0.89459381969E+02  0.00000000000E+00 0.  1.
      99926    2    1    2    0    0  0.00000000000E+00  0.00000000000E+00  0.51221668395E+03  0.69113544788E+03  0.46400676289E+03 0.  0.
         25    1    3    3    0    0  0.39848556823E+02 -0.92284637109E+02  0.25665052303E+03  0.30269020598E+03  0.12509000000E+03 0.  0.
         25    1    3    3    0    0  0.19548522581E+02  0.21450519709E+02  0.16277253989E+03  0.20732746411E+03  0.12509000000E+03 0.  0.
         25    1    3    3    0    0 -0.59397079404E+02  0.70834117401E+02  0.92793621032E+02  0.18111777780E+03  0.12509000000E+03 0.  0.
<mgrwt>
<rscale>  2 0.46400676E+03</rscale>
<asrwt>0</asrwt>
<pdfrwt beam="1">  1       21 0.88481772E-01 0.46400676E+03</pdfrwt>
<pdfrwt beam="2">  1       21 0.13155792E-01 0.46400676E+03</pdfrwt>
<totfact> 0.49762525E+04</totfact>
</mgrwt>
</event>
<event>
 6    0  0.1576925E-007  0.4472239E+03  0.7546771E-02  0.1028553E+00
         21   -1    0    0  502  501  0.00000000000E+00  0.00000000000E+00  0.36385268254E+03  0.36385268254E+03  0.00000000000E+00 0.  1.
         21   -1    0    0  501  502 -0.00000000000E+00 -0.00000000000E+00 -0.13742459128E+03  0.13742459128E+03  0.00000000000E+00 0.  1.
      99926    2    1    2    0    0  0.00000000000E+00  0.00000000000E+00  0.22642809126E+03  0.50127727382E+03  0.44722390895E+03 0.  0.
         25    1    3    3    0    0  0.28957033292E+02 -0.65489692844E+02  0.49444412799E+02  0.15238001084E+03  0.12509000000E+03 0.  0.
         25    1    3    3    0    0 -0.14432370337E+02 -0.94296300005E+01  0.98962841392E+01  0.12665960593E+03  0.12509000000E+03 0.  0.
         25    1    3    3    0    0 -0.14524662955E+02  0.74919322844E+02  0.16708739433E+03  0.22223765705E+03  0.12509000000E+03 0.  0.
<mgrwt>
<rscale>  2 0.44722391E+03</rscale>
<asrwt>0</asrwt>
<pdfrwt beam="1">  1       21 0.53507748E-01 0.44722391E+03</pdfrwt>
<pdfrwt beam="2">  1       21 0.20209499E-01 0.44722391E+03</pdfrwt>
<totfact> 0.69364330E+04</totfact>
</mgrwt>
</event>
<event>
 6    0  0.1576925E-007  0.4489389E+03  0.7546771E-02  0.1028039E+00
         21   -1    0    0  502  501  0.00000000000E+00  0.00000000000E+00  0.81163036257E+02  0.81163036257E+02  0.00000000000E+00 0.  1.
         21   -1    0    0  501  502 -0.00000000000E+00 -0.00000000000E+00 -0.62080654308E+03  0.62080654308E+03  0.00000000000E+00 0.  1.
      99926    2    1    2    0    0  0.00000000000E+00  0.88817841970E-15 -0.53964350682E+03  0.70196957934E+03  0.44893894447E+03 0.  0.
         25    1    3    3    0    0 -0.33190650895E+02  0.29930466154E+01 -0.28927248429E+03  0.31691742758E+03  0.12509000000E+03 0.  0.
         25    1    3    3    0    0  0.42663613609E+01 -0.31487763927E+02 -0.36748899291E+02  0.13419266305E+03  0.12509000000E+03 0.  0.
         25    1    3    3    0    0  0.28924289534E+02  0.28494717311E+02 -0.21362212324E+03  0.25085948872E+03  0.12509000000E+03 0.  0.
<mgrwt>
<rscale>  2 0.44893894E+03</rscale>
<asrwt>0</asrwt>
<pdfrwt beam="1">  1       21 0.11935741E-01 0.44893894E+03</pdfrwt>
<pdfrwt beam="2">  1       21 0.91295075E-01 0.44893894E+03</pdfrwt>
<totfact> 0.55391188E+04</totfact>
</mgrwt>
</event>
<event>
 6    0  0.1576925E-007  0.4576107E+03  0.7546771E-02  0.1025476E+00
         21   -1    0    0  502  501  0.00000000000E+00  0.00000000000E+00  0.17300175614E+03  0.17300175614E+03  0.00000000000E+00 0.  1.
         21   -1    0    0  501  502 -0.00000000000E+00 -0.00000000000E+00 -0.30260894791E+03  0.30260894791E+03  0.00000000000E+00 0.  1.
      99926    2    1    2    0    0  0.00000000000E+00  0.00000000000E+00 -0.12960719177E+03  0.47561070405E+03  0.45761066164E+03 0.  0.
         25    1    3    3    0    0 -0.45825414062E+02 -0.39830704063E+02 -0.11300135172E+03  0.17917384617E+03  0.12509000000E+03 0.  0.
         25    1    3    3    0    0  0.49462753545E+02  0.85680519419E+02 -0.30713023330E+02  0.16241463388E+03  0.12509000000E+03 0.  0.
         25    1    3    3    0    0 -0.36373394838E+01 -0.45849815356E+02  0.14107183280E+02  0.13402222400E+03  0.12509000000E+03 0.  0.
<mgrwt>
<rscale>  2 0.45761066E+03</rscale>
<asrwt>0</asrwt>
<pdfrwt beam="1">  1       21 0.25441435E-01 0.45761066E+03</pdfrwt>
<pdfrwt beam="2">  1       21 0.44501315E-01 0.45761066E+03</pdfrwt>
<totfact> 0.65650403E+04</totfact>
</mgrwt>
</event>
<event>
 6    0  0.1576925E-007  0.4728533E+03  0.7546771E-02  0.1021118E+00
         21   -1    0    0  502  501  0.00000000000E+00  0.00000000000E+00  0.40015326797E+03  0.40015326797E+03  0.00000000000E+00 0.  1.
         21   -1    0    0  501  502 -0.00000000000E+00 -0.00000000000E+00 -0.13969037725E+03  0.13969037725E+03  0.00000000000E+00 0.  1.
      99926    2    1    2    0    0  0.00000000000E+00 -0.71054273576E-14  0.26046289072E+03  0.53984364522E+03  0.47285330055E+03 0.  0.
         25    1    3    3    0    0  0.38950657576E+01 -0.80012430078E+02  0.13126450417E+03  0.19822976229E+03  0.12509000000E+03 0.  0.
         25    1    3    3    0    0  0.84916881450E+02  0.45496618706E+02  0.50452181670E+02  0.16575207330E+03  0.12509000000E+03 0.  0.
         25    1    3    3    0    0 -0.88811947207E+02  0.34515811372E+02  0.78746204878E+02  0.17586180962E+03  0.12509000000E+03 0.  0.
<mgrwt>
<rscale>  2 0.47285330E+03</rscale>
<asrwt>0</asrwt>
<pdfrwt beam="1">  1       21 0.58846068E-01 0.47285330E+03</pdfrwt>
<pdfrwt beam="2">  1       21 0.20542703E-01 0.47285330E+03</pdfrwt>
<totfact> 0.54425782E+04</totfact>
</mgrwt>
</event>
<event>
 6    0  0.1576925E-007  0.4531527E+03  0.7546771E-02  0.1026786E+00
         21   -1    0    0  502  501  0.00000000000E+00  0.00000000000E+00  0.13187784737E+03  0.13187784737E+03  0.00000000000E+00 0.  1.
         21   -1    0    0  501  502 -0.00000000000E+00 -0.00000000000E+00 -0.38927566442E+03  0.38927566442E+03  0.00000000000E+00 0.  1.
      99926    2    1    2    0    0  0.00000000000E+00  0.35527136788E-14 -0.25739781706E+03  0.52115351179E+03  0.45315267474E+03 0.  0.
         25    1    3    3    0    0 -0.72299842072E+02  0.31640138116E+02 -0.62288189652E+02  0.16048580054E+03  0.12509000000E+03 0.  0.
         25    1    3    3    0    0  0.78470209795E+02 -0.11871728419E+02 -0.27777074824E+02  0.15072354078E+03  0.12509000000E+03 0.  0.
         25    1    3    3    0    0 -0.61703677227E+01 -0.19768409697E+02 -0.16733255258E+03  0.20994417047E+03  0.12509000000E+03 0.  0.
<mgrwt>
<rscale>  2 0.45315267E+03</rscale>
<asrwt>0</asrwt>
<pdfrwt beam="1">  1       21 0.19393801E-01 0.45315267E+03</pdfrwt>
<pdfrwt beam="2">  1       21 0.57246422E-01 0.45315267E+03</pdfrwt>
<totfact> 0.64752433E+04</totfact>
</mgrwt>
</event>
<event>
 6    0  0.1576925E-007  0.4566939E+03  0.7546771E-02  0.1025744E+00
         21   -1    0    0  502  501  0.00000000000E+00  0.00000000000E+00  0.15533579367E+04  0.15533579367E+04  0.00000000000E+00 0. -1.
         21   -1    0    0  501  502 -0.00000000000E+00 -0.00000000000E+00 -0.33567494668E+02  0.33567494668E+02  0.00000000000E+00 0. -1.
      99926    2    1    2    0    0  0.00000000000E+00  0.00000000000E+00  0.15197904420E+04  0.15869254314E+04  0.45669392051E+03 0.  0.
         25    1    3    3    0    0 -0.61599660903E+02  0.21508822357E+02  0.65006184189E+03  0.66519550062E+03  0.12509000000E+03 0.  0.
         25    1    3    3    0    0  0.51952777081E+02 -0.27734845640E+02  0.21902984014E+03  0.25901716484E+03  0.12509000000E+03 0.  0.
         25    1    3    3    0    0  0.96468838218E+01  0.62260232836E+01  0.65069875999E+03  0.66271276590E+03  0.12509000000E+03 0.  0.
<mgrwt>
<rscale>  2 0.45669392E+03</rscale>
<asrwt>0</asrwt>
<pdfrwt beam="1">  1       21 0.22843494E+00 0.45669392E+03</pdfrwt>
<pdfrwt beam="2">  1       21 0.49363973E-02 0.45669392E+03</pdfrwt>
<totfact> 0.21443305E+04</totfact>
</mgrwt>
</event>
<event>
 6    0  0.1576925E-007  0.4551602E+03  0.7546771E-02  0.1026194E+00
         21   -1    0    0  502  501  0.00000000000E+00  0.00000000000E+00  0.26904567785E+03  0.26904567785E+03  0.00000000000E+00 0. -1.
         21   -1    0    0  501  502 -0.00000000000E+00 -0.00000000000E+00 -0.19250527211E+03  0.19250527211E+03  0.00000000000E+00 0. -1.
      99926    2    1    2    0    0 -0.88817841970E-14  0.00000000000E+00  0.76540405738E+02  0.46155094996E+03  0.45516024179E+03 0.  0.
         25    1    3    3    0    0 -0.66973072871E+02  0.42186306062E+02  0.47856489402E+02  0.15557258302E+03  0.12509000000E+03 0.  0.
         25    1    3    3    0    0 -0.10622844851E+02 -0.84446646921E+02  0.89616966986E+01  0.15156484129E+03  0.12509000000E+03 0.  0.
         25    1    3    3    0    0  0.77595917722E+02  0.42260340858E+02  0.19722219637E+02  0.15441352565E+03  0.12509000000E+03 0.  0.
<mgrwt>
<rscale>  2 0.45516024E+03</rscale>
<asrwt>0</asrwt>
<pdfrwt beam="1">  1       21 0.39565541E-01 0.45516024E+03</pdfrwt>
<pdfrwt beam="2">  1       21 0.28309599E-01 0.45516024E+03</pdfrwt>
<totfact> 0.67980242E+04</totfact>
</mgrwt>
</event>
<event>
 6    0  0.1576925E-007  0.4897814E+03  0.7546771E-02  0.1016481E+00
         21   -1    0    0  502  501  0.00000000000E+00  0.00000000000E+00  0.85099156478E+03  0.85099156478E+03  0.00000000000E+00 0.  1.
         21   -1    0    0  501  502 -0.00000000000E+00 -0.00000000000E+00 -0.70472435514E+02  0.70472435514E+02  0.00000000000E+00 0.  1.
      99926    2    1    2    0    0  0.35527136788E-14  0.00000000000E+00  0.78051912926E+03  0.92146400029E+03  0.48978137234E+03 0.  0.
         25    1    3    3    0    0 -0.60779020185E+02  0.10588557007E+03  0.43981190950E+03  0.47327356474E+03  0.12509000000E+03 0.  0.
         25    1    3    3    0    0 -0.29188672392E+01 -0.79828160725E+02  0.17331791595E+03  0.22818339800E+03  0.12509000000E+03 0.  0.
         25    1    3    3    0    0  0.63697887424E+02 -0.26057409341E+02  0.16738930381E+03  0.22000703755E+03  0.12509000000E+03 0.  0.
<mgrwt>
<rscale>  2 0.48978137E+03</rscale>
<asrwt>0</asrwt>
<pdfrwt beam="1">  1       21 0.12514581E+00 0.48978137E+03</pdfrwt>
<pdfrwt beam="2">  1       21 0.10363594E-01 0.48978137E+03</pdfrwt>
<totfact> 0.32518989E+04</totfact>
</mgrwt>
</event>
<event>
 6    0  0.1576925E-007  0.4558501E+03  0.7546771E-02  0.1025992E+00
         21   -1    0    0  502  501  0.00000000000E+00  0.00000000000E+00  0.10367047859E+04  0.10367047859E+04  0.00000000000E+00 0. -1.
         21   -1    0    0  501  502 -0.00000000000E+00 -0.00000000000E+00 -0.50110536281E+02  0.50110536281E+02  0.00000000000E+00 0. -1.
      99926    2    1    2    0    0  0.00000000000E+00 -0.88817841970E-15  0.98659424967E+03  0.10868153222E+04  0.45585011918E+03 0.  0.
         25    1    3    3    0    0 -0.67667900457E+02 -0.34417829348E+01  0.32253682966E+03  0.35251709917E+03  0.12509000000E+03 0.  0.
         25    1    3    3    0    0  0.54894982928E+02 -0.78244381417E+02  0.41147127847E+03  0.44055846772E+03  0.12509000000E+03 0.  0.
         25    1    3    3    0    0  0.12772917530E+02  0.81686164352E+02  0.25258614153E+03  0.29373975533E+03  0.12509000000E+03 0.  0.
<mgrwt>
<rscale>  2 0.45585012E+03</rscale>
<asrwt>0</asrwt>
<pdfrwt beam="1">  1       21 0.15245657E+00 0.45585012E+03</pdfrwt>
<pdfrwt beam="2">  1       21 0.73691972E-02 0.45585012E+03</pdfrwt>
<totfact> 0.35717304E+04</totfact>
</mgrwt>
</event>
<event>
 6    0  0.1976896E-006  0.4684565E+03  0.7546771E-02  0.1022357E+00
         21   -1    0    0  502  501  0.00000000000E+00  0.00000000000E+00  0.46719462416E+03  0.46719462416E+03  0.00000000000E+00 0. -1.
         21   -1    0    0  501  502 -0.00000000000E+00 -0.00000000000E+00 -0.11743043452E+03  0.11743043452E+03  0.00000000000E+00 0.  1.
      99926    2    1    2    0    0  0.00000000000E+00  0.00000000000E+00  0.34976418964E+03  0.58462505869E+03  0.46845647705E+03 0.  0.
         25    1    3    3    0    0  0.95513324725E+02 -0.88956750024E+02  0.11354366136E+03  0.21348482314E+03  0.12509000000E+03 0.  0.
         25    1    3    3    0    0 -0.72135139806E+02  0.49479688796E+02  0.13565359901E+03  0.20420853318E+03  0.12509000000E+03 0.  0.
         25    1    3    3    0    0 -0.23378184920E+02  0.39477061227E+02  0.10056692927E+03  0.16693170237E+03  0.12509000000E+03 0.  0.
<mgrwt>
<rscale>  2 0.46845648E+03</rscale>
<asrwt>0</asrwt>
<pdfrwt beam="1">  1       21 0.68705091E-01 0.46845648E+03</pdfrwt>
<pdfrwt beam="2">  1       21 0.17269182E-01 0.46845648E+03</pdfrwt>
<totfact> 0.53691304E+04</totfact>
</mgrwt>
</event>
<event>
 6    0  0.1576925E-007  0.4597182E+03  0.7546771E-02  0.1024863E+00
         21   -1    0    0  502  501  0.00000000000E+00  0.00000000000E+00  0.63073278526E+03  0.63073278526E+03  0.00000000000E+00 0. -1.
         21   -1    0    0  501  502 -0.00000000000E+00 -0.00000000000E+00 -0.83767966684E+02  0.83767966684E+02  0.00000000000E+00 0. -1.
      99926    2    1    2    0    0  0.00000000000E+00 -0.71054273576E-14  0.54696481857E+03  0.71450075194E+03  0.45971818733E+03 0.  0.
         25    1    3    3    0    0 -0.26011146785E+02  0.20439101490E+02  0.19819851786E+03  0.23669494547E+03  0.12509000000E+03 0.  0.
         25    1    3    3    0    0 -0.87894387171E+01  0.67604914603E+02  0.71883778250E+02  0.15956962238E+03  0.12509000000E+03 0.  0.
         25    1    3    3    0    0  0.34800585502E+02 -0.88044016093E+02  0.27688252246E+03  0.31823618409E+03  0.12509000000E+03 0.  0.
<mgrwt>
<rscale>  2 0.45971819E+03</rscale>
<asrwt>0</asrwt>
<pdfrwt beam="1">  1       21 0.92754819E-01 0.45971819E+03</pdfrwt>
<pdfrwt beam="2">  1       21 0.12318819E-01 0.45971819E+03</pdfrwt>
<totfact> 0.50232149E+04</totfact>
</mgrwt>
</event>
<event>
 6    0  0.1576925E-007  0.4560218E+03  0.7546771E-02  0.1025941E+00
         21   -1    0    0  502  501  0.00000000000E+00  0.00000000000E+00  0.29473728163E+03  0.29473728163E+03  0.00000000000E+00 0. -1.
         21   -1    0    0  501  502 -0.00000000000E+00 -0.00000000000E+00 -0.17639086015E+03  0.17639086015E+03  0.00000000000E+00 0. -1.
      99926    2    1    2    0    0  0.71054273576E-14  0.47739590059E-14  0.11834642148E+03  0.47112814179E+03  0.45602176538E+03 0.  0.
         25    1    3    3    0    0  0.56327353164E+02  0.77071079849E+00 -0.13813978250E+02  0.13788291702E+03  0.12509000000E+03 0.  0.
         25    1    3    3    0    0 -0.16703164689E+02 -0.81056502182E+02  0.84746274192E+02  0.17227475539E+03  0.12509000000E+03 0.  0.
         25    1    3    3    0    0 -0.39624188475E+02  0.80285791384E+02  0.47414125539E+02  0.16097046938E+03  0.12509000000E+03 0.  0.
<mgrwt>
<rscale>  2 0.45602177E+03</rscale>
<asrwt>0</asrwt>
<pdfrwt beam="1">  1       21 0.43343718E-01 0.45602177E+03</pdfrwt>
<pdfrwt beam="2">  1       21 0.25939832E-01 0.45602177E+03</pdfrwt>
<totfact> 0.66808715E+04</totfact>
</mgrwt>
</event>
<event>
 6    0  0.1576925E-007  0.4567655E+03  0.7546771E-02  0.1025723E+00
         21   -1    0    0  502  501  0.00000000000E+00  0.00000000000E+00  0.42441702500E+02  0.42441702500E+02  0.00000000000E+00 0. -1.
         21   -1    0    0  501  502 -0.00000000000E+00 -0.00000000000E+00 -0.12289490406E+04  0.12289490406E+04  0.00000000000E+00 0. -1.
      99926    2    1    2    0    0  0.00000000000E+00  0.14210854715E-13 -0.11865073381E+04  0.12713907431E+04  0.45676553972E+03 0.  0.
         25    1    3    3    0    0 -0.22994005994E+02  0.80750161857E+02 -0.57380820258E+03  0.59325599399E+03  0.12509000000E+03 0.  0.
         25    1    3    3    0    0  0.78105771441E+01 -0.64087709346E+02 -0.45100796583E+03  0.47246580083E+03  0.12509000000E+03 0.  0.
         25    1    3    3    0    0  0.15183428850E+02 -0.16662452511E+02 -0.16169116968E+03  0.20566894828E+03  0.12509000000E+03 0.  0.
<mgrwt>
<rscale>  2 0.45676554E+03</rscale>
<asrwt>0</asrwt>
<pdfrwt beam="1">  1       21 0.62414282E-02 0.45676554E+03</pdfrwt>
<pdfrwt beam="2">  1       21 0.18072776E+00 0.45676554E+03</pdfrwt>
<totfact> 0.29548926E+04</totfact>
</mgrwt>
</event>
<event>
 6    0  0.1576925E-007  0.4555325E+03  0.7546771E-02  0.1026085E+00
         21   -1    0    0  502  501  0.00000000000E+00  0.00000000000E+00  0.28742854319E+03  0.28742854319E+03  0.00000000000E+00 0. -1.
         21   -1    0    0  501  502 -0.00000000000E+00 -0.00000000000E+00 -0.18048824318E+03  0.18048824318E+03  0.00000000000E+00 0. -1.
      99926    2    1    2    0    0  0.00000000000E+00  0.00000000000E+00  0.10694030001E+03  0.46791678637E+03  0.45553253583E+03 0.  0.
         25    1    3    3    0    0 -0.58682159930E+02 -0.78607923774E+01 -0.96357304030E+01  0.13872902851E+03  0.12509000000E+03 0.  0.
         25    1    3    3    0    0  0.10899491356E+02  0.77452560703E+02  0.98059390961E+02  0.17714640930E+03  0.12509000000E+03 0.  0.
         25    1    3    3    0    0  0.47782668574E+02 -0.69591768326E+02  0.18516639451E+02  0.15204134856E+03  0.12509000000E+03 0.  0.
<mgrwt>
<rscale>  2 0.45553254E+03</rscale>
<asrwt>0</asrwt>
<pdfrwt beam="1">  1       21 0.42268903E-01 0.45553254E+03</pdfrwt>
<pdfrwt beam="2">  1       21 0.26542389E-01 0.45553254E+03</pdfrwt>
<totfact> 0.67306387E+04</totfact>
</mgrwt>
</event>
<event>
 6    0  0.1576925E-007  0.4582920E+03  0.7546771E-02  0.1025278E+00
         21   -1    0    0  502  501  0.00000000000E+00  0.00000000000E+00  0.14922445924E+03  0.14922445924E+03  0.00000000000E+00 0.  1.
         21   -1    0    0  501  502 -0.00000000000E+00 -0.00000000000E+00 -0.35187192577E+03  0.35187192577E+03  0.00000000000E+00 0.  1.
      99926    2    1    2    0    0  0.00000000000E+00  0.00000000000E+00 -0.20264746653E+03  0.50109638502E+03  0.45829203723E+03 0.  0.
         25    1    3    3    0    0 -0.91470089631E+01 -0.74439793352E+02 -0.78572595038E+02  0.16566867959E+03  0.12509000000E+03 0.  0.
         25    1    3    3    0    0  0.81366472968E+02  0.25804139987E+02 -0.24590091549E+02  0.15342274038E+03  0.12509000000E+03 0.  0.
         25    1    3    3    0    0 -0.72219464005E+02  0.48635653366E+02 -0.99484779944E+02  0.18200496504E+03  0.12509000000E+03 0.  0.
<mgrwt>
<rscale>  2 0.45829204E+03</rscale>
<asrwt>0</asrwt>
<pdfrwt beam="1">  1       21 0.21944773E-01 0.45829204E+03</pdfrwt>
<pdfrwt beam="2">  1       21 0.51745871E-01 0.45829204E+03</pdfrwt>
<totfact> 0.63517524E+04</totfact>
</mgrwt>
</event>
<event>
 6    0  0.1576925E-007  0.4495695E+03  0.7546771E-02  0.1027850E+00
         21   -1    0    0  502  501  0.00000000000E+00  0.00000000000E+00  0.70066601229E+02  0.70066601229E+02  0.00000000000E+00 0.  1.
         21   -1    0    0  501  502 -0.00000000000E+00 -0.00000000000E+00 -0.72114520574E+03  0.72114520574E+03  0.00000000000E+00 0.  1.
      99926    2    1    2    0    0  0.35527136788E-14  0.66613381478E-15 -0.65107860451E+03  0.79121180697E+03  0.44956954327E+03 0.  0.
         25    1    3    3    0    0  0.54469831361E+02 -0.56145143843E+02 -0.17744013189E+03  0.23076340310E+03  0.12509000000E+03 0.  0.
         25    1    3    3    0    0 -0.30487788287E+02  0.54177385546E+02 -0.37239573888E+03  0.39773205651E+03  0.12509000000E+03 0.  0.
         25    1    3    3    0    0 -0.23982043074E+02  0.19677582968E+01 -0.10124273374E+03  0.16271634736E+03  0.12509000000E+03 0.  0.
<mgrwt>
<rscale>  2 0.44956954E+03</rscale>
<asrwt>0</asrwt>
<pdfrwt beam="1">  1       21 0.10303911E-01 0.44956954E+03</pdfrwt>
<pdfrwt beam="2">  1       21 0.10605078E+00 0.44956954E+03</pdfrwt>
<totfact> 0.50302739E+04</totfact>
</mgrwt>
</event>
<event>
 6    0  0.1576925E-007  0.4752626E+03  0.7546771E-02  0.1020445E+00
         21   -1    0    0  502  501  0.00000000000E+00  0.00000000000E+00  0.12595080274E+03  0.12595080274E+03  0.00000000000E+00 0. -1.
         21   -1    0    0  501  502 -0.00000000000E+00 -0.00000000000E+00 -0.44833880396E+03  0.44833880396E+03  0.00000000000E+00 0. -1.
      99926    2    1    2    0    0  0.00000000000E+00  0.35527136788E-14 -0.32238800121E+03  0.57428960670E+03  0.47526258956E+03 0.  0.
         25    1    3    3    0    0 -0.72996093239E+02  0.59487719480E+02 -0.16963053869E+03  0.23084463640E+03  0.12509000000E+03 0.  0.
         25    1    3    3    0    0  0.54139519464E+02  0.31575299450E+02 -0.25486612531E+02  0.14221519828E+03  0.12509000000E+03 0.  0.
         25    1    3    3    0    0  0.18856573774E+02 -0.91063018930E+02 -0.12727084999E+03  0.20122977202E+03  0.12509000000E+03 0.  0.
<mgrwt>
<rscale>  2 0.47526259E+03</rscale>
<asrwt>0</asrwt>
<pdfrwt beam="1">  1       21 0.18522177E-01 0.47526259E+03</pdfrwt>
<pdfrwt beam="2">  1       21 0.65932175E-01 0.47526259E+03</pdfrwt>
<totfact> 0.51524087E+04</totfact>
</mgrwt>
</event>
<event>
 6    0  0.1576925E-007  0.4532730E+03  0.7546771E-02  0.1026750E+00
         21   -1    0    0  502  501  0.00000000000E+00  0.00000000000E+00  0.12989904026E+03  0.12989904026E+03  0.00000000000E+00 0.  1.
         21   -1    0    0  501  502 -0.00000000000E+00 -0.00000000000E+00 -0.39541559081E+03  0.39541559081E+03  0.00000000000E+00 0.  1.
      99926    2    1    2    0    0 -0.14210854715E-13  0.00000000000E+00 -0.26551655055E+03  0.52531463107E+03  0.45327301155E+03 0.  0.
         25    1    3    3    0    0 -0.10923309860E+03 -0.30567530415E+02 -0.71123079862E+02  0.18322730237E+03  0.12509000000E+03 0.  0.
         25    1    3    3    0    0  0.61427365074E+02  0.45760721293E+02 -0.10398719081E+03  0.17980046926E+03  0.12509000000E+03 0.  0.
         25    1    3    3    0    0  0.47805733523E+02 -0.15193190877E+02 -0.90406279881E+02  0.16228685945E+03  0.12509000000E+03 0.  0.
<mgrwt>
<rscale>  2 0.45327301E+03</rscale>
<asrwt>0</asrwt>
<pdfrwt beam="1">  1       21 0.19102800E-01 0.45327301E+03</pdfrwt>
<pdfrwt beam="2">  1       21 0.58149351E-01 0.45327301E+03</pdfrwt>
<totfact> 0.64401954E+04</totfact>
</mgrwt>
</event>
<event>
 6    0  0.1576925E-007  0.4590610E+03  0.7546771E-02  0.1025054E+00
         21   -1    0    0  502  501  0.00000000000E+00  0.00000000000E+00  0.77100221823E+02  0.77100221823E+02  0.00000000000E+00 0.  1.
         21   -1    0    0  501  502 -0.00000000000E+00 -0.00000000000E+00 -0.68332150395E+03  0.68332150395E+03  0.00000000000E+00 0.  1.
      99926    2    1    2    0    0  0.00000000000E+00  0.00000000000E+00 -0.60622128213E+03  0.76042172578E+03  0.45906095252E+03 0.  0.
         25    1    3    3    0    0 -0.34041508948E+02  0.39952970286E+02 -0.25148878640E+03  0.28574320981E+03  0.12509000000E+03 0.  0.
         25    1    3    3    0    0  0.21711887745E+02 -0.10988685069E+03 -0.22668956957E+03  0.28210316389E+03  0.12509000000E+03 0.  0.
         25    1    3    3    0    0  0.12329621203E+02  0.69933880409E+02 -0.12804292616E+03  0.19257535208E+03  0.12509000000E+03 0.  0.
<mgrwt>
<rscale>  2 0.45906095E+03</rscale>
<asrwt>0</asrwt>
<pdfrwt beam="1">  1       21 0.11338268E-01 0.45906095E+03</pdfrwt>
<pdfrwt beam="2">  1       21 0.10048846E+00 0.45906095E+03</pdfrwt>
<totfact> 0.48183583E+04</totfact>
</mgrwt>
</event>
<event>
 6    0  0.1576925E-007  0.4568671E+03  0.7546771E-02  0.1025694E+00
         21   -1    0    0  502  501  0.00000000000E+00  0.00000000000E+00  0.14589785426E+04  0.14589785426E+04  0.00000000000E+00 0.  1.
         21   -1    0    0  501  502 -0.00000000000E+00 -0.00000000000E+00 -0.35766039962E+02  0.35766039962E+02  0.00000000000E+00 0.  1.
      99926    2    1    2    0    0  0.66613381478E-14  0.00000000000E+00  0.14232125026E+04  0.14947445826E+04  0.45686709165E+03 0.  0.
         25    1    3    3    0    0  0.84848995638E+02  0.17135351205E+02  0.73355321695E+03  0.74916006469E+03  0.12509000000E+03 0.  0.
         25    1    3    3    0    0 -0.87069122460E+02 -0.35848106238E+02  0.39675811279E+03  0.42653326596E+03  0.12509000000E+03 0.  0.
         25    1    3    3    0    0  0.22201268213E+01  0.18712755032E+02  0.29290117290E+03  0.31905125191E+03  0.12509000000E+03 0.  0.
<mgrwt>
<rscale>  2 0.45686709E+03</rscale>
<asrwt>0</asrwt>
<pdfrwt beam="1">  1       21 0.21455563E+00 0.45686709E+03</pdfrwt>
<pdfrwt beam="2">  1       21 0.52597127E-02 0.45686709E+03</pdfrwt>
<totfact> 0.23564622E+04</totfact>
</mgrwt>
</event>
<event>
 6    0  0.1576925E-007  0.4552424E+03  0.7546771E-02  0.1026170E+00
         21   -1    0    0  502  501  0.00000000000E+00  0.00000000000E+00  0.10634056371E+04  0.10634056371E+04  0.00000000000E+00 0. -1.
         21   -1    0    0  501  502 -0.00000000000E+00 -0.00000000000E+00 -0.48722153892E+02  0.48722153892E+02  0.00000000000E+00 0. -1.
      99926    2    1    2    0    0  0.00000000000E+00  0.71054273576E-14  0.10146834832E+04  0.11121277910E+04  0.45524241059E+03 0.  0.
         25    1    3    3    0    0 -0.14682232965E+02  0.69119569399E+01  0.26824429457E+03  0.29642174816E+03  0.12509000000E+03 0.  0.
         25    1    3    3    0    0 -0.74543949448E+02 -0.64311031302E+02  0.29200108294E+03  0.33257307421E+03  0.12509000000E+03 0.  0.
         25    1    3    3    0    0  0.89226182413E+02  0.57399074362E+02  0.45443810571E+03  0.48313296864E+03  0.12509000000E+03 0.  0.
<mgrwt>
<rscale>  2 0.45524241E+03</rscale>
<asrwt>0</asrwt>
<pdfrwt beam="1">  1       21 0.15638317E+00 0.45524241E+03</pdfrwt>
<pdfrwt beam="2">  1       21 0.71650233E-02 0.45524241E+03</pdfrwt>
<totfact> 0.35006014E+04</totfact>
</mgrwt>
</event>
<event>
 6    0  0.1576925E-007  0.4453995E+03  0.7546771E-02  0.1029103E+00
         21   -1    0    0  502  501  0.00000000000E+00  0.00000000000E+00  0.28750872937E+03  0.28750872937E+03  0.00000000000E+00 0.  1.
         21   -1    0    0  501  502 -0.00000000000E+00 -0.00000000000E+00 -0.17249971287E+03  0.17249971287E+03  0.00000000000E+00 0.  1.
      99926    2    1    2    0    0  0.00000000000E+00  0.71054273576E-14  0.11500901649E+03  0.46000844224E+03  0.44539947581E+03 0.  0.
         25    1    3    3    0    0 -0.66817369980E+02  0.56582980184E+02  0.38804454850E+02  0.15754202104E+03  0.12509000000E+03 0.  0.
         25    1    3    3    0    0 -0.92803161108E+01 -0.73220165789E+02  0.41937671897E+02  0.15117404992E+03  0.12509000000E+03 0.  0.
         25    1    3    3    0    0  0.76097686091E+02  0.16637185605E+02  0.34266889748E+02  0.15129237128E+03  0.12509000000E+03 0.  0.
<mgrwt>
<rscale>  2 0.44539948E+03</rscale>
<asrwt>0</asrwt>
<pdfrwt beam="1">  1       21 0.42280696E-01 0.44539948E+03</pdfrwt>
<pdfrwt beam="2">  1       21 0.25367605E-01 0.44539948E+03</pdfrwt>
<totfact> 0.73636158E+04</totfact>
</mgrwt>
</event>
<event>
 6    0  0.1576925E-007  0.4627150E+03  0.7546771E-02  0.1023997E+00
         21   -1    0    0  502  501  0.00000000000E+00  0.00000000000E+00  0.29083699502E+03  0.29083699502E+03  0.00000000000E+00 0. -1.
         21   -1    0    0  501  502 -0.00000000000E+00 -0.00000000000E+00 -0.18404224693E+03  0.18404224693E+03  0.00000000000E+00 0. -1.
      99926    2    1    2    0    0  0.71054273576E-14  0.14210854715E-13  0.10679474809E+03  0.47487924194E+03  0.46271500539E+03 0.  0.
         25    1    3    3    0    0  0.60557530639E+02 -0.16018567267E+02  0.17161169416E+02  0.14094617004E+03  0.12509000000E+03 0.  0.
         25    1    3    3    0    0 -0.63513616975E+02 -0.81972343161E+02  0.38526230318E+02  0.16698869155E+03  0.12509000000E+03 0.  0.
         25    1    3    3    0    0  0.29560863366E+01  0.97990910428E+02  0.51107348354E+02  0.16694438034E+03  0.12509000000E+03 0.  0.
<mgrwt>
<rscale>  2 0.46271501E+03</rscale>
<asrwt>0</asrwt>
<pdfrwt beam="1">  1       21 0.42770146E-01 0.46271501E+03</pdfrwt>
<pdfrwt beam="2">  1       21 0.27065036E-01 0.46271501E+03</pdfrwt>
<totfact> 0.63122105E+04</totfact>
</mgrwt>
</event>
<event>
 6    0  0.1576925E-007  0.4526173E+03  0.7546771E-02  0.1026944E+00
         21   -1    0    0  502  501  0.00000000000E+00  0.00000000000E+00  0.13108528621E+03  0.13108528621E+03  0.00000000000E+00 0.  1.
         21   -1    0    0  501  502 -0.00000000000E+00 -0.00000000000E+00 -0.39070445900E+03  0.39070445900E+03  0.00000000000E+00 0.  1.
      99926    2    1    2    0    0  0.00000000000E+00  0.00000000000E+00 -0.25961917279E+03  0.52178974520E+03  0.45261730338E+03 0.  0.
         25    1    3    3    0    0  0.47597602370E+01  0.52074069386E+02 -0.92517747602E+02  0.16413837376E+03  0.12509000000E+03 0.  0.
         25    1    3    3    0    0 -0.25832018142E+02  0.32886550717E+02 -0.15641525899E+03  0.20460219872E+03  0.12509000000E+03 0.  0.
         25    1    3    3    0    0  0.21072257905E+02 -0.84960620102E+02 -0.10686166206E+02  0.15304917272E+03  0.12509000000E+03 0.  0.
<mgrwt>
<rscale>  2 0.45261730E+03</rscale>
<asrwt>0</asrwt>
<pdfrwt beam="1">  1       21 0.19277248E-01 0.45261730E+03</pdfrwt>
<pdfrwt beam="2">  1       21 0.57456538E-01 0.45261730E+03</pdfrwt>
<totfact> 0.64984554E+04</totfact>
</mgrwt>
</event>
<event>
 6    0  0.1576925E-007  0.4454598E+03  0.7546771E-02  0.1029085E+00
         21   -1    0    0  502  501  0.00000000000E+00  0.00000000000E+00  0.24368487154E+03  0.24368487154E+03  0.00000000000E+00 0. -1.
         21   -1    0    0  501  502 -0.00000000000E+00 -0.00000000000E+00 -0.20357688369E+03  0.20357688369E+03  0.00000000000E+00 0. -1.
      99926    2    1    2    0    0  0.00000000000E+00  0.00000000000E+00  0.40107987854E+02  0.44726175523E+03  0.44545979280E+03 0.  0.
         25    1    3    3    0    0  0.84443773326E+02 -0.53863937748E+02 -0.17075897256E+01  0.16025760077E+03  0.12509000000E+03 0.  0.
         25    1    3    3    0    0 -0.44898847047E+02 -0.45727670397E+01 -0.12252417478E+02  0.13354567196E+03  0.12509000000E+03 0.  0.
         25    1    3    3    0    0 -0.39544926279E+02  0.58436704788E+02  0.54067995058E+02  0.15345848250E+03  0.12509000000E+03 0.  0.
<mgrwt>
<rscale>  2 0.44545979E+03</rscale>
<asrwt>0</asrwt>
<pdfrwt beam="1">  1       21 0.35836011E-01 0.44545979E+03</pdfrwt>
<pdfrwt beam="2">  1       21 0.29937777E-01 0.44545979E+03</pdfrwt>
<totfact> 0.74637992E+04</totfact>
</mgrwt>
</event>
<event>
 6    0  0.1576925E-007  0.4560775E+03  0.7546771E-02  0.1025925E+00
         21   -1    0    0  502  501  0.00000000000E+00  0.00000000000E+00  0.13473145399E+03  0.13473145399E+03  0.00000000000E+00 0.  1.
         21   -1    0    0  501  502 -0.00000000000E+00 -0.00000000000E+00 -0.38596526952E+03  0.38596526952E+03  0.00000000000E+00 0.  1.
      99926    2    1    2    0    0  0.00000000000E+00 -0.88817841970E-15 -0.25123381553E+03  0.52069672350E+03  0.45607745812E+03 0.  0.
         25    1    3    3    0    0 -0.58924806247E+02 -0.21072900644E+01 -0.60796127836E+01  0.13842342018E+03  0.12509000000E+03 0.  0.
         25    1    3    3    0    0  0.70757545049E+02 -0.79397990338E+01 -0.54895109172E+02  0.15404756311E+03  0.12509000000E+03 0.  0.
         25    1    3    3    0    0 -0.11832738801E+02  0.10047089098E+02 -0.19025909357E+03  0.22822574021E+03  0.12509000000E+03 0.  0.
<mgrwt>
<rscale>  2 0.45607746E+03</rscale>
<asrwt>0</asrwt>
<pdfrwt beam="1">  1       21 0.19813449E-01 0.45607746E+03</pdfrwt>
<pdfrwt beam="2">  1       21 0.56759597E-01 0.45607746E+03</pdfrwt>
<totfact> 0.63297005E+04</totfact>
</mgrwt>
</event>
<event>
 6    0  0.1576925E-007  0.4251264E+03  0.7546771E-02  0.1035411E+00
         21   -1    0    0  502  501  0.00000000000E+00  0.00000000000E+00  0.46050106593E+03  0.46050106593E+03  0.00000000000E+00 0. -1.
         21   -1    0    0  501  502 -0.00000000000E+00 -0.00000000000E+00 -0.98117286158E+02  0.98117286158E+02  0.00000000000E+00 0. -1.
      99926    2    1    2    0    0  0.00000000000E+00  0.00000000000E+00  0.36238377977E+03  0.55861835209E+03  0.42512640408E+03 0.  0.
         25    1    3    3    0    0 -0.26625911758E+02 -0.51166927990E+02  0.12840336885E+03  0.18831337427E+03  0.12509000000E+03 0.  0.
         25    1    3    3    0    0  0.75910028931E+02  0.34126747494E+02  0.10576088979E+03  0.18373851337E+03  0.12509000000E+03 0.  0.
         25    1    3    3    0    0 -0.49284117173E+02  0.17040180496E+02  0.12821952113E+03  0.18656646445E+03  0.12509000000E+03 0.  0.
<mgrwt>
<rscale>  2 0.42512640E+03</rscale>
<asrwt>0</asrwt>
<pdfrwt beam="1">  1       21 0.67720744E-01 0.42512640E+03</pdfrwt>
<pdfrwt beam="2">  1       21 0.14429013E-01 0.42512640E+03</pdfrwt>
<totfact> 0.78205917E+04</totfact>
</mgrwt>
</event>
<event>
 6    0  0.1576925E-007  0.4539781E+03  0.7546771E-02  0.1026542E+00
         21   -1    0    0  502  501  0.00000000000E+00  0.00000000000E+00  0.76238702328E+03  0.76238702328E+03  0.00000000000E+00 0.  1.
         21   -1    0    0  501  502 -0.00000000000E+00 -0.00000000000E+00 -0.67582498723E+02  0.67582498723E+02  0.00000000000E+00 0.  1.
      99926    2    1    2    0    0  0.00000000000E+00  0.00000000000E+00  0.69480452455E+03  0.82996952200E+03  0.45397806126E+03 0.  0.
         25    1    3    3    0    0 -0.70255008050E+01 -0.52217787259E+01  0.13611509228E+03  0.18507147560E+03  0.12509000000E+03 0.  0.
         25    1    3    3    0    0 -0.13919459099E+02  0.10076464467E+03  0.24471049708E+03  0.29304948463E+03  0.12509000000E+03 0.  0.
         25    1    3    3    0    0  0.20944959904E+02 -0.95542865945E+02  0.31397893519E+03  0.35184856177E+03  0.12509000000E+03 0.  0.
<mgrwt>
<rscale>  2 0.45397806E+03</rscale>
<asrwt>0</asrwt>
<pdfrwt beam="1">  1       21 0.11211573E+00 0.45397806E+03</pdfrwt>
<pdfrwt beam="2">  1       21 0.99386032E-02 0.45397806E+03</pdfrwt>
<totfact> 0.46722642E+04</totfact>
</mgrwt>
</event>
<event>
 6    0  0.1576925E-007  0.4554919E+03  0.7546771E-02  0.1026097E+00
         21   -1    0    0  502  501  0.00000000000E+00  0.00000000000E+00  0.36011843271E+02  0.36011843271E+02  0.00000000000E+00 0. -1.
         21   -1    0    0  501  502 -0.00000000000E+00 -0.00000000000E+00 -0.14403097717E+04  0.14403097717E+04  0.00000000000E+00 0. -1.
      99926    2    1    2    0    0 -0.88817841970E-14  0.00000000000E+00 -0.14042979284E+04  0.14763216150E+04  0.45549186496E+03 0.  0.
         25    1    3    3    0    0  0.87240000276E+02  0.52675461175E+02 -0.56317824585E+03  0.58583510185E+03  0.12509000000E+03 0.  0.
         25    1    3    3    0    0 -0.96372843143E+02 -0.33564255953E+02 -0.39608373598E+03  0.42771967243E+03  0.12509000000E+03 0.  0.
         25    1    3    3    0    0  0.91328428672E+01 -0.19111205221E+02 -0.44503594661E+03  0.46276684070E+03  0.12509000000E+03 0.  0.
<mgrwt>
<rscale>  2 0.45549186E+03</rscale>
<asrwt>0</asrwt>
<pdfrwt beam="1">  1       21 0.52958583E-02 0.45549186E+03</pdfrwt>
<pdfrwt beam="2">  1       21 0.21181030E+00 0.45549186E+03</pdfrwt>
<totfact> 0.24272570E+04</totfact>
</mgrwt>
</event>
<event>
 6    0  0.1576925E-007  0.4597938E+03  0.7546771E-02  0.1024841E+00
         21   -1    0    0  502  501  0.00000000000E+00  0.00000000000E+00  0.24582117278E+03  0.24582117278E+03  0.00000000000E+00 0.  1.
         21   -1    0    0  501  502 -0.00000000000E+00 -0.00000000000E+00 -0.21500420072E+03  0.21500420072E+03  0.00000000000E+00 0.  1.
      99926    2    1    2    0    0  0.26645352591E-14  0.00000000000E+00  0.30816972060E+02  0.46082537349E+03  0.45979380062E+03 0.  0.
         25    1    3    3    0    0 -0.72201247807E+02  0.28964919084E+02 -0.30458382141E+02  0.15042342858E+03  0.12509000000E+03 0.  0.
         25    1    3    3    0    0  0.77675988385E+02 -0.54156688534E+02 -0.21279317583E+02  0.15832505658E+03  0.12509000000E+03 0.  0.
         25    1    3    3    0    0 -0.54747405786E+01  0.25191769450E+02  0.82554671784E+02  0.15207688834E+03  0.12509000000E+03 0.  0.
<mgrwt>
<rscale>  2 0.45979380E+03</rscale>
<asrwt>0</asrwt>
<pdfrwt beam="1">  1       21 0.36150172E-01 0.45979380E+03</pdfrwt>
<pdfrwt beam="2">  1       21 0.31618265E-01 0.45979380E+03</pdfrwt>
<totfact> 0.65576808E+04</totfact>
</mgrwt>
</event>
<event>
 6    0  0.1576925E-007  0.4657161E+03  0.7546771E-02  0.1023136E+00
         21   -1    0    0  502  501  0.00000000000E+00  0.00000000000E+00  0.91682953285E+02  0.91682953285E+02  0.00000000000E+00 0. -1.
         21   -1    0    0  501  502 -0.00000000000E+00 -0.00000000000E+00 -0.59141721842E+03  0.59141721842E+03  0.00000000000E+00 0. -1.
      99926    2    1    2    0    0  0.00000000000E+00  0.00000000000E+00 -0.49973426514E+03  0.68310017171E+03  0.46571612473E+03 0.  0.
         25    1    3    3    0    0  0.22152257577E+02  0.45719509026E+02 -0.18645687239E+03  0.23020571102E+03  0.12509000000E+03 0.  0.
         25    1    3    3    0    0 -0.38756261204E+01 -0.12320618657E+03 -0.20093954196E+03  0.26686886763E+03  0.12509000000E+03 0.  0.
         25    1    3    3    0    0 -0.18276631456E+02  0.77486677547E+02 -0.11233785078E+03  0.18602559306E+03  0.12509000000E+03 0.  0.
<mgrwt>
<rscale>  2 0.46571612E+03</rscale>
<asrwt>0</asrwt>
<pdfrwt beam="1">  1       21 0.13482787E-01 0.46571612E+03</pdfrwt>
<pdfrwt beam="2">  1       21 0.86973121E-01 0.46571612E+03</pdfrwt>
<totfact> 0.49515347E+04</totfact>
</mgrwt>
</event>
<event>
 6    0  0.1576925E-007  0.4517049E+03  0.7546771E-02  0.1027215E+00
         21   -1    0    0  502  501  0.00000000000E+00  0.00000000000E+00  0.46418643348E+03  0.46418643348E+03  0.00000000000E+00 0. -1.
         21   -1    0    0  501  502 -0.00000000000E+00 -0.00000000000E+00 -0.10988972345E+03  0.10988972345E+03  0.00000000000E+00 0. -1.
      99926    2    1    2    0    0 -0.17763568394E-14  0.00000000000E+00  0.35429671003E+03  0.57407615694E+03  0.45170485411E+03 0.  0.
         25    1    3    3    0    0  0.28480802220E+02 -0.34340835965E+02  0.13409679066E+02  0.13348324503E+03  0.12509000000E+03 0.  0.
         25    1    3    3    0    0 -0.97822207236E+01  0.54956935665E+02  0.10668603767E+03  0.17362423608E+03  0.12509000000E+03 0.  0.
         25    1    3    3    0    0 -0.18698581496E+02 -0.20616099700E+02  0.23420099329E+03  0.26696867583E+03  0.12509000000E+03 0.  0.
<mgrwt>
<rscale>  2 0.45170485E+03</rscale>
<asrwt>0</asrwt>
<pdfrwt beam="1">  1       21 0.68262710E-01 0.45170485E+03</pdfrwt>
<pdfrwt beam="2">  1       21 0.16160254E-01 0.45170485E+03</pdfrwt>
<totfact> 0.61900085E+04</totfact>
</mgrwt>
</event>
<event>
 6    0  0.1576925E-007  0.4568987E+03  0.7546771E-02  0.1025685E+00
         21   -1    0    0  502  501  0.00000000000E+00  0.00000000000E+00  0.44023061409E+03  0.44023061409E+03  0.00000000000E+00 0. -1.
         21   -1    0    0  501  502 -0.00000000000E+00 -0.00000000000E+00 -0.11854944891E+03  0.11854944891E+03  0.00000000000E+00 0. -1.
      99926    2    1    2    0    0  0.71054273576E-14  0.00000000000E+00  0.32168116518E+03  0.55878006300E+03  0.45689866138E+03 0.  0.
         25    1    3    3    0    0 -0.49390252097E+02  0.48233291871E+02  0.25739621953E+02  0.14517535495E+03  0.12509000000E+03 0.  0.
         25    1    3    3    0    0 -0.26762762370E+01  0.13328631327E+02  0.20080880148E+03  0.23697362241E+03  0.12509000000E+03 0.  0.
         25    1    3    3    0    0  0.52066528334E+02 -0.61561923197E+02  0.95132741748E+02  0.17663108564E+03  0.12509000000E+03 0.  0.
<mgrwt>
<rscale>  2 0.45689866E+03</rscale>
<asrwt>0</asrwt>
<pdfrwt beam="1">  1       21 0.64739796E-01 0.45689866E+03</pdfrwt>
<pdfrwt beam="2">  1       21 0.17433743E-01 0.45689866E+03</pdfrwt>
<totfact> 0.60378096E+04</totfact>
</mgrwt>
</event>
<event>
 6    0  0.1576925E-007  0.4477482E+03  0.7546771E-02  0.1028396E+00
         21   -1    0    0  502  501  0.00000000000E+00  0.00000000000E+00  0.36393409681E+03  0.36393409681E+03  0.00000000000E+00 0. -1.
         21   -1    0    0  501  502 -0.00000000000E+00 -0.00000000000E+00 -0.13771617686E+03  0.13771617686E+03  0.00000000000E+00 0. -1.
      99926    2    1    2    0    0 -0.71054273576E-14  0.00000000000E+00  0.22621791994E+03  0.50165027367E+03  0.44774819907E+03 0.  0.
         25    1    3    3    0    0  0.50173282947E+02 -0.16669807696E+02  0.93151678241E+02  0.16468146243E+03  0.12509000000E+03 0.  0.
         25    1    3    3    0    0  0.39649656622E+02  0.16877852299E+02 -0.17195827418E+01  0.13231561598E+03  0.12509000000E+03 0.  0.
         25    1    3    3    0    0 -0.89822939569E+02 -0.20804460319E+00  0.13478582444E+03  0.20465319525E+03  0.12509000000E+03 0.  0.
<mgrwt>
<rscale>  2 0.44774820E+03</rscale>
<asrwt>0</asrwt>
<pdfrwt beam="1">  1       21 0.53519720E-01 0.44774820E+03</pdfrwt>
<pdfrwt beam="2">  1       21 0.20252379E-01 0.44774820E+03</pdfrwt>
<totfact> 0.69044190E+04</totfact>
</mgrwt>
</event>
<event>
 6    0  0.1576925E-007  0.4519787E+03  0.7546771E-02  0.1027134E+00
         21   -1    0    0  502  501  0.00000000000E+00  0.00000000000E+00  0.54274916380E+03  0.54274916380E+03  0.00000000000E+00 0. -1.
         21   -1    0    0  501  502 -0.00000000000E+00 -0.00000000000E+00 -0.94097223476E+02  0.94097223476E+02  0.00000000000E+00 0. -1.
      99926    2    1    2    0    0  0.00000000000E+00  0.00000000000E+00  0.44865194032E+03  0.63684638727E+03  0.45197871347E+03 0.  0.
         25    1    3    3    0    0 -0.76533658373E+02  0.74341308657E+01  0.81717778603E+02  0.16804157404E+03  0.12509000000E+03 0.  0.
         25    1    3    3    0    0  0.42130763913E+02  0.59118947086E+02  0.16025220612E+03  0.21586646066E+03  0.12509000000E+03 0.  0.
         25    1    3    3    0    0  0.34402894460E+02 -0.66553077952E+02  0.20668195560E+03  0.25293835257E+03  0.12509000000E+03 0.  0.
<mgrwt>
<rscale>  2 0.45197871E+03</rscale>
<asrwt>0</asrwt>
<pdfrwt beam="1">  1       21 0.79816052E-01 0.45197871E+03</pdfrwt>
<pdfrwt beam="2">  1       21 0.13837827E-01 0.45197871E+03</pdfrwt>
<totfact> 0.57832397E+04</totfact>
</mgrwt>
</event>
<event>
 6    0  0.1576925E-007  0.4516660E+03  0.7546771E-02  0.1027226E+00
         21   -1    0    0  502  501  0.00000000000E+00  0.00000000000E+00  0.69870791442E+02  0.69870791442E+02  0.00000000000E+00 0. -1.
         21   -1    0    0  501  502 -0.00000000000E+00 -0.00000000000E+00 -0.72992636756E+03  0.72992636756E+03  0.00000000000E+00 0. -1.
      99926    2    1    2    0    0  0.00000000000E+00 -0.10658141036E-13 -0.66005557612E+03  0.79979715901E+03  0.45166595177E+03 0.  0.
         25    1    3    3    0    0 -0.11738099354E+02 -0.71548917535E+02 -0.23470909531E+03  0.27566809409E+03  0.12509000000E+03 0.  0.
         25    1    3    3    0    0 -0.58420530063E+02  0.81056774762E+02 -0.19109711552E+03  0.24929655980E+03  0.12509000000E+03 0.  0.
         25    1    3    3    0    0  0.70158629417E+02 -0.95078572269E+01 -0.23424936529E+03  0.27483250512E+03  0.12509000000E+03 0.  0.
<mgrwt>
<rscale>  2 0.45166595E+03</rscale>
<asrwt>0</asrwt>
<pdfrwt beam="1">  1       21 0.10275117E-01 0.45166595E+03</pdfrwt>
<pdfrwt beam="2">  1       21 0.10734211E+00 0.45166595E+03</pdfrwt>
<totfact> 0.49045361E+04</totfact>
</mgrwt>
</event>
<event>
 6    0  0.1576925E-007  0.4528262E+03  0.7546771E-02  0.1026883E+00
         21   -1    0    0  502  501  0.00000000000E+00  0.00000000000E+00  0.15800618463E+04  0.15800618463E+04  0.00000000000E+00 0. -1.
         21   -1    0    0  501  502 -0.00000000000E+00 -0.00000000000E+00 -0.32443604908E+02  0.32443604908E+02  0.00000000000E+00 0. -1.
      99926    2    1    2    0    0  0.00000000000E+00  0.00000000000E+00  0.15476182414E+04  0.16125054512E+04  0.45282624603E+03 0.  0.
         25    1    3    3    0    0 -0.11700335617E+02  0.50316389888E+02  0.71717912097E+03  0.72983699317E+03  0.12509000000E+03 0.  0.
         25    1    3    3    0    0 -0.68709401386E+02 -0.42167033281E+02  0.45736979135E+03  0.48097159445E+03  0.12509000000E+03 0.  0.
         25    1    3    3    0    0  0.80409737003E+02 -0.81493566071E+01  0.37306932909E+03  0.40169686360E+03  0.12509000000E+03 0.  0.
<mgrwt>
<rscale>  2 0.45282625E+03</rscale>
<asrwt>0</asrwt>
<pdfrwt beam="1">  1       21 0.23236198E+00 0.45282625E+03</pdfrwt>
<pdfrwt beam="2">  1       21 0.47711194E-02 0.45282625E+03</pdfrwt>
<totfact> 0.21509438E+04</totfact>
</mgrwt>
</event>
<event>
 6    0  0.1576925E-007  0.4550359E+03  0.7546771E-02  0.1026231E+00
         21   -1    0    0  502  501  0.00000000000E+00  0.00000000000E+00  0.54210427696E+03  0.54210427696E+03  0.00000000000E+00 0. -1.
         21   -1    0    0  501  502 -0.00000000000E+00 -0.00000000000E+00 -0.95487917232E+02  0.95487917232E+02  0.00000000000E+00 0. -1.
      99926    2    1    2    0    0  0.00000000000E+00  0.00000000000E+00  0.44661635973E+03  0.63759219419E+03  0.45503585938E+03 0.  0.
         25    1    3    3    0    0  0.21854995006E+02 -0.23176401433E+02  0.11489306124E+03  0.17280830423E+03  0.12509000000E+03 0.  0.
         25    1    3    3    0    0  0.52858322665E+02 -0.69064363750E+02  0.17139990607E+03  0.22932362398E+03  0.12509000000E+03 0.  0.
         25    1    3    3    0    0 -0.74713317671E+02  0.92240765183E+02  0.16032339243E+03  0.23546026599E+03  0.12509000000E+03 0.  0.
<mgrwt>
<rscale>  2 0.45503586E+03</rscale>
<asrwt>0</asrwt>
<pdfrwt beam="1">  1       21 0.79721216E-01 0.45503586E+03</pdfrwt>
<pdfrwt beam="2">  1       21 0.14042341E-01 0.45503586E+03</pdfrwt>
<totfact> 0.56406058E+04</totfact>
</mgrwt>
</event>
<event>
 6    0  0.1576925E-007  0.4793596E+03  0.7546771E-02  0.1019311E+00
         21   -1    0    0  502  501  0.00000000000E+00  0.00000000000E+00  0.24687191796E+04  0.24687191796E+04  0.00000000000E+00 0. -1.
         21   -1    0    0  501  502 -0.00000000000E+00 -0.00000000000E+00 -0.23269725607E+02  0.23269725607E+02  0.00000000000E+00 0. -1.
      99926    2    1    2    0    0  0.00000000000E+00  0.00000000000E+00  0.24454494540E+04  0.24919889052E+04  0.47935964749E+03 0.  0.
         25    1    3    3    0    0 -0.91173586535E+02 -0.87483066397E+02  0.89456545460E+03  0.91206401664E+03  0.12509000000E+03 0.  0.
         25    1    3    3    0    0 -0.61387429370E+01  0.54806443189E+02  0.60061762032E+03  0.61597927264E+03  0.12509000000E+03 0.  0.
         25    1    3    3    0    0  0.97312329472E+02  0.32676623208E+02  0.95026637910E+03  0.96394561596E+03  0.12509000000E+03 0.  0.
<mgrwt>
<rscale>  2 0.47935965E+03</rscale>
<asrwt>0</asrwt>
<pdfrwt beam="1">  1       21 0.36304676E+00 0.47935965E+03</pdfrwt>
<pdfrwt beam="2">  1       21 0.34220202E-02 0.47935965E+03</pdfrwt>
<totfact> 0.59957756E+03</totfact>
</mgrwt>
</event>
<event>
 6    0  0.1576925E-007  0.4527927E+03  0.7546771E-02  0.1026893E+00
         21   -1    0    0  502  501  0.00000000000E+00  0.00000000000E+00  0.91719471915E+02  0.91719471915E+02  0.00000000000E+00 0. -1.
         21   -1    0    0  501  502 -0.00000000000E+00 -0.00000000000E+00 -0.55882679332E+03  0.55882679332E+03  0.00000000000E+00 0. -1.
      99926    2    1    2    0    0  0.71054273576E-14  0.00000000000E+00 -0.46710732141E+03  0.65054626524E+03  0.45279266061E+03 0.  0.
         25    1    3    3    0    0  0.41035103832E+02  0.26094515648E+02 -0.24685677725E+03  0.28098145858E+03  0.12509000000E+03 0.  0.
         25    1    3    3    0    0  0.50567873471E+02  0.16279351425E+02 -0.10634814820E+03  0.17256756310E+03  0.12509000000E+03 0.  0.
         25    1    3    3    0    0 -0.91602977303E+02 -0.42373867073E+02 -0.11390239596E+03  0.19699724355E+03  0.12509000000E+03 0.  0.
<mgrwt>
<rscale>  2 0.45279266E+03</rscale>
<asrwt>0</asrwt>
<pdfrwt beam="1">  1       21 0.13488158E-01 0.45279266E+03</pdfrwt>
<pdfrwt beam="2">  1       21 0.82180410E-01 0.45279266E+03</pdfrwt>
<totfact> 0.56650051E+04</totfact>
</mgrwt>
</event>
<event>
 6    0  0.1576925E-007  0.4533111E+03  0.7546771E-02  0.1026739E+00
         21   -1    0    0  502  501  0.00000000000E+00  0.00000000000E+00  0.33071462032E+03  0.33071462032E+03  0.00000000000E+00 0. -1.
         21   -1    0    0  501  502 -0.00000000000E+00 -0.00000000000E+00 -0.15533858809E+03  0.15533858809E+03  0.00000000000E+00 0. -1.
      99926    2    1    2    0    0  0.00000000000E+00  0.00000000000E+00  0.17537603223E+03  0.48605320841E+03  0.45331111692E+03 0.  0.
         25    1    3    3    0    0  0.98198083239E+02 -0.41562925035E+00  0.15000344934E+02  0.15973589061E+03  0.12509000000E+03 0.  0.
         25    1    3    3    0    0 -0.49223340215E+02  0.46299789001E+02  0.83480993982E+02  0.16487326084E+03  0.12509000000E+03 0.  0.
         25    1    3    3    0    0 -0.48974743024E+02 -0.45884159750E+02  0.76894693312E+02  0.16144405697E+03  0.12509000000E+03 0.  0.
<mgrwt>
<rscale>  2 0.45331112E+03</rscale>
<asrwt>0</asrwt>
<pdfrwt beam="1">  1       21 0.48634503E-01 0.45331112E+03</pdfrwt>
<pdfrwt beam="2">  1       21 0.22843910E-01 0.45331112E+03</pdfrwt>
<totfact> 0.67157944E+04</totfact>
</mgrwt>
</event>
<event>
 6    0  0.1576925E-007  0.4559597E+03  0.7546771E-02  0.1025960E+00
         21   -1    0    0  502  501  0.00000000000E+00  0.00000000000E+00  0.12307858092E+04  0.12307858092E+04  0.00000000000E+00 0. -1.
         21   -1    0    0  501  502 -0.00000000000E+00 -0.00000000000E+00 -0.42228967545E+02  0.42228967545E+02  0.00000000000E+00 0. -1.
      99926    2    1    2    0    0  0.00000000000E+00 -0.71054273576E-14  0.11885568417E+04  0.12730147768E+04  0.45595970872E+03 0.  0.
         25    1    3    3    0    0  0.85301713621E+02 -0.33500076177E+00  0.56951465460E+03  0.58929699174E+03  0.12509000000E+03 0.  0.
         25    1    3    3    0    0 -0.51030198944E+02  0.39290177674E+02  0.42028834051E+03  0.44321281179E+03  0.12509000000E+03 0.  0.
         25    1    3    3    0    0 -0.34271514677E+02 -0.38955176912E+02  0.19875384658E+03  0.24050497324E+03  0.12509000000E+03 0.  0.
<mgrwt>
<rscale>  2 0.45595971E+03</rscale>
<asrwt>0</asrwt>
<pdfrwt beam="1">  1       21 0.18099789E+00 0.45595971E+03</pdfrwt>
<pdfrwt beam="2">  1       21 0.62101431E-02 0.45595971E+03</pdfrwt>
<totfact> 0.29686269E+04</totfact>
</mgrwt>
</event>
<event>
 6    0  0.1576925E-007  0.4648737E+03  0.7546771E-02  0.1023377E+00
         21   -1    0    0  502  501  0.00000000000E+00  0.00000000000E+00  0.54301556340E+03  0.54301556340E+03  0.00000000000E+00 0.  1.
         21   -1    0    0  501  502 -0.00000000000E+00 -0.00000000000E+00 -0.99494173306E+02  0.99494173306E+02  0.00000000000E+00 0.  1.
      99926    2    1    2    0    0  0.00000000000E+00  0.00000000000E+00  0.44352139009E+03  0.64250973670E+03  0.46487367993E+03 0.  0.
         25    1    3    3    0    0 -0.45323525196E+02 -0.50152391113E+02  0.13687009053E+03  0.19735859255E+03  0.12509000000E+03 0.  0.
         25    1    3    3    0    0 -0.66050171988E+02  0.58455684220E+02  0.17070923749E+03  0.22927896568E+03  0.12509000000E+03 0.  0.
         25    1    3    3    0    0  0.11137369718E+03 -0.83032931066E+01  0.13594206207E+03  0.21587217848E+03  0.12509000000E+03 0.  0.
<mgrwt>
<rscale>  2 0.46487368E+03</rscale>
<asrwt>0</asrwt>
<pdfrwt beam="1">  1       21 0.79855228E-01 0.46487368E+03</pdfrwt>
<pdfrwt beam="2">  1       21 0.14631496E-01 0.46487368E+03</pdfrwt>
<totfact> 0.51966043E+04</totfact>
</mgrwt>
</event>
<event>
 6    0  0.1576925E-007  0.4488047E+03  0.7546771E-02  0.1028079E+00
         21   -1    0    0  502  501  0.00000000000E+00  0.00000000000E+00  0.13534745655E+04  0.13534745655E+04  0.00000000000E+00 0.  1.
         21   -1    0    0  501  502 -0.00000000000E+00 -0.00000000000E+00 -0.37205289336E+02  0.37205289336E+02  0.00000000000E+00 0.  1.
      99926    2    1    2    0    0  0.00000000000E+00  0.00000000000E+00  0.13162692762E+04  0.13906798548E+04  0.44880469168E+03 0.  0.
         25    1    3    3    0    0  0.37744995027E+02  0.16379038483E+02  0.50200817631E+03  0.51899197945E+03  0.12509000000E+03 0.  0.
         25    1    3    3    0    0 -0.63486339436E+01 -0.34198538636E+01  0.15259672767E+03  0.19744687880E+03  0.12509000000E+03 0.  0.
         25    1    3    3    0    0 -0.31396361083E+02 -0.12959184620E+02  0.66166437219E+03  0.67424099659E+03  0.12509000000E+03 0.  0.
<mgrwt>
<rscale>  2 0.44880469E+03</rscale>
<asrwt>0</asrwt>
<pdfrwt beam="1">  1       21 0.19904034E+00 0.44880469E+03</pdfrwt>
<pdfrwt beam="2">  1       21 0.54713670E-02 0.44880469E+03</pdfrwt>
<totfact> 0.27900800E+04</totfact>
</mgrwt>
</event>
<event>
 6    0  0.1576925E-007  0.4692929E+03  0.7546771E-02  0.1022120E+00
         21   -1    0    0  502  501  0.00000000000E+00  0.00000000000E+00  0.55999705999E+03  0.55999705999E+03  0.00000000000E+00 0.  1.
         21   -1    0    0  501  502 -0.00000000000E+00 -0.00000000000E+00 -0.98320099842E+02  0.98320099842E+02  0.00000000000E+00 0.  1.
      99926    2    1    2    0    0  0.00000000000E+00  0.71054273576E-14  0.46167696015E+03  0.65831715983E+03  0.46929294412E+03 0.  0.
         25    1    3    3    0    0 -0.40740704715E+02  0.61131335797E+02  0.35812203256E+02  0.14942177632E+03  0.12509000000E+03 0.  0.
         25    1    3    3    0    0 -0.27371477969E+02 -0.38705748781E+02  0.22214166697E+03  0.25931016389E+03  0.12509000000E+03 0.  0.
         25    1    3    3    0    0  0.68112182684E+02 -0.22425587016E+02  0.20372308992E+03  0.24958521962E+03  0.12509000000E+03 0.  0.
<mgrwt>
<rscale>  2 0.46929294E+03</rscale>
<asrwt>0</asrwt>
<pdfrwt beam="1">  1       21 0.82352507E-01 0.46929294E+03</pdfrwt>
<pdfrwt beam="2">  1       21 0.14458838E-01 0.46929294E+03</pdfrwt>
<totfact> 0.49413835E+04</totfact>
</mgrwt>
</event>
<event>
 6    0  0.1576925E-007  0.4566186E+03  0.7546771E-02  0.1025766E+00
         21   -1    0    0  502  501  0.00000000000E+00  0.00000000000E+00  0.74420769774E+02  0.74420769774E+02  0.00000000000E+00 0.  1.
         21   -1    0    0  501  502 -0.00000000000E+00 -0.00000000000E+00 -0.70041126900E+03  0.70041126900E+03  0.00000000000E+00 0.  1.
      99926    2    1    2    0    0  0.00000000000E+00  0.71054273576E-14 -0.62599049923E+03  0.77483203878E+03  0.45661864087E+03 0.  0.
         25    1    3    3    0    0 -0.57056850045E+02  0.55767697628E+02 -0.30224333173E+03  0.33669579729E+03  0.12509000000E+03 0.  0.
         25    1    3    3    0    0  0.34351486594E+02  0.39321835597E+02 -0.16625281720E+03  0.21450813204E+03  0.12509000000E+03 0.  0.
         25    1    3    3    0    0  0.22705363451E+02 -0.95089533224E+02 -0.15749435030E+03  0.22362810944E+03  0.12509000000E+03 0.  0.
<mgrwt>
<rscale>  2 0.45661864E+03</rscale>
<asrwt>0</asrwt>
<pdfrwt beam="1">  1       21 0.10944231E-01 0.45661864E+03</pdfrwt>
<pdfrwt beam="2">  1       21 0.10300166E+00 0.45661864E+03</pdfrwt>
<totfact> 0.48388512E+04</totfact>
</mgrwt>
</event>
<event>
 6    0  0.1576925E-007  0.4441290E+03  0.7546771E-02  0.1029487E+00
         21   -1    0    0  502  501  0.00000000000E+00  0.00000000000E+00  0.51333492443E+03  0.51333492443E+03  0.00000000000E+00 0.  1.
         21   -1    0    0  501  502 -0.00000000000E+00 -0.00000000000E+00 -0.96063280648E+02  0.96063280648E+02  0.00000000000E+00 0.  1.
      99926    2    1    2    0    0  0.00000000000E+00  0.00000000000E+00  0.41727164378E+03  0.60939820508E+03  0.44412897637E+03 0.  0.
         25    1    3    3    0    0  0.58488974081E+01  0.89345209327E+02  0.21279885557E+03  0.26257882067E+03  0.12509000000E+03 0.  0.
         25    1    3    3    0    0 -0.46581154702E+02 -0.37085489712E+02  0.10410205286E+03  0.17329132416E+03  0.12509000000E+03 0.  0.
         25    1    3    3    0    0  0.40732257294E+02 -0.52259719615E+02  0.10037073535E+03  0.17352806025E+03  0.12509000000E+03 0.  0.
<mgrwt>
<rscale>  2 0.44412898E+03</rscale>
<asrwt>0</asrwt>
<pdfrwt beam="1">  1       21 0.75490428E-01 0.44412898E+03</pdfrwt>
<pdfrwt beam="2">  1       21 0.14126953E-01 0.44412898E+03</pdfrwt>
<totfact> 0.63372193E+04</totfact>
</mgrwt>
</event>
<event>
 6    0  0.1576925E-007  0.4534418E+03  0.7546771E-02  0.1026701E+00
         21   -1    0    0  502  501  0.00000000000E+00  0.00000000000E+00  0.43852180954E+03  0.43852180954E+03  0.00000000000E+00 0.  1.
         21   -1    0    0  501  502 -0.00000000000E+00 -0.00000000000E+00 -0.11721733071E+03  0.11721733071E+03  0.00000000000E+00 0.  1.
      99926    2    1    2    0    0  0.00000000000E+00  0.14210854715E-13  0.32130447882E+03  0.55573914025E+03  0.45344175359E+03 0.  0.
         25    1    3    3    0    0 -0.17839248489E+02  0.17966894855E+02  0.94886934290E+02  0.15903485937E+03  0.12509000000E+03 0.  0.
         25    1    3    3    0    0  0.46489721923E+02 -0.10317643858E+03  0.14516259840E+03  0.22254518597E+03  0.12509000000E+03 0.  0.
         25    1    3    3    0    0 -0.28650473434E+02  0.85209543720E+02  0.81254946127E+02  0.17415909491E+03  0.12509000000E+03 0.  0.
<mgrwt>
<rscale>  2 0.45344175E+03</rscale>
<asrwt>0</asrwt>
<pdfrwt beam="1">  1       21 0.64488501E-01 0.45344175E+03</pdfrwt>
<pdfrwt beam="2">  1       21 0.17237843E-01 0.45344175E+03</pdfrwt>
<totfact> 0.62252689E+04</totfact>
</mgrwt>
</event>
<event>
 6    0  0.1576925E-007  0.4593088E+03  0.7546771E-02  0.1024982E+00
         21   -1    0    0  502  501  0.00000000000E+00  0.00000000000E+00  0.25070378374E+03  0.25070378374E+03  0.00000000000E+00 0.  1.
         21   -1    0    0  501  502 -0.00000000000E+00 -0.00000000000E+00 -0.21037236685E+03  0.21037236685E+03  0.00000000000E+00 0.  1.
      99926    2    1    2    0    0  0.00000000000E+00  0.00000000000E+00  0.40331416884E+02  0.46107615059E+03  0.45930882144E+03 0.  0.
         25    1    3    3    0    0 -0.56450823580E+02 -0.83489008496E+02 -0.25140814368E+02  0.16259359972E+03  0.12509000000E+03 0.  0.
         25    1    3    3    0    0 -0.12433822715E+02  0.11511304762E+02  0.14902604464E+01  0.12624119399E+03  0.12509000000E+03 0.  0.
         25    1    3    3    0    0  0.68884646295E+02  0.71977703734E+02  0.63981970806E+02  0.17224135688E+03  0.12509000000E+03 0.  0.
<mgrwt>
<rscale>  2 0.45930882E+03</rscale>
<asrwt>0</asrwt>
<pdfrwt beam="1">  1       21 0.36868203E-01 0.45930882E+03</pdfrwt>
<pdfrwt beam="2">  1       21 0.30937113E-01 0.45930882E+03</pdfrwt>
<totfact> 0.65811189E+04</totfact>
</mgrwt>
</event>
<event>
 6    0  0.1576925E-007  0.4572559E+03  0.7546771E-02  0.1025580E+00
         21   -1    0    0  502  501  0.00000000000E+00  0.00000000000E+00  0.20570817368E+03  0.20570817368E+03  0.00000000000E+00 0. -1.
         21   -1    0    0  501  502 -0.00000000000E+00 -0.00000000000E+00 -0.25410144190E+03  0.25410144190E+03  0.00000000000E+00 0. -1.
      99926    2    1    2    0    0  0.00000000000E+00 -0.35527136788E-14 -0.48393268219E+02  0.45980961557E+03  0.45725591758E+03 0.  0.
         25    1    3    3    0    0 -0.11481002833E+02 -0.38765999051E+02 -0.10547816317E+03  0.16854603856E+03  0.12509000000E+03 0.  0.
         25    1    3    3    0    0 -0.23489535831E+02 -0.12873602288E+02  0.78152933295E+02  0.14990956278E+03  0.12509000000E+03 0.  0.
         25    1    3    3    0    0  0.34970538664E+02  0.51639601339E+02 -0.21068038341E+02  0.14135401424E+03  0.12509000000E+03 0.  0.
<mgrwt>
<rscale>  2 0.45725592E+03</rscale>
<asrwt>0</asrwt>
<pdfrwt beam="1">  1       21 0.30251202E-01 0.45725592E+03</pdfrwt>
<pdfrwt beam="2">  1       21 0.37367859E-01 0.45725592E+03</pdfrwt>
<totfact> 0.66981110E+04</totfact>
</mgrwt>
</event>
<event>
 6    0  0.1576925E-007  0.4573795E+03  0.7546771E-02  0.1025544E+00
         21   -1    0    0  502  501  0.00000000000E+00  0.00000000000E+00  0.25221782171E+03  0.25221782171E+03  0.00000000000E+00 0. -1.
         21   -1    0    0  501  502 -0.00000000000E+00 -0.00000000000E+00 -0.20735647426E+03  0.20735647426E+03  0.00000000000E+00 0. -1.
      99926    2    1    2    0    0 -0.71054273576E-14  0.71054273576E-14  0.44861347450E+02  0.45957429596E+03  0.45737948469E+03 0.  0.
         25    1    3    3    0    0 -0.58027422532E+02  0.89420523205E+02  0.60694837253E+02  0.17519869607E+03  0.12509000000E+03 0.  0.
         25    1    3    3    0    0  0.17107711667E+00 -0.54492403756E+02  0.19608694547E+02  0.13784578462E+03  0.12509000000E+03 0.  0.
         25    1    3    3    0    0  0.57856345416E+02 -0.34928119449E+02 -0.35442184350E+02  0.14652981528E+03  0.12509000000E+03 0.  0.
<mgrwt>
<rscale>  2 0.45737948E+03</rscale>
<asrwt>0</asrwt>
<pdfrwt beam="1">  1       21 0.37090856E-01 0.45737948E+03</pdfrwt>
<pdfrwt beam="2">  1       21 0.30493599E-01 0.45737948E+03</pdfrwt>
<totfact> 0.66932215E+04</totfact>
</mgrwt>
</event>
<event>
 6    0  0.1576925E-007  0.4525068E+03  0.7546771E-02  0.1026977E+00
         21   -1    0    0  502  501  0.00000000000E+00  0.00000000000E+00  0.43748383070E+03  0.43748383070E+03  0.00000000000E+00 0.  1.
         21   -1    0    0  501  502 -0.00000000000E+00 -0.00000000000E+00 -0.11701141175E+03  0.11701141175E+03  0.00000000000E+00 0.  1.
      99926    2    1    2    0    0  0.00000000000E+00  0.00000000000E+00  0.32047241895E+03  0.55449524245E+03  0.45250679839E+03 0.  0.
         25    1    3    3    0    0  0.31357091053E+01 -0.65459509612E+02  0.98345781658E+02  0.17208771293E+03  0.12509000000E+03 0.  0.
         25    1    3    3    0    0  0.21687530618E+02  0.10424144933E+03  0.65773948957E+02  0.17694730629E+03  0.12509000000E+03 0.  0.
         25    1    3    3    0    0 -0.24823239724E+02 -0.38781939720E+02  0.15635268834E+03  0.20546022323E+03  0.12509000000E+03 0.  0.
<mgrwt>
<rscale>  2 0.45250680E+03</rscale>
<asrwt>0</asrwt>
<pdfrwt beam="1">  1       21 0.64335857E-01 0.45250680E+03</pdfrwt>
<pdfrwt beam="2">  1       21 0.17207561E-01 0.45250680E+03</pdfrwt>
<totfact> 0.62799943E+04</totfact>
</mgrwt>
</event>
<event>
 6    0  0.1576925E-007  0.4586417E+03  0.7546771E-02  0.1025176E+00
         21   -1    0    0  502  501  0.00000000000E+00  0.00000000000E+00  0.61234009434E+03  0.61234009434E+03  0.00000000000E+00 0.  1.
         21   -1    0    0  501  502 -0.00000000000E+00 -0.00000000000E+00 -0.85880459671E+02  0.85880459671E+02  0.00000000000E+00 0.  1.
      99926    2    1    2    0    0  0.00000000000E+00  0.00000000000E+00  0.52645963466E+03  0.69822055401E+03  0.45864168488E+03 0.  0.
         25    1    3    3    0    0  0.78603524437E+02 -0.87212771250E+01  0.18955216343E+03  0.24048306695E+03  0.12509000000E+03 0.  0.
         25    1    3    3    0    0 -0.55457927340E+02 -0.37122899559E+02  0.69085505383E+02  0.15771495341E+03  0.12509000000E+03 0.  0.
         25    1    3    3    0    0 -0.23145597097E+02  0.45844176684E+02  0.26782196585E+03  0.30002253364E+03  0.12509000000E+03 0.  0.
<mgrwt>
<rscale>  2 0.45864168E+03</rscale>
<asrwt>0</asrwt>
<pdfrwt beam="1">  1       21 0.90050012E-01 0.45864168E+03</pdfrwt>
<pdfrwt beam="2">  1       21 0.12629480E-01 0.45864168E+03</pdfrwt>
<totfact> 0.51507473E+04</totfact>
</mgrwt>
</event>
<event>
 6    0  0.1576925E-007  0.4535975E+03  0.7546771E-02  0.1026655E+00
         21   -1    0    0  502  501  0.00000000000E+00  0.00000000000E+00  0.41188986432E+03  0.41188986432E+03  0.00000000000E+00 0. -1.
         21   -1    0    0  501  502 -0.00000000000E+00 -0.00000000000E+00 -0.12488209354E+03  0.12488209354E+03  0.00000000000E+00 0. -1.
      99926    2    1    2    0    0  0.00000000000E+00  0.14210854715E-13  0.28700777078E+03  0.53677195786E+03  0.45359748044E+03 0.  0.
         25    1    3    3    0    0 -0.37610036021E+02  0.19344072077E+02  0.98904288702E+02  0.16497961801E+03  0.12509000000E+03 0.  0.
         25    1    3    3    0    0  0.54378450359E+02  0.46159402224E+02  0.10642428309E+02  0.14439001232E+03  0.12509000000E+03 0.  0.
         25    1    3    3    0    0 -0.16768414338E+02 -0.65503474301E+02  0.17746105377E+03  0.22740232754E+03  0.12509000000E+03 0.  0.
<mgrwt>
<rscale>  2 0.45359748E+03</rscale>
<asrwt>0</asrwt>
<pdfrwt beam="1">  1       21 0.60572039E-01 0.45359748E+03</pdfrwt>
<pdfrwt beam="2">  1       21 0.18365014E-01 0.45359748E+03</pdfrwt>
<totfact> 0.63450580E+04</totfact>
</mgrwt>
</event>
<event>
 6    0  0.1576925E-007  0.4490280E+03  0.7546771E-02  0.1028012E+00
         21   -1    0    0  502  501  0.00000000000E+00  0.00000000000E+00  0.40908651565E+03  0.40908651565E+03  0.00000000000E+00 0. -1.
         21   -1    0    0  501  502 -0.00000000000E+00 -0.00000000000E+00 -0.12321732575E+03  0.12321732575E+03  0.00000000000E+00 0. -1.
      99926    2    1    2    0    0  0.00000000000E+00  0.46629367034E-14  0.28586918990E+03  0.53230384140E+03  0.44902804572E+03 0.  0.
         25    1    3    3    0    0 -0.70700898582E+02  0.12460766118E+01  0.29716886953E+02  0.14673367452E+03  0.12509000000E+03 0.  0.
         25    1    3    3    0    0  0.82924905294E+01 -0.40023675885E+02  0.68438031200E+02  0.14833048320E+03  0.12509000000E+03 0.  0.
         25    1    3    3    0    0  0.62408408053E+02  0.38777599273E+02  0.18771427174E+03  0.23723968369E+03  0.12509000000E+03 0.  0.
<mgrwt>
<rscale>  2 0.44902805E+03</rscale>
<asrwt>0</asrwt>
<pdfrwt beam="1">  1       21 0.60159781E-01 0.44902805E+03</pdfrwt>
<pdfrwt beam="2">  1       21 0.18120195E-01 0.44902805E+03</pdfrwt>
<totfact> 0.66121861E+04</totfact>
</mgrwt>
</event>
<event>
 6    0  0.1576925E-007  0.4533427E+03  0.7546771E-02  0.1026730E+00
         21   -1    0    0  502  501  0.00000000000E+00  0.00000000000E+00  0.27024472056E+03  0.27024472056E+03  0.00000000000E+00 0. -1.
         21   -1    0    0  501  502 -0.00000000000E+00 -0.00000000000E+00 -0.19012364492E+03  0.19012364492E+03  0.00000000000E+00 0. -1.
      99926    2    1    2    0    0  0.00000000000E+00  0.35527136788E-14  0.80121075631E+02  0.46036836548E+03  0.45334274581E+03 0.  0.
         25    1    3    3    0    0 -0.78489054622E+02  0.15398481985E+02  0.13698817274E+02  0.14910670890E+03  0.12509000000E+03 0.  0.
         25    1    3    3    0    0 -0.27079670965E+02 -0.39313520882E+02  0.57162835905E+02  0.14558145284E+03  0.12509000000E+03 0.  0.
         25    1    3    3    0    0  0.10556872559E+03  0.23915038897E+02  0.92594224530E+01  0.16568020374E+03  0.12509000000E+03 0.  0.
<mgrwt>
<rscale>  2 0.45334275E+03</rscale>
<asrwt>0</asrwt>
<pdfrwt beam="1">  1       21 0.39741871E-01 0.45334275E+03</pdfrwt>
<pdfrwt beam="2">  1       21 0.27959359E-01 0.45334275E+03</pdfrwt>
<totfact> 0.69060645E+04</totfact>
</mgrwt>
</event>
<event>
 6    0  0.1576925E-007  0.4470012E+03  0.7546771E-02  0.1028620E+00
         21   -1    0    0  502  501  0.00000000000E+00  0.00000000000E+00  0.10582057126E+03  0.10582057126E+03  0.00000000000E+00 0.  1.
         21   -1    0    0  501  502 -0.00000000000E+00 -0.00000000000E+00 -0.47204918555E+03  0.47204918555E+03  0.00000000000E+00 0.  1.
      99926    2    1    2    0    0  0.00000000000E+00  0.00000000000E+00 -0.36622861429E+03  0.57786975681E+03  0.44700118334E+03 0.  0.
         25    1    3    3    0    0  0.77896705454E+02 -0.33087364564E+02 -0.10068752706E+03  0.18151627095E+03  0.12509000000E+03 0.  0.
         25    1    3    3    0    0 -0.70432016206E+02  0.53042842390E+02 -0.20482143070E+03  0.25568249571E+03  0.12509000000E+03 0.  0.
         25    1    3    3    0    0 -0.74646892489E+01 -0.19955477826E+02 -0.60719656528E+02  0.14067099015E+03  0.12509000000E+03 0.  0.
<mgrwt>
<rscale>  2 0.44700118E+03</rscale>
<asrwt>0</asrwt>
<pdfrwt beam="1">  1       21 0.15561849E-01 0.44700118E+03</pdfrwt>
<pdfrwt beam="2">  1       21 0.69418997E-01 0.44700118E+03</pdfrwt>
<totfact> 0.64014703E+04</totfact>
</mgrwt>
</event>
<event>
 6    0  0.1576925E-007  0.4498741E+03  0.7546771E-02  0.1027760E+00
         21   -1    0    0  502  501  0.00000000000E+00  0.00000000000E+00  0.23937406776E+03  0.23937406776E+03  0.00000000000E+00 0. -1.
         21   -1    0    0  501  502 -0.00000000000E+00 -0.00000000000E+00 -0.21137078130E+03  0.21137078130E+03  0.00000000000E+00 0. -1.
      99926    2    1    2    0    0 -0.71054273576E-14  0.71054273576E-14  0.28003286457E+02  0.45074484905E+03  0.44987413228E+03 0.  0.
         25    1    3    3    0    0 -0.30552635770E+02  0.67830255412E+02 -0.20513404548E+02  0.14697862079E+03  0.12509000000E+03 0.  0.
         25    1    3    3    0    0  0.49330497209E+02 -0.52602121843E+02 -0.38558384055E+02  0.14944811226E+03  0.12509000000E+03 0.  0.
         25    1    3    3    0    0 -0.18777861439E+02 -0.15228133569E+02  0.87075075059E+02  0.15431811601E+03  0.12509000000E+03 0.  0.
<mgrwt>
<rscale>  2 0.44987413E+03</rscale>
<asrwt>0</asrwt>
<pdfrwt beam="1">  1       21 0.35202069E-01 0.44987413E+03</pdfrwt>
<pdfrwt beam="2">  1       21 0.31083938E-01 0.44987413E+03</pdfrwt>
<totfact> 0.71748482E+04</totfact>
</mgrwt>
</event>
<event>
 6    0  0.1576925E-007  0.4486369E+03  0.7546771E-02  0.1028129E+00
         21   -1    0    0  502  501  0.00000000000E+00  0.00000000000E+00  0.61981058348E+03  0.61981058348E+03  0.00000000000E+00 0.  1.
         21   -1    0    0  501  502 -0.00000000000E+00 -0.00000000000E+00 -0.81184120876E+02  0.81184120876E+02  0.00000000000E+00 0.  1.
      99926    2    1    2    0    0 -0.71054273576E-14  0.26645352591E-14  0.53862646260E+03  0.70099470435E+03  0.44863694600E+03 0.  0.
         25    1    3    3    0    0 -0.14052874728E+01 -0.45441172212E+02  0.66054158642E+02  0.14858511008E+03  0.12509000000E+03 0.  0.
         25    1    3    3    0    0 -0.55430169452E+02  0.49743067931E+02  0.20293659692E+03  0.24975517405E+03  0.12509000000E+03 0.  0.
         25    1    3    3    0    0  0.56835456924E+02 -0.43018957191E+01  0.26963570703E+03  0.30265442022E+03  0.12509000000E+03 0.  0.
<mgrwt>
<rscale>  2 0.44863695E+03</rscale>
<asrwt>0</asrwt>
<pdfrwt beam="1">  1       21 0.91148613E-01 0.44863695E+03</pdfrwt>
<pdfrwt beam="2">  1       21 0.11938842E-01 0.44863695E+03</pdfrwt>
<totfact> 0.55580248E+04</totfact>
</mgrwt>
</event>
<event>
 6    0  0.1576925E-007  0.4482860E+03  0.7546771E-02  0.1028234E+00
         21   -1    0    0  502  501  0.00000000000E+00  0.00000000000E+00  0.21751551965E+03  0.21751551965E+03  0.00000000000E+00 0.  1.
         21   -1    0    0  501  502 -0.00000000000E+00 -0.00000000000E+00 -0.23097239396E+03  0.23097239396E+03  0.00000000000E+00 0.  1.
      99926    2    1    2    0    0  0.35527136788E-14 -0.35527136788E-14 -0.13456874308E+02  0.44848791360E+03  0.44828598147E+03 0.  0.
         25    1    3    3    0    0  0.48694487086E+02 -0.18566286332E+02  0.77909686070E+02  0.15631150740E+03  0.12509000000E+03 0.  0.
         25    1    3    3    0    0 -0.69810051699E+02  0.31589724309E+00 -0.78542596958E+02  0.16337071569E+03  0.12509000000E+03 0.  0.
         25    1    3    3    0    0  0.21115564613E+02  0.18250389089E+02 -0.12823963420E+02  0.12880569051E+03  0.12509000000E+03 0.  0.
<mgrwt>
<rscale>  2 0.44828598E+03</rscale>
<asrwt>0</asrwt>
<pdfrwt beam="1">  1       21 0.31987577E-01 0.44828598E+03</pdfrwt>
<pdfrwt beam="2">  1       21 0.33966528E-01 0.44828598E+03</pdfrwt>
<totfact> 0.72850665E+04</totfact>
</mgrwt>
</event>
<event>
 6    0  0.1576925E-007  0.4666314E+03  0.7546771E-02  0.1022875E+00
         21   -1    0    0  502  501  0.00000000000E+00  0.00000000000E+00  0.10120679051E+03  0.10120679051E+03  0.00000000000E+00 0. -1.
         21   -1    0    0  501  502 -0.00000000000E+00 -0.00000000000E+00 -0.53787125116E+03  0.53787125116E+03  0.00000000000E+00 0. -1.
      99926    2    1    2    0    0  0.71054273576E-14  0.00000000000E+00 -0.43666446065E+03  0.63907804167E+03  0.46663143073E+03 0.  0.
         25    1    3    3    0    0  0.43567998253E+02 -0.79491157996E+01 -0.11119411101E+03  0.17312711324E+03  0.12509000000E+03 0.  0.
         25    1    3    3    0    0 -0.50005529967E+01  0.57767454394E+01 -0.11585196162E+02  0.12585746378E+03  0.12509000000E+03 0.  0.
         25    1    3    3    0    0 -0.38567445256E+02  0.21723703603E+01 -0.31388515348E+03  0.34009346465E+03  0.12509000000E+03 0.  0.
<mgrwt>
<rscale>  2 0.46663143E+03</rscale>
<asrwt>0</asrwt>
<pdfrwt beam="1">  1       21 0.14883352E-01 0.46663143E+03</pdfrwt>
<pdfrwt beam="2">  1       21 0.79098713E-01 0.46663143E+03</pdfrwt>
<totfact> 0.51447055E+04</totfact>
</mgrwt>
</event>
<event>
 6    0  0.1576925E-007  0.4488810E+03  0.7546771E-02  0.1028056E+00
         21   -1    0    0  502  501  0.00000000000E+00  0.00000000000E+00  0.13585268152E+03  0.13585268152E+03  0.00000000000E+00 0.  1.
         21   -1    0    0  501  502 -0.00000000000E+00 -0.00000000000E+00 -0.37079529743E+03  0.37079529743E+03  0.00000000000E+00 0.  1.
      99926    2    1    2    0    0  0.00000000000E+00  0.00000000000E+00 -0.23494261591E+03  0.50664797895E+03  0.44888098846E+03 0.  0.
         25    1    3    3    0    0 -0.33772221913E+02 -0.70519251272E+01  0.51754418759E+01  0.12986372057E+03  0.12509000000E+03 0.  0.
         25    1    3    3    0    0  0.71060167250E+02  0.48003658845E+02 -0.14763229214E+03  0.21165231021E+03  0.12509000000E+03 0.  0.
         25    1    3    3    0    0 -0.37287945337E+02 -0.40951733718E+02 -0.92485765637E+02  0.16513194817E+03  0.12509000000E+03 0.  0.
<mgrwt>
<rscale>  2 0.44888099E+03</rscale>
<asrwt>0</asrwt>
<pdfrwt beam="1">  1       21 0.19978335E-01 0.44888099E+03</pdfrwt>
<pdfrwt beam="2">  1       21 0.54528720E-01 0.44888099E+03</pdfrwt>
<totfact> 0.68051237E+04</totfact>
</mgrwt>
</event>
<event>
 6    0  0.1576925E-007  0.4266908E+03  0.7546771E-02  0.1034910E+00
         21   -1    0    0  502  501  0.00000000000E+00  0.00000000000E+00  0.20259673127E+03  0.20259673127E+03  0.00000000000E+00 0.  1.
         21   -1    0    0  501  502 -0.00000000000E+00 -0.00000000000E+00 -0.22466431460E+03  0.22466431460E+03  0.00000000000E+00 0.  1.
      99926    2    1    2    0    0  0.71054273576E-14  0.00000000000E+00 -0.22067583326E+02  0.42726104587E+03  0.42669078158E+03 0.  0.
         25    1    3    3    0    0 -0.66129411795E+02 -0.53041822643E+01 -0.23510661043E+02  0.14353220104E+03  0.12509000000E+03 0.  0.
         25    1    3    3    0    0  0.20890332137E+02 -0.37083998792E+02 -0.40074942630E+02  0.13807656597E+03  0.12509000000E+03 0.  0.
         25    1    3    3    0    0  0.45239079658E+02  0.42388181057E+02  0.41518020347E+02  0.14565227885E+03  0.12509000000E+03 0.  0.
<mgrwt>
<rscale>  2 0.42669078E+03</rscale>
<asrwt>0</asrwt>
<pdfrwt beam="1">  1       21 0.29793637E-01 0.42669078E+03</pdfrwt>
<pdfrwt beam="2">  1       21 0.33038870E-01 0.42669078E+03</pdfrwt>
<totfact> 0.89119633E+04</totfact>
</mgrwt>
</event>
<event>
 6    0  0.1576925E-007  0.4584180E+03  0.7546771E-02  0.1025241E+00
         21   -1    0    0  502  501  0.00000000000E+00  0.00000000000E+00  0.61483882855E+02  0.61483882855E+02  0.00000000000E+00 0.  1.
         21   -1    0    0  501  502 -0.00000000000E+00 -0.00000000000E+00 -0.85448012113E+03  0.85448012113E+03  0.00000000000E+00 0.  1.
      99926    2    1    2    0    0  0.17763568394E-14  0.14210854715E-13 -0.79299623827E+03  0.91596400398E+03  0.45841795632E+03 0.  0.
         25    1    3    3    0    0  0.39090853349E+02  0.48347593226E+02 -0.30936891210E+03  0.33944398133E+03  0.12509000000E+03 0.  0.
         25    1    3    3    0    0 -0.49395571890E+02  0.53080735208E+02 -0.16519736817E+03  0.21953397350E+03  0.12509000000E+03 0.  0.
         25    1    3    3    0    0  0.10304718541E+02 -0.10142832843E+03 -0.31842995800E+03  0.35698604915E+03  0.12509000000E+03 0.  0.
<mgrwt>
<rscale>  2 0.45841796E+03</rscale>
<asrwt>0</asrwt>
<pdfrwt beam="1">  1       21 0.90417481E-02 0.45841796E+03</pdfrwt>
<pdfrwt beam="2">  1       21 0.12565883E+00 0.45841796E+03</pdfrwt>
<totfact> 0.41431102E+04</totfact>
</mgrwt>
</event>
<event>
 6    0  0.1576925E-007  0.4550353E+03  0.7546771E-02  0.1026231E+00
         21   -1    0    0  502  501  0.00000000000E+00  0.00000000000E+00  0.31298461952E+03  0.31298461952E+03  0.00000000000E+00 0.  1.
         21   -1    0    0  501  502 -0.00000000000E+00 -0.00000000000E+00 -0.16538922715E+03  0.16538922715E+03  0.00000000000E+00 0.  1.
      99926    2    1    2    0    0  0.00000000000E+00 -0.71054273576E-14  0.14759539236E+03  0.47837384667E+03  0.45503531438E+03 0.  0.
         25    1    3    3    0    0 -0.33314976559E+02 -0.37445115326E+02 -0.51590878416E+02  0.14429536084E+03  0.12509000000E+03 0.  0.
         25    1    3    3    0    0  0.26365265115E+02 -0.17724472204E+02  0.75125928700E+02  0.14933418022E+03  0.12509000000E+03 0.  0.
         25    1    3    3    0    0  0.69497114439E+01  0.55169587530E+02  0.12406034208E+03  0.18474430561E+03  0.12509000000E+03 0.  0.
<mgrwt>
<rscale>  2 0.45503531E+03</rscale>
<asrwt>0</asrwt>
<pdfrwt beam="1">  1       21 0.46027150E-01 0.45503531E+03</pdfrwt>
<pdfrwt beam="2">  1       21 0.24321945E-01 0.45503531E+03</pdfrwt>
<totfact> 0.66799933E+04</totfact>
</mgrwt>
</event>
<event>
 6    0  0.1576925E-007  0.4588798E+03  0.7546771E-02  0.1025107E+00
         21   -1    0    0  502  501  0.00000000000E+00  0.00000000000E+00  0.13662971663E+04  0.13662971663E+04  0.00000000000E+00 0. -1.
         21   -1    0    0  501  502 -0.00000000000E+00 -0.00000000000E+00 -0.38529436424E+02  0.38529436424E+02  0.00000000000E+00 0. -1.
      99926    2    1    2    0    0 -0.71054273576E-14  0.88817841970E-15  0.13277677299E+04  0.14048266028E+04  0.45887976555E+03 0.  0.
         25    1    3    3    0    0 -0.86591873015E+02  0.47286239725E+02  0.32523224862E+03  0.36215696125E+03  0.12509000000E+03 0.  0.
         25    1    3    3    0    0  0.60770135803E+02  0.71612987032E+01  0.37665793720E+03  0.40157565086E+03  0.12509000000E+03 0.  0.
         25    1    3    3    0    0  0.25821737213E+02 -0.54447538429E+02  0.62587754410E+03  0.64109399066E+03  0.12509000000E+03 0.  0.
<mgrwt>
<rscale>  2 0.45887977E+03</rscale>
<asrwt>0</asrwt>
<pdfrwt beam="1">  1       21 0.20092602E+00 0.45887977E+03</pdfrwt>
<pdfrwt beam="2">  1       21 0.56660945E-02 0.45887977E+03</pdfrwt>
<totfact> 0.25428331E+04</totfact>
</mgrwt>
</event>
<event>
 6    0  0.1576925E-007  0.4532706E+03  0.7546771E-02  0.1026751E+00
         21   -1    0    0  502  501  0.00000000000E+00  0.00000000000E+00  0.15563250819E+03  0.15563250819E+03  0.00000000000E+00 0. -1.
         21   -1    0    0  501  502 -0.00000000000E+00 -0.00000000000E+00 -0.33003108275E+03  0.33003108275E+03  0.00000000000E+00 0. -1.
      99926    2    1    2    0    0  0.57731597281E-14  0.00000000000E+00 -0.17439857456E+03  0.48566359095E+03  0.45327062641E+03 0.  0.
         25    1    3    3    0    0 -0.77183744217E+02  0.18244335825E+02  0.11569126606E+02  0.14856493177E+03  0.12509000000E+03 0.  0.
         25    1    3    3    0    0 -0.26578720656E+01 -0.39388124102E+02 -0.82492959588E+02  0.15495510668E+03  0.12509000000E+03 0.  0.
         25    1    3    3    0    0  0.79841616283E+02  0.21143788278E+02 -0.10347474158E+03  0.18214355250E+03  0.12509000000E+03 0.  0.
<mgrwt>
<rscale>  2 0.45327063E+03</rscale>
<asrwt>0</asrwt>
<pdfrwt beam="1">  1       21 0.22887134E-01 0.45327063E+03</pdfrwt>
<pdfrwt beam="2">  1       21 0.48533982E-01 0.45327063E+03</pdfrwt>
<totfact> 0.67208039E+04</totfact>
</mgrwt>
</event>
<event>
 6    0  0.1576925E-007  0.4559953E+03  0.7546771E-02  0.1025949E+00
         21   -1    0    0  502  501  0.00000000000E+00  0.00000000000E+00  0.18381096849E+03  0.18381096849E+03  0.00000000000E+00 0.  1.
         21   -1    0    0  501  502 -0.00000000000E+00 -0.00000000000E+00 -0.28280640564E+03  0.28280640564E+03  0.00000000000E+00 0.  1.
      99926    2    1    2    0    0 -0.53290705182E-14  0.00000000000E+00 -0.98995437149E+02  0.46661737413E+03  0.45599526013E+03 0.  0.
         25    1    3    3    0    0  0.67542598431E+02  0.52076604837E+02 -0.31971872082E+02  0.15473746824E+03  0.12509000000E+03 0.  0.
         25    1    3    3    0    0 -0.14136074417E+02  0.45658429279E+02 -0.74648447872E+01  0.13411842816E+03  0.12509000000E+03 0.  0.
         25    1    3    3    0    0 -0.53406524014E+02 -0.97735034116E+02 -0.59558720279E+02  0.17776147772E+03  0.12509000000E+03 0.  0.
<mgrwt>
<rscale>  2 0.45599526E+03</rscale>
<asrwt>0</asrwt>
<pdfrwt beam="1">  1       21 0.27031025E-01 0.45599526E+03</pdfrwt>
<pdfrwt beam="2">  1       21 0.41589177E-01 0.45599526E+03</pdfrwt>
<totfact> 0.67156913E+04</totfact>
</mgrwt>
</event>
<event>
 6    0  0.1576925E-007  0.4328952E+03  0.7546771E-02  0.1032949E+00
         21   -1    0    0  502  501  0.00000000000E+00  0.00000000000E+00  0.59204658733E+02  0.59204658733E+02  0.00000000000E+00 0.  1.
         21   -1    0    0  501  502 -0.00000000000E+00 -0.00000000000E+00 -0.79131545212E+03  0.79131545212E+03  0.00000000000E+00 0.  1.
      99926    2    1    2    0    0  0.00000000000E+00  0.35527136788E-14 -0.73211079338E+03  0.85052011085E+03  0.43289518959E+03 0.  0.
         25    1    3    3    0    0  0.64188638590E+02 -0.89931864083E+01 -0.19800207994E+03  0.24300903376E+03  0.12509000000E+03 0.  0.
         25    1    3    3    0    0 -0.20491050131E+02 -0.38068603317E+02 -0.36095927880E+03  0.38445833421E+03  0.12509000000E+03 0.  0.
         25    1    3    3    0    0 -0.43697588459E+02  0.47061789725E+02 -0.17314943464E+03  0.22305274288E+03  0.12509000000E+03 0.  0.
<mgrwt>
<rscale>  2 0.43289519E+03</rscale>
<asrwt>0</asrwt>
<pdfrwt beam="1">  1       21 0.87065680E-02 0.43289519E+03</pdfrwt>
<pdfrwt beam="2">  1       21 0.11636991E+00 0.43289519E+03</pdfrwt>
<totfact> 0.54223067E+04</totfact>
</mgrwt>
</event>
<event>
 6    0  0.1576925E-007  0.4863802E+03  0.7546771E-02  0.1017396E+00
         21   -1    0    0  502  501  0.00000000000E+00  0.00000000000E+00  0.66993956189E+03  0.66993956189E+03  0.00000000000E+00 0.  1.
         21   -1    0    0  501  502 -0.00000000000E+00 -0.00000000000E+00 -0.88278729697E+02  0.88278729697E+02  0.00000000000E+00 0.  1.
      99926    2    1    2    0    0 -0.14210854715E-13 -0.71054273576E-14  0.58166083220E+03  0.75821829159E+03  0.48638015378E+03 0.  0.
         25    1    3    3    0    0 -0.59390359547E+02 -0.17201904469E+02  0.31245264403E+03  0.34219480298E+03  0.12509000000E+03 0.  0.
         25    1    3    3    0    0  0.10551441869E+03  0.59905306647E+02  0.17699160232E+03  0.24838573572E+03  0.12509000000E+03 0.  0.
         25    1    3    3    0    0 -0.46124059146E+02 -0.42703402178E+02  0.92216585845E+02  0.16763775289E+03  0.12509000000E+03 0.  0.
<mgrwt>
<rscale>  2 0.48638015E+03</rscale>
<asrwt>0</asrwt>
<pdfrwt beam="1">  1       21 0.98520521E-01 0.48638015E+03</pdfrwt>
<pdfrwt beam="2">  1       21 0.12982167E-01 0.48638015E+03</pdfrwt>
<totfact> 0.39242706E+04</totfact>
</mgrwt>
</event>
<event>
 6    0  0.1576925E-007  0.4424961E+03  0.7546771E-02  0.1029984E+00
         21   -1    0    0  502  501  0.00000000000E+00  0.00000000000E+00  0.96184802246E+02  0.96184802246E+02  0.00000000000E+00 0. -1.
         21   -1    0    0  501  502 -0.00000000000E+00 -0.00000000000E+00 -0.50892341392E+03  0.50892341392E+03  0.00000000000E+00 0. -1.
      99926    2    1    2    0    0 -0.71054273576E-14 -0.14210854715E-13 -0.41273861168E+03  0.60510821617E+03  0.44249609231E+03 0.  0.
         25    1    3    3    0    0  0.18753854494E+02  0.41103400909E+02 -0.60157288383E+02  0.14597124398E+03  0.12509000000E+03 0.  0.
         25    1    3    3    0    0  0.17399081726E+02  0.49227007969E+02 -0.16767999165E+03  0.21561566283E+03  0.12509000000E+03 0.  0.
         25    1    3    3    0    0 -0.36152936220E+02 -0.90330408878E+02 -0.18490133164E+03  0.24352130935E+03  0.12509000000E+03 0.  0.
<mgrwt>
<rscale>  2 0.44249609E+03</rscale>
<asrwt>0</asrwt>
<pdfrwt beam="1">  1       21 0.14144824E-01 0.44249609E+03</pdfrwt>
<pdfrwt beam="2">  1       21 0.74841676E-01 0.44249609E+03</pdfrwt>
<totfact> 0.64504127E+04</totfact>
</mgrwt>
</event>
<event>
 6    0  0.1576925E-007  0.4551550E+03  0.7546771E-02  0.1026196E+00
         21   -1    0    0  502  501  0.00000000000E+00  0.00000000000E+00  0.39181857876E+02  0.39181857876E+02  0.00000000000E+00 0.  1.
         21   -1    0    0  501  502 -0.00000000000E+00 -0.00000000000E+00 -0.13218241760E+04  0.13218241760E+04  0.00000000000E+00 0.  1.
      99926    2    1    2    0    0  0.00000000000E+00 -0.71054273576E-14 -0.12826423182E+04  0.13610060339E+04  0.45515503733E+03 0.  0.
         25    1    3    3    0    0 -0.54956409632E+02  0.86056740069E+02 -0.43663618737E+03  0.46553693483E+03  0.12509000000E+03 0.  0.
         25    1    3    3    0    0  0.44955682195E+01 -0.61991697569E+02 -0.27732918733E+03  0.31051918934E+03  0.12509000000E+03 0.  0.
         25    1    3    3    0    0  0.50460841412E+02 -0.24065042500E+02 -0.56867694345E+03  0.58494990974E+03  0.12509000000E+03 0.  0.
<mgrwt>
<rscale>  2 0.45515504E+03</rscale>
<asrwt>0</asrwt>
<pdfrwt beam="1">  1       21 0.57620381E-02 0.45515504E+03</pdfrwt>
<pdfrwt beam="2">  1       21 0.19438590E+00 0.45515504E+03</pdfrwt>
<totfact> 0.27356933E+04</totfact>
</mgrwt>
</event>
<event>
 6    0  0.1576925E-007  0.4552292E+03  0.7546771E-02  0.1026174E+00
         21   -1    0    0  502  501  0.00000000000E+00  0.00000000000E+00  0.71780761976E+03  0.71780761976E+03  0.00000000000E+00 0. -1.
         21   -1    0    0  501  502 -0.00000000000E+00 -0.00000000000E+00 -0.72175882744E+02  0.72175882744E+02  0.00000000000E+00 0. -1.
      99926    2    1    2    0    0  0.00000000000E+00 -0.71054273576E-14  0.64563173702E+03  0.78998350251E+03  0.45522916689E+03 0.  0.
         25    1    3    3    0    0  0.52588429690E+02 -0.74585959487E+01  0.11815350951E+03  0.18008035290E+03  0.12509000000E+03 0.  0.
         25    1    3    3    0    0  0.33998574386E+02 -0.56110788389E+02  0.24896452576E+03  0.28624319524E+03  0.12509000000E+03 0.  0.
         25    1    3    3    0    0 -0.86587004076E+02  0.63569384338E+02  0.27851370175E+03  0.32365995437E+03  0.12509000000E+03 0.  0.
<mgrwt>
<rscale>  2 0.45522917E+03</rscale>
<asrwt>0</asrwt>
<pdfrwt beam="1">  1       21 0.10555994E+00 0.45522917E+03</pdfrwt>
<pdfrwt beam="2">  1       21 0.10614101E-01 0.45522917E+03</pdfrwt>
<totfact> 0.48166442E+04</totfact>
</mgrwt>
</event>
<event>
 6    0  0.1576925E-007  0.4290458E+03  0.7546771E-02  0.1034162E+00
         21   -1    0    0  502  501  0.00000000000E+00  0.00000000000E+00  0.62325367837E+03  0.62325367837E+03  0.00000000000E+00 0.  1.
         21   -1    0    0  501  502 -0.00000000000E+00 -0.00000000000E+00 -0.73838415267E+02  0.73838415267E+02  0.00000000000E+00 0.  1.
      99926    2    1    2    0    0  0.00000000000E+00  0.00000000000E+00  0.54941526310E+03  0.69709209364E+03  0.42904575010E+03 0.  0.
         25    1    3    3    0    0  0.11305474119E+02 -0.54323552599E+02  0.18347686374E+03  0.22888890261E+03  0.12509000000E+03 0.  0.
         25    1    3    3    0    0  0.60521374132E+02  0.16595205940E+02  0.21086364191E+03  0.25307947599E+03  0.12509000000E+03 0.  0.
         25    1    3    3    0    0 -0.71826848251E+02  0.37728346659E+02  0.15507475745E+03  0.21512371504E+03  0.12509000000E+03 0.  0.
<mgrwt>
<rscale>  2 0.42904575E+03</rscale>
<asrwt>0</asrwt>
<pdfrwt beam="1">  1       21 0.91654950E-01 0.42904575E+03</pdfrwt>
<pdfrwt beam="2">  1       21 0.10858591E-01 0.42904575E+03</pdfrwt>
<totfact> 0.65438156E+04</totfact>
</mgrwt>
</event>
<event>
 6    0  0.1576925E-007  0.4588746E+03  0.7546771E-02  0.1025108E+00
         21   -1    0    0  502  501  0.00000000000E+00  0.00000000000E+00  0.17637600421E+03  0.17637600421E+03  0.00000000000E+00 0.  1.
         21   -1    0    0  501  502 -0.00000000000E+00 -0.00000000000E+00 -0.29846167943E+03  0.29846167943E+03  0.00000000000E+00 0.  1.
      99926    2    1    2    0    0  0.00000000000E+00  0.00000000000E+00 -0.12208567522E+03  0.47483768365E+03  0.45887461655E+03 0.  0.
         25    1    3    3    0    0  0.63535383215E+02  0.63310285444E+02 -0.41547763556E+02  0.15943231140E+03  0.12509000000E+03 0.  0.
         25    1    3    3    0    0  0.20500727807E+02 -0.71327453974E+02 -0.24061365756E+01  0.14546883901E+03  0.12509000000E+03 0.  0.
         25    1    3    3    0    0 -0.84036111022E+02  0.80171685306E+01 -0.78131775090E+02  0.16993653323E+03  0.12509000000E+03 0.  0.
<mgrwt>
<rscale>  2 0.45887462E+03</rscale>
<asrwt>0</asrwt>
<pdfrwt beam="1">  1       21 0.25937648E-01 0.45887462E+03</pdfrwt>
<pdfrwt beam="2">  1       21 0.43891423E-01 0.45887462E+03</pdfrwt>
<totfact> 0.65054733E+04</totfact>
</mgrwt>
</event>
<event>
 6    0  0.1576925E-007  0.4541847E+03  0.7546771E-02  0.1026481E+00
         21   -1    0    0  502  501  0.00000000000E+00  0.00000000000E+00  0.70571128973E+03  0.70571128973E+03  0.00000000000E+00 0.  1.
         21   -1    0    0  501  502 -0.00000000000E+00 -0.00000000000E+00 -0.73076524347E+02  0.73076524347E+02  0.00000000000E+00 0.  1.
      99926    2    1    2    0    0  0.00000000000E+00 -0.17763568394E-14  0.63263476538E+03  0.77878781408E+03  0.45418466837E+03 0.  0.
         25    1    3    3    0    0 -0.44347531948E+02  0.59268581072E+02  0.10541616008E+03  0.17955373346E+03  0.12509000000E+03 0.  0.
         25    1    3    3    0    0  0.70201752323E+02 -0.52840220270E+01  0.22763994698E+03  0.26911644409E+03  0.12509000000E+03 0.  0.
         25    1    3    3    0    0 -0.25854220375E+02 -0.53984559045E+02  0.29957865832E+03  0.33011763653E+03  0.12509000000E+03 0.  0.
<mgrwt>
<rscale>  2 0.45418467E+03</rscale>
<asrwt>0</asrwt>
<pdfrwt beam="1">  1       21 0.10378107E+00 0.45418467E+03</pdfrwt>
<pdfrwt beam="2">  1       21 0.10746548E-01 0.45418467E+03</pdfrwt>
<totfact> 0.49121583E+04</totfact>
</mgrwt>
</event>
<event>
 6    0  0.1576925E-007  0.4588932E+03  0.7546771E-02  0.1025103E+00
         21   -1    0    0  502  501  0.00000000000E+00  0.00000000000E+00  0.34626685847E+02  0.34626685847E+02  0.00000000000E+00 0. -1.
         21   -1    0    0  501  502 -0.00000000000E+00 -0.00000000000E+00 -0.15203806037E+04  0.15203806037E+04  0.00000000000E+00 0. -1.
      99926    2    1    2    0    0 -0.71054273576E-14  0.00000000000E+00 -0.14857539179E+04  0.15550072896E+04  0.45889319687E+03 0.  0.
         25    1    3    3    0    0 -0.57929105418E+02  0.95113554169E+02 -0.73937320163E+03  0.75810461602E+03  0.12509000000E+03 0.  0.
         25    1    3    3    0    0  0.50641200174E+02 -0.50644673464E+02 -0.43709839585E+03  0.46025202863E+03  0.12509000000E+03 0.  0.
         25    1    3    3    0    0  0.72879052443E+01 -0.44468880705E+02 -0.30928232040E+03  0.33665064492E+03  0.12509000000E+03 0.  0.
<mgrwt>
<rscale>  2 0.45889320E+03</rscale>
<asrwt>0</asrwt>
<pdfrwt beam="1">  1       21 0.50921589E-02 0.45889320E+03</pdfrwt>
<pdfrwt beam="2">  1       21 0.22358542E+00 0.45889320E+03</pdfrwt>
<totfact> 0.21796132E+04</totfact>
</mgrwt>
</event>
<event>
 6    0  0.1576925E-007  0.4624080E+03  0.7546771E-02  0.1024085E+00
         21   -1    0    0  502  501  0.00000000000E+00  0.00000000000E+00  0.92898341378E+02  0.92898341378E+02  0.00000000000E+00 0. -1.
         21   -1    0    0  501  502 -0.00000000000E+00 -0.00000000000E+00 -0.57541715749E+03  0.57541715749E+03  0.00000000000E+00 0. -1.
      99926    2    1    2    0    0  0.00000000000E+00  0.00000000000E+00 -0.48251881611E+03  0.66831549887E+03  0.46240804288E+03 0.  0.
         25    1    3    3    0    0  0.47393999832E+02  0.10781596102E+03 -0.18360597803E+03  0.25145404339E+03  0.12509000000E+03 0.  0.
         25    1    3    3    0    0 -0.25969769653E+02 -0.20308327298E+02 -0.18245427148E+03  0.22366029235E+03  0.12509000000E+03 0.  0.
         25    1    3    3    0    0 -0.21424230179E+02 -0.87507633717E+02 -0.11645856660E+03  0.19320116312E+03  0.12509000000E+03 0.  0.
<mgrwt>
<rscale>  2 0.46240804E+03</rscale>
<asrwt>0</asrwt>
<pdfrwt beam="1">  1       21 0.13661521E-01 0.46240804E+03</pdfrwt>
<pdfrwt beam="2">  1       21 0.84620167E-01 0.46240804E+03</pdfrwt>
<totfact> 0.51578126E+04</totfact>
</mgrwt>
</event>
<event>
 6    0  0.1576925E-007  0.4461094E+03  0.7546771E-02  0.1028889E+00
         21   -1    0    0  502  501  0.00000000000E+00  0.00000000000E+00  0.91225087961E+02  0.91225087961E+02  0.00000000000E+00 0. -1.
         21   -1    0    0  501  502 -0.00000000000E+00 -0.00000000000E+00 -0.54539159760E+03  0.54539159760E+03  0.00000000000E+00 0. -1.
      99926    2    1    2    0    0  0.00000000000E+00  0.00000000000E+00 -0.45416650964E+03  0.63661668556E+03  0.44610938777E+03 0.  0.
         25    1    3    3    0    0  0.22334652714E+02 -0.80864150612E+02 -0.22237058751E+03  0.26857779851E+03  0.12509000000E+03 0.  0.
         25    1    3    3    0    0 -0.65838286453E+01  0.69038185860E+01 -0.16514002773E+03  0.20738791278E+03  0.12509000000E+03 0.  0.
         25    1    3    3    0    0 -0.15750824069E+02  0.73960332026E+02 -0.66655894397E+02  0.16065097426E+03  0.12509000000E+03 0.  0.
<mgrwt>
<rscale>  2 0.44610939E+03</rscale>
<asrwt>0</asrwt>
<pdfrwt beam="1">  1       21 0.13415454E-01 0.44610939E+03</pdfrwt>
<pdfrwt beam="2">  1       21 0.80204645E-01 0.44610939E+03</pdfrwt>
<totfact> 0.60621948E+04</totfact>
</mgrwt>
</event>
<event>
 6    0  0.1576925E-007  0.4756062E+03  0.7546771E-02  0.1020350E+00
         21   -1    0    0  502  501  0.00000000000E+00  0.00000000000E+00  0.91117650588E+02  0.91117650588E+02  0.00000000000E+00 0.  1.
         21   -1    0    0  501  502 -0.00000000000E+00 -0.00000000000E+00 -0.62062959102E+03  0.62062959102E+03  0.00000000000E+00 0.  1.
      99926    2    1    2    0    0  0.00000000000E+00  0.00000000000E+00 -0.52951194043E+03  0.71174724161E+03  0.47560618255E+03 0.  0.
         25    1    3    3    0    0 -0.46160828844E+02 -0.99519503534E+02 -0.28236929946E+03  0.32774209843E+03  0.12509000000E+03 0.  0.
         25    1    3    3    0    0  0.43728206791E+02  0.94693445748E+02 -0.10135577087E+03  0.19183197107E+03  0.12509000000E+03 0.  0.
         25    1    3    3    0    0  0.24326220531E+01  0.48260577863E+01 -0.14578687010E+03  0.19217317211E+03  0.12509000000E+03 0.  0.
<mgrwt>
<rscale>  2 0.47560618E+03</rscale>
<asrwt>0</asrwt>
<pdfrwt beam="1">  1       21 0.13399655E-01 0.47560618E+03</pdfrwt>
<pdfrwt beam="2">  1       21 0.91269057E-01 0.47560618E+03</pdfrwt>
<totfact> 0.44586727E+04</totfact>
</mgrwt>
</event>
<event>
 6    0  0.1576925E-007  0.4510941E+03  0.7546771E-02  0.1027396E+00
         21   -1    0    0  502  501  0.00000000000E+00  0.00000000000E+00  0.58023274890E+03  0.58023274890E+03  0.00000000000E+00 0. -1.
         21   -1    0    0  501  502 -0.00000000000E+00 -0.00000000000E+00 -0.87674244407E+02  0.87674244407E+02  0.00000000000E+00 0. -1.
      99926    2    1    2    0    0 -0.71054273576E-14  0.00000000000E+00  0.49255850449E+03  0.66790699330E+03  0.45109408260E+03 0.  0.
         25    1    3    3    0    0 -0.38988563231E+02 -0.60311579589E+02  0.12556931335E+03  0.19124004615E+03  0.12509000000E+03 0.  0.
         25    1    3    3    0    0 -0.56420079055E+02  0.51349490475E+02  0.18270259570E+03  0.23419594801E+03  0.12509000000E+03 0.  0.
         25    1    3    3    0    0  0.95408642286E+02  0.89620891144E+01  0.18428659545E+03  0.24247099914E+03  0.12509000000E+03 0.  0.
<mgrwt>
<rscale>  2 0.45109408E+03</rscale>
<asrwt>0</asrwt>
<pdfrwt beam="1">  1       21 0.85328344E-01 0.45109408E+03</pdfrwt>
<pdfrwt beam="2">  1       21 0.12893271E-01 0.45109408E+03</pdfrwt>
<totfact> 0.56396689E+04</totfact>
</mgrwt>
</event>
<event>
 6    0  0.1576925E-007  0.4522121E+03  0.7546771E-02  0.1027064E+00
         21   -1    0    0  502  501  0.00000000000E+00  0.00000000000E+00  0.75692050756E+02  0.75692050756E+02  0.00000000000E+00 0.  1.
         21   -1    0    0  501  502 -0.00000000000E+00 -0.00000000000E+00 -0.67542017061E+03  0.67542017061E+03  0.00000000000E+00 0.  1.
      99926    2    1    2    0    0  0.00000000000E+00  0.71054273576E-14 -0.59972811985E+03  0.75111222136E+03  0.45221206457E+03 0.  0.
         25    1    3    3    0    0 -0.24519716797E+02  0.57413323634E+02 -0.33125653074E+03  0.35954958420E+03  0.12509000000E+03 0.  0.
         25    1    3    3    0    0  0.70302529085E+02 -0.36562637587E+02 -0.11656558759E+03  0.18845242469E+03  0.12509000000E+03 0.  0.
         25    1    3    3    0    0 -0.45782812288E+02 -0.20850686047E+02 -0.15190600153E+03  0.20311021247E+03  0.12509000000E+03 0.  0.
<mgrwt>
<rscale>  2 0.45221206E+03</rscale>
<asrwt>0</asrwt>
<pdfrwt beam="1">  1       21 0.11131183E-01 0.45221206E+03</pdfrwt>
<pdfrwt beam="2">  1       21 0.99326500E-01 0.45221206E+03</pdfrwt>
<totfact> 0.51329670E+04</totfact>
</mgrwt>
</event>
<event>
 6    0  0.1576925E-007  0.4627226E+03  0.7546771E-02  0.1023995E+00
         21   -1    0    0  502  501  0.00000000000E+00  0.00000000000E+00  0.12468330106E+03  0.12468330106E+03  0.00000000000E+00 0. -1.
         21   -1    0    0  501  502 -0.00000000000E+00 -0.00000000000E+00 -0.42931210240E+03  0.42931210240E+03  0.00000000000E+00 0. -1.
      99926    2    1    2    0    0  0.35527136788E-14 -0.61062266354E-15 -0.30462880134E+03  0.55399540345E+03  0.46272259556E+03 0.  0.
         25    1    3    3    0    0  0.34601593333E+02  0.10800313973E+03 -0.11966800641E+03  0.20695383135E+03  0.12509000000E+03 0.  0.
         25    1    3    3    0    0 -0.17088158989E+02 -0.10826021579E+03 -0.90702878042E+02  0.18943811571E+03  0.12509000000E+03 0.  0.
         25    1    3    3    0    0 -0.17513434344E+02  0.25707606335E+00 -0.94257916885E+02  0.15760345639E+03  0.12509000000E+03 0.  0.
<mgrwt>
<rscale>  2 0.46272260E+03</rscale>
<asrwt>0</asrwt>
<pdfrwt beam="1">  1       21 0.18335780E-01 0.46272260E+03</pdfrwt>
<pdfrwt beam="2">  1       21 0.63134132E-01 0.46272260E+03</pdfrwt>
<totfact> 0.57978978E+04</totfact>
</mgrwt>
</event>
<event>
 6    0  0.1576925E-007  0.4427134E+03  0.7546771E-02  0.1029918E+00
         21   -1    0    0  502  501  0.00000000000E+00  0.00000000000E+00  0.27034585300E+03  0.27034585300E+03  0.00000000000E+00 0. -1.
         21   -1    0    0  501  502 -0.00000000000E+00 -0.00000000000E+00 -0.18124480546E+03  0.18124480546E+03  0.00000000000E+00 0. -1.
      99926    2    1    2    0    0 -0.35527136788E-14  0.00000000000E+00  0.89101047539E+02  0.45159065846E+03  0.44271336792E+03 0.  0.
         25    1    3    3    0    0  0.68458703943E+02  0.46076847955E+02  0.79133039948E+02  0.16946744872E+03  0.12509000000E+03 0.  0.
         25    1    3    3    0    0 -0.17353837688E+02 -0.65082638769E+02 -0.16813200547E+02  0.14306326350E+03  0.12509000000E+03 0.  0.
         25    1    3    3    0    0 -0.51104866255E+02  0.19005790814E+02  0.26781208139E+02  0.13905994624E+03  0.12509000000E+03 0.  0.
<mgrwt>
<rscale>  2 0.44271337E+03</rscale>
<asrwt>0</asrwt>
<pdfrwt beam="1">  1       21 0.39756743E-01 0.44271337E+03</pdfrwt>
<pdfrwt beam="2">  1       21 0.26653648E-01 0.44271337E+03</pdfrwt>
<totfact> 0.75968158E+04</totfact>
</mgrwt>
</event>
<event>
 6    0  0.1576925E-007  0.4582274E+03  0.7546771E-02  0.1025297E+00
         21   -1    0    0  502  501  0.00000000000E+00  0.00000000000E+00  0.47771755514E+02  0.47771755514E+02  0.00000000000E+00 0.  1.
         21   -1    0    0  501  502 -0.00000000000E+00 -0.00000000000E+00 -0.10988311492E+04  0.10988311492E+04  0.00000000000E+00 0.  1.
      99926    2    1    2    0    0  0.00000000000E+00  0.00000000000E+00 -0.10510593937E+04  0.11466029047E+04  0.45822742393E+03 0.  0.
         25    1    3    3    0    0 -0.15767873601E+02 -0.24311161109E+01 -0.10780491347E+03  0.16590341658E+03  0.12509000000E+03 0.  0.
         25    1    3    3    0    0 -0.22120595711E+02  0.20408047242E+02 -0.58349857888E+03  0.59751477705E+03  0.12509000000E+03 0.  0.
         25    1    3    3    0    0  0.37888469312E+02 -0.17976931131E+02 -0.35975590132E+03  0.38318471107E+03  0.12509000000E+03 0.  0.
<mgrwt>
<rscale>  2 0.45822742E+03</rscale>
<asrwt>0</asrwt>
<pdfrwt beam="1">  1       21 0.70252584E-02 0.45822742E+03</pdfrwt>
<pdfrwt beam="2">  1       21 0.16159281E+00 0.45822742E+03</pdfrwt>
<totfact> 0.33056611E+04</totfact>
</mgrwt>
</event>
<event>
 6    0  0.1576925E-007  0.4564626E+03  0.7546771E-02  0.1025812E+00
         21   -1    0    0  502  501  0.00000000000E+00  0.00000000000E+00  0.91913971988E+02  0.91913971988E+02  0.00000000000E+00 0. -1.
         21   -1    0    0  501  502 -0.00000000000E+00 -0.00000000000E+00 -0.56672051447E+03  0.56672051447E+03  0.00000000000E+00 0. -1.
      99926    2    1    2    0    0  0.00000000000E+00  0.00000000000E+00 -0.47480654248E+03  0.65863448646E+03  0.45646263151E+03 0.  0.
         25    1    3    3    0    0 -0.43087922197E+02  0.33499511784E+02 -0.48673147294E+02  0.14489779052E+03  0.12509000000E+03 0.  0.
         25    1    3    3    0    0  0.79931468709E+02  0.74441311413E+01 -0.19458703730E+03  0.24485930238E+03  0.12509000000E+03 0.  0.
         25    1    3    3    0    0 -0.36843546512E+02 -0.40943642926E+02 -0.23154635789E+03  0.26887739356E+03  0.12509000000E+03 0.  0.
<mgrwt>
<rscale>  2 0.45646263E+03</rscale>
<asrwt>0</asrwt>
<pdfrwt beam="1">  1       21 0.13516761E-01 0.45646263E+03</pdfrwt>
<pdfrwt beam="2">  1       21 0.83341252E-01 0.45646263E+03</pdfrwt>
<totfact> 0.54574306E+04</totfact>
</mgrwt>
</event>
<event>
 6    0  0.1576925E-007  0.4551676E+03  0.7546771E-02  0.1026192E+00
         21   -1    0    0  502  501  0.00000000000E+00  0.00000000000E+00  0.27815688076E+03  0.27815688076E+03  0.00000000000E+00 0.  1.
         21   -1    0    0  501  502 -0.00000000000E+00 -0.00000000000E+00 -0.18620566898E+03  0.18620566898E+03  0.00000000000E+00 0.  1.
      99926    2    1    2    0    0 -0.26645352591E-14  0.00000000000E+00  0.91951211781E+02  0.46436254973E+03  0.45516760896E+03 0.  0.
         25    1    3    3    0    0 -0.79065925079E+02  0.28245231757E+02  0.26257391714E+02  0.15292538162E+03  0.12509000000E+03 0.  0.
         25    1    3    3    0    0  0.51497039180E+01 -0.75962276652E+02  0.38925830413E+01  0.14649043391E+03  0.12509000000E+03 0.  0.
         25    1    3    3    0    0  0.73916221161E+02  0.47717044895E+02  0.61801237026E+02  0.16494673420E+03  0.12509000000E+03 0.  0.
<mgrwt>
<rscale>  2 0.45516761E+03</rscale>
<asrwt>0</asrwt>
<pdfrwt beam="1">  1       21 0.40905424E-01 0.45516761E+03</pdfrwt>
<pdfrwt beam="2">  1       21 0.27383187E-01 0.45516761E+03</pdfrwt>
<totfact> 0.67767259E+04</totfact>
</mgrwt>
</event>
<event>
 6    0  0.1576925E-007  0.4413398E+03  0.7546771E-02  0.1030337E+00
         21   -1    0    0  502  501  0.00000000000E+00  0.00000000000E+00  0.13725538723E+03  0.13725538723E+03  0.00000000000E+00 0. -1.
         21   -1    0    0  501  502 -0.00000000000E+00 -0.00000000000E+00 -0.35477803355E+03  0.35477803355E+03  0.00000000000E+00 0. -1.
      99926    2    1    2    0    0  0.00000000000E+00  0.00000000000E+00 -0.21752264632E+03  0.49203342078E+03  0.44133976198E+03 0.  0.
         25    1    3    3    0    0  0.53737221607E+02  0.80402535280E+01 -0.11265831931E+03  0.17689471352E+03  0.12509000000E+03 0.  0.
         25    1    3    3    0    0 -0.59151488571E+02 -0.15950714275E+02 -0.12611076068E+03  0.18789559852E+03  0.12509000000E+03 0.  0.
         25    1    3    3    0    0  0.54142669631E+01  0.79104607469E+01  0.21246433674E+02  0.12724310873E+03  0.12509000000E+03 0.  0.
<mgrwt>
<rscale>  2 0.44133976E+03</rscale>
<asrwt>0</asrwt>
<pdfrwt beam="1">  1       21 0.20184616E-01 0.44133976E+03</pdfrwt>
<pdfrwt beam="2">  1       21 0.52173240E-01 0.44133976E+03</pdfrwt>
<totfact> 0.73484900E+04</totfact>
</mgrwt>
</event>
<event>
 6    0  0.1576925E-007  0.4470464E+03  0.7546771E-02  0.1028607E+00
         21   -1    0    0  502  501  0.00000000000E+00  0.00000000000E+00  0.11166615446E+03  0.11166615446E+03  0.00000000000E+00 0.  1.
         21   -1    0    0  501  502 -0.00000000000E+00 -0.00000000000E+00 -0.44742848782E+03  0.44742848782E+03  0.00000000000E+00 0.  1.
      99926    2    1    2    0    0  0.35527136788E-14 -0.88817841970E-15 -0.33576233336E+03  0.55909464227E+03  0.44704638967E+03 0.  0.
         25    1    3    3    0    0  0.38750475224E+02 -0.56014721264E+02 -0.70198348222E+02  0.15879094597E+03  0.12509000000E+03 0.  0.
         25    1    3    3    0    0 -0.57284257616E+02  0.48491864342E+02 -0.57689339957E+02  0.15687101428E+03  0.12509000000E+03 0.  0.
         25    1    3    3    0    0  0.18533782392E+02  0.75228569216E+01 -0.20787464518E+03  0.24343268202E+03  0.12509000000E+03 0.  0.
<mgrwt>
<rscale>  2 0.44704639E+03</rscale>
<asrwt>0</asrwt>
<pdfrwt beam="1">  1       21 0.16421493E-01 0.44704639E+03</pdfrwt>
<pdfrwt beam="2">  1       21 0.65798307E-01 0.44704639E+03</pdfrwt>
<totfact> 0.65280555E+04</totfact>
</mgrwt>
</event>
<event>
 6    0  0.1576925E-007  0.4610306E+03  0.7546771E-02  0.1024483E+00
         21   -1    0    0  502  501  0.00000000000E+00  0.00000000000E+00  0.43991712083E+03  0.43991712083E+03  0.00000000000E+00 0.  1.
         21   -1    0    0  501  502 -0.00000000000E+00 -0.00000000000E+00 -0.12078934644E+03  0.12078934644E+03  0.00000000000E+00 0.  1.
      99926    2    1    2    0    0  0.00000000000E+00  0.17763568394E-14  0.31912777439E+03  0.56070646728E+03  0.46103059124E+03 0.  0.
         25    1    3    3    0    0 -0.86667076299E+02  0.88022734063E+01  0.21906475493E+03  0.26688112913E+03  0.12509000000E+03 0.  0.
         25    1    3    3    0    0  0.50885292388E+02 -0.10791668715E+02  0.10543905358E+02  0.13588397674E+03  0.12509000000E+03 0.  0.
         25    1    3    3    0    0  0.35781783911E+02  0.19893953087E+01  0.89519114100E+02  0.15794136141E+03  0.12509000000E+03 0.  0.
<mgrwt>
<rscale>  2 0.46103059E+03</rscale>
<asrwt>0</asrwt>
<pdfrwt beam="1">  1       21 0.64693694E-01 0.46103059E+03</pdfrwt>
<pdfrwt beam="2">  1       21 0.17763139E-01 0.46103059E+03</pdfrwt>
<totfact> 0.58331825E+04</totfact>
</mgrwt>
</event>
<event>
 6    0  0.1576925E-007  0.4597614E+03  0.7546771E-02  0.1024850E+00
         21   -1    0    0  502  501  0.00000000000E+00  0.00000000000E+00  0.13459927113E+03  0.13459927113E+03  0.00000000000E+00 0. -1.
         21   -1    0    0  501  502 -0.00000000000E+00 -0.00000000000E+00 -0.39261078349E+03  0.39261078349E+03  0.00000000000E+00 0. -1.
      99926    2    1    2    0    0  0.71054273576E-14  0.71054273576E-14 -0.25801151236E+03  0.52721005461E+03  0.45976135241E+03 0.  0.
         25    1    3    3    0    0  0.78860613871E+02 -0.56683881017E+02 -0.56113276684E+02  0.16801269805E+03  0.12509000000E+03 0.  0.
         25    1    3    3    0    0 -0.45450859340E+02  0.73476146252E+02 -0.16316650891E+03  0.22301422020E+03  0.12509000000E+03 0.  0.
         25    1    3    3    0    0 -0.33409754531E+02 -0.16792265235E+02 -0.38731726768E+02  0.13618313636E+03  0.12509000000E+03 0.  0.
<mgrwt>
<rscale>  2 0.45976135E+03</rscale>
<asrwt>0</asrwt>
<pdfrwt beam="1">  1       21 0.19794011E-01 0.45976135E+03</pdfrwt>
<pdfrwt beam="2">  1       21 0.57736879E-01 0.45976135E+03</pdfrwt>
<totfact> 0.61058367E+04</totfact>
</mgrwt>
</event>
<event>
 6    0  0.1576925E-007  0.4505048E+03  0.7546771E-02  0.1027572E+00
         21   -1    0    0  502  501  0.00000000000E+00  0.00000000000E+00  0.94168756009E+03  0.94168756009E+03  0.00000000000E+00 0.  1.
         21   -1    0    0  501  502 -0.00000000000E+00 -0.00000000000E+00 -0.53880538111E+02  0.53880538111E+02  0.00000000000E+00 0.  1.
      99926    2    1    2    0    0  0.88817841970E-15  0.35527136788E-14  0.88780702198E+03  0.99556809821E+03  0.45050475012E+03 0.  0.
         25    1    3    3    0    0  0.76492552843E+01  0.23233469356E+02  0.27663932140E+03  0.30459009743E+03  0.12509000000E+03 0.  0.
         25    1    3    3    0    0  0.45045223362E+02 -0.99444044570E+02  0.29301729260E+03  0.33678603298E+03  0.12509000000E+03 0.  0.
         25    1    3    3    0    0 -0.52694478646E+02  0.76210575214E+02  0.31815040798E+03  0.35419196780E+03  0.12509000000E+03 0.  0.
<mgrwt>
<rscale>  2 0.45050475E+03</rscale>
<asrwt>0</asrwt>
<pdfrwt beam="1">  1       21 0.13848345E+00 0.45050475E+03</pdfrwt>
<pdfrwt beam="2">  1       21 0.79236091E-02 0.45050475E+03</pdfrwt>
<totfact> 0.40751665E+04</totfact>
</mgrwt>
</event>
<event>
 6    0  0.1576925E-007  0.4401370E+03  0.7546771E-02  0.1030705E+00
         21   -1    0    0  502  501  0.00000000000E+00  0.00000000000E+00  0.68570204411E+03  0.68570204411E+03  0.00000000000E+00 0. -1.
         21   -1    0    0  501  502 -0.00000000000E+00 -0.00000000000E+00 -0.70628566717E+02  0.70628566717E+02  0.00000000000E+00 0. -1.
      99926    2    1    2    0    0  0.00000000000E+00  0.71054273576E-14  0.61507347739E+03  0.75633061083E+03  0.44013703580E+03 0.  0.
         25    1    3    3    0    0  0.12939071430E+02 -0.38372125637E+02  0.22932546443E+03  0.26434355739E+03  0.12509000000E+03 0.  0.
         25    1    3    3    0    0 -0.66669594826E+02 -0.25413424652E+02  0.25448340246E+03  0.29240380855E+03  0.12509000000E+03 0.  0.
         25    1    3    3    0    0  0.53730523396E+02  0.63785550289E+02  0.13126461050E+03  0.19958324489E+03  0.12509000000E+03 0.  0.
<mgrwt>
<rscale>  2 0.44013704E+03</rscale>
<asrwt>0</asrwt>
<pdfrwt beam="1">  1       21 0.10083853E+00 0.44013704E+03</pdfrwt>
<pdfrwt beam="2">  1       21 0.10386554E-01 0.44013704E+03</pdfrwt>
<totfact> 0.56229468E+04</totfact>
</mgrwt>
</event>
<event>
 6    0  0.1576925E-007  0.4768750E+03  0.7546771E-02  0.1019998E+00
         21   -1    0    0  502  501  0.00000000000E+00  0.00000000000E+00  0.12882694083E+03  0.12882694083E+03  0.00000000000E+00 0.  1.
         21   -1    0    0  501  502 -0.00000000000E+00 -0.00000000000E+00 -0.44130870448E+03  0.44130870448E+03  0.00000000000E+00 0.  1.
      99926    2    1    2    0    0  0.00000000000E+00  0.00000000000E+00 -0.31248176365E+03  0.57013564532E+03  0.47687503756E+03 0.  0.
         25    1    3    3    0    0  0.11780856898E+02 -0.27900115774E+02 -0.19035343921E+02  0.13010402556E+03  0.12509000000E+03 0.  0.
         25    1    3    3    0    0  0.81263371381E+02 -0.40361199538E+02 -0.17030012638E+03  0.22996174269E+03  0.12509000000E+03 0.  0.
         25    1    3    3    0    0 -0.93044228278E+02  0.68261315312E+02 -0.12314629335E+03  0.21006987706E+03  0.12509000000E+03 0.  0.
<mgrwt>
<rscale>  2 0.47687504E+03</rscale>
<asrwt>0</asrwt>
<pdfrwt beam="1">  1       21 0.18945138E-01 0.47687504E+03</pdfrwt>
<pdfrwt beam="2">  1       21 0.64898340E-01 0.47687504E+03</pdfrwt>
<totfact> 0.51119750E+04</totfact>
</mgrwt>
</event>
<event>
 6    0  0.1576925E-007  0.4498911E+03  0.7546771E-02  0.1027755E+00
         21   -1    0    0  502  501  0.00000000000E+00  0.00000000000E+00  0.13959667296E+04  0.13959667296E+04  0.00000000000E+00 0. -1.
         21   -1    0    0  501  502 -0.00000000000E+00 -0.00000000000E+00 -0.36247648304E+02  0.36247648304E+02  0.00000000000E+00 0. -1.
      99926    2    1    2    0    0  0.71054273576E-14  0.00000000000E+00  0.13597190813E+04  0.14322143779E+04  0.44989114710E+03 0.  0.
         25    1    3    3    0    0 -0.32751218001E+02 -0.10847063772E+02  0.47940312772E+03  0.49665397213E+03  0.12509000000E+03 0.  0.
         25    1    3    3    0    0 -0.50221830886E+02  0.66076908867E+02  0.52219853898E+03  0.54334815027E+03  0.12509000000E+03 0.  0.
         25    1    3    3    0    0  0.82973048887E+02 -0.55229845095E+02  0.35811741462E+03  0.39221225553E+03  0.12509000000E+03 0.  0.
<mgrwt>
<rscale>  2 0.44989115E+03</rscale>
<asrwt>0</asrwt>
<pdfrwt beam="1">  1       21 0.20528919E+00 0.44989115E+03</pdfrwt>
<pdfrwt beam="2">  1       21 0.53305374E-02 0.44989115E+03</pdfrwt>
<totfact> 0.26523449E+04</totfact>
</mgrwt>
</event>
<event>
 6    0  0.1576925E-007  0.4528241E+03  0.7546771E-02  0.1026883E+00
         21   -1    0    0  502  501  0.00000000000E+00  0.00000000000E+00  0.10019752114E+04  0.10019752114E+04  0.00000000000E+00 0. -1.
         21   -1    0    0  501  502 -0.00000000000E+00 -0.00000000000E+00 -0.51161354888E+02  0.51161354888E+02  0.00000000000E+00 0. -1.
      99926    2    1    2    0    0  0.00000000000E+00  0.00000000000E+00  0.95081385648E+03  0.10531365663E+04  0.45282406905E+03 0.  0.
         25    1    3    3    0    0  0.99672518234E+02  0.18191881053E+01  0.44304132242E+03  0.47103189043E+03  0.12509000000E+03 0.  0.
         25    1    3    3    0    0 -0.63907015796E+02 -0.41027247792E+02  0.30088337095E+03  0.33458280401E+03  0.12509000000E+03 0.  0.
         25    1    3    3    0    0 -0.35765502438E+02  0.39208059687E+02  0.20688916312E+03  0.24752187181E+03  0.12509000000E+03 0.  0.
<mgrwt>
<rscale>  2 0.45282407E+03</rscale>
<asrwt>0</asrwt>
<pdfrwt beam="1">  1       21 0.14734928E+00 0.45282407E+03</pdfrwt>
<pdfrwt beam="2">  1       21 0.75237293E-02 0.45282407E+03</pdfrwt>
<totfact> 0.37800406E+04</totfact>
</mgrwt>
</event>
<event>
 6    0  0.1576925E-007  0.4537795E+03  0.7546771E-02  0.1026601E+00
         21   -1    0    0  502  501  0.00000000000E+00  0.00000000000E+00  0.16580505728E+03  0.16580505728E+03  0.00000000000E+00 0. -1.
         21   -1    0    0  501  502 -0.00000000000E+00 -0.00000000000E+00 -0.31047882031E+03  0.31047882031E+03  0.00000000000E+00 0. -1.
      99926    2    1    2    0    0  0.00000000000E+00  0.00000000000E+00 -0.14467376303E+03  0.47628387760E+03  0.45377949970E+03 0.  0.
         25    1    3    3    0    0  0.33707296185E+02 -0.46530339049E+02 -0.85390618361E+02  0.16198864180E+03  0.12509000000E+03 0.  0.
         25    1    3    3    0    0 -0.77356516253E+02 -0.22915113489E+02  0.10527018257E+02  0.14922285095E+03  0.12509000000E+03 0.  0.
         25    1    3    3    0    0  0.43649220068E+02  0.69445452538E+02 -0.69810162924E+02  0.16507238484E+03  0.12509000000E+03 0.  0.
<mgrwt>
<rscale>  2 0.45377950E+03</rscale>
<asrwt>0</asrwt>
<pdfrwt beam="1">  1       21 0.24383097E-01 0.45377950E+03</pdfrwt>
<pdfrwt beam="2">  1       21 0.45658650E-01 0.45377950E+03</pdfrwt>
<totfact> 0.67624290E+04</totfact>
</mgrwt>
</event>
<event>
 6    0  0.1576925E-007  0.4559714E+03  0.7546771E-02  0.1025956E+00
         21   -1    0    0  502  501  0.00000000000E+00  0.00000000000E+00  0.23417769929E+03  0.23417769929E+03  0.00000000000E+00 0.  1.
         21   -1    0    0  501  502 -0.00000000000E+00 -0.00000000000E+00 -0.22195745561E+03  0.22195745561E+03  0.00000000000E+00 0.  1.
      99926    2    1    2    0    0  0.71054273576E-14  0.48849813084E-14  0.12220243683E+02  0.45613515490E+03  0.45597143022E+03 0.  0.
         25    1    3    3    0    0  0.32302931118E+02 -0.33825737064E+01  0.54805302996E+01  0.12935403154E+03  0.12509000000E+03 0.  0.
         25    1    3    3    0    0  0.20062265532E+02 -0.49071612740E+02 -0.79813420179E+02  0.15756969193E+03  0.12509000000E+03 0.  0.
         25    1    3    3    0    0 -0.52365196651E+02  0.52454186446E+02  0.86553133562E+02  0.16921143143E+03  0.12509000000E+03 0.  0.
<mgrwt>
<rscale>  2 0.45597143E+03</rscale>
<asrwt>0</asrwt>
<pdfrwt beam="1">  1       21 0.34437897E-01 0.45597143E+03</pdfrwt>
<pdfrwt beam="2">  1       21 0.32640802E-01 0.45597143E+03</pdfrwt>
<totfact> 0.67934631E+04</totfact>
</mgrwt>
</event>
<event>
 6    0  0.1576925E-007  0.4616276E+03  0.7546771E-02  0.1024310E+00
         21   -1    0    0  502  501  0.00000000000E+00  0.00000000000E+00  0.23249525225E+04  0.23249525225E+04  0.00000000000E+00 0.  1.
         21   -1    0    0  501  502 -0.00000000000E+00 -0.00000000000E+00 -0.22914454290E+02  0.22914454290E+02  0.00000000000E+00 0.  1.
      99926    2    1    2    0    0  0.00000000000E+00 -0.71054273576E-14  0.23020380682E+04  0.23478669768E+04  0.46162763480E+03 0.  0.
         25    1    3    3    0    0 -0.47670187522E+01 -0.37717956384E+02  0.77138460082E+03  0.78238550548E+03  0.12509000000E+03 0.  0.
         25    1    3    3    0    0 -0.89835359518E+01 -0.83638757899E+02  0.60779810788E+03  0.62621257875E+03  0.12509000000E+03 0.  0.
         25    1    3    3    0    0  0.13750554704E+02  0.12135671428E+03  0.92285535951E+03  0.93926889256E+03  0.12509000000E+03 0.  0.
<mgrwt>
<rscale>  2 0.46162763E+03</rscale>
<asrwt>0</asrwt>
<pdfrwt beam="1">  1       21 0.34190462E+00 0.46162763E+03</pdfrwt>
<pdfrwt beam="2">  1       21 0.33697743E-02 0.46162763E+03</pdfrwt>
<totfact> 0.83766338E+03</totfact>
</mgrwt>
</event>
<event>
 6    0  0.1576925E-007  0.4560532E+03  0.7546771E-02  0.1025932E+00
         21   -1    0    0  502  501  0.00000000000E+00  0.00000000000E+00  0.16573992488E+03  0.16573992488E+03  0.00000000000E+00 0.  1.
         21   -1    0    0  501  502 -0.00000000000E+00 -0.00000000000E+00 -0.31372119036E+03  0.31372119036E+03  0.00000000000E+00 0.  1.
      99926    2    1    2    0    0  0.71054273576E-14 -0.28865798640E-14 -0.14798126548E+03  0.47946111524E+03  0.45605318341E+03 0.  0.
         25    1    3    3    0    0  0.46631961343E+02 -0.11283245771E+01 -0.93923351223E+02  0.16323270794E+03  0.12509000000E+03 0.  0.
         25    1    3    3    0    0  0.74951637594E+01 -0.43565982360E+02  0.47015618359E+02  0.14075563494E+03  0.12509000000E+03 0.  0.
         25    1    3    3    0    0 -0.54127125102E+02  0.44694306937E+02 -0.10107353261E+03  0.17547277236E+03  0.12509000000E+03 0.  0.
<mgrwt>
<rscale>  2 0.45605318E+03</rscale>
<asrwt>0</asrwt>
<pdfrwt beam="1">  1       21 0.24373519E-01 0.45605318E+03</pdfrwt>
<pdfrwt beam="2">  1       21 0.46135468E-01 0.45605318E+03</pdfrwt>
<totfact> 0.66184358E+04</totfact>
</mgrwt>
</event>
<event>
 6    0  0.1576925E-007  0.4588789E+03  0.7546771E-02  0.1025107E+00
         21   -1    0    0  502  501  0.00000000000E+00  0.00000000000E+00  0.16066107856E+04  0.16066107856E+04  0.00000000000E+00 0.  1.
         21   -1    0    0  501  502 -0.00000000000E+00 -0.00000000000E+00 -0.32766153045E+02  0.32766153045E+02  0.00000000000E+00 0.  1.
      99926    2    1    2    0    0  0.00000000000E+00 -0.35527136788E-14  0.15738446325E+04  0.16393769386E+04  0.45887887240E+03 0.  0.
         25    1    3    3    0    0  0.21445550795E+01  0.27117615681E+02  0.27625422967E+03  0.30447310506E+03  0.12509000000E+03 0.  0.
         25    1    3    3    0    0  0.60806215780E+02  0.79290127264E+01  0.92311741018E+03  0.93357031133E+03  0.12509000000E+03 0.  0.
         25    1    3    3    0    0 -0.62950770859E+02 -0.35046628408E+02  0.37447299268E+03  0.40133352223E+03  0.12509000000E+03 0.  0.
<mgrwt>
<rscale>  2 0.45887887E+03</rscale>
<asrwt>0</asrwt>
<pdfrwt beam="1">  1       21 0.23626624E+00 0.45887887E+03</pdfrwt>
<pdfrwt beam="2">  1       21 0.48185530E-02 0.45887887E+03</pdfrwt>
<totfact> 0.19946866E+04</totfact>
</mgrwt>
</event>
<event>
 6    0  0.1576925E-007  0.4531580E+03  0.7546771E-02  0.1026784E+00
         21   -1    0    0  502  501  0.00000000000E+00  0.00000000000E+00  0.64941129708E+02  0.64941129708E+02  0.00000000000E+00 0. -1.
         21   -1    0    0  501  502 -0.00000000000E+00 -0.00000000000E+00 -0.79053208115E+03  0.79053208115E+03  0.00000000000E+00 0. -1.
      99926    2    1    2    0    0  0.00000000000E+00  0.00000000000E+00 -0.72559095144E+03  0.85547321086E+03  0.45315801403E+03 0.  0.
         25    1    3    3    0    0 -0.80445084318E+02 -0.68005578366E+01 -0.21423921368E+03  0.26089003039E+03  0.12509000000E+03 0.  0.
         25    1    3    3    0    0  0.19951253419E+02  0.33548447139E+02 -0.11720739489E+03  0.17580851042E+03  0.12509000000E+03 0.  0.
         25    1    3    3    0    0  0.60493830899E+02 -0.26747889302E+02 -0.39414434287E+03  0.41877467005E+03  0.12509000000E+03 0.  0.
<mgrwt>
<rscale>  2 0.45315801E+03</rscale>
<asrwt>0</asrwt>
<pdfrwt beam="1">  1       21 0.95501666E-02 0.45315801E+03</pdfrwt>
<pdfrwt beam="2">  1       21 0.11625471E+00 0.45315801E+03</pdfrwt>
<totfact> 0.45854464E+04</totfact>
</mgrwt>
</event>
<event>
 6    0  0.1576925E-007  0.4580228E+03  0.7546771E-02  0.1025356E+00
         21   -1    0    0  502  501  0.00000000000E+00  0.00000000000E+00  0.13569179572E+03  0.13569179572E+03  0.00000000000E+00 0. -1.
         21   -1    0    0  501  502 -0.00000000000E+00 -0.00000000000E+00 -0.38650997008E+03  0.38650997008E+03  0.00000000000E+00 0. -1.
      99926    2    1    2    0    0 -0.14210854715E-13 -0.17763568394E-14 -0.25081817436E+03  0.52220176580E+03  0.45802284617E+03 0.  0.
         25    1    3    3    0    0 -0.75629988699E+02  0.42546550489E+01 -0.46118457869E+02  0.15333759336E+03  0.12509000000E+03 0.  0.
         25    1    3    3    0    0 -0.12309291442E+02 -0.27655970863E+02 -0.16482367410E+03  0.20911892077E+03  0.12509000000E+03 0.  0.
         25    1    3    3    0    0  0.87939280142E+02  0.23401315814E+02 -0.39876042384E+02  0.15974525167E+03  0.12509000000E+03 0.  0.
<mgrwt>
<rscale>  2 0.45802285E+03</rscale>
<asrwt>0</asrwt>
<pdfrwt beam="1">  1       21 0.19954676E-01 0.45802285E+03</pdfrwt>
<pdfrwt beam="2">  1       21 0.56839700E-01 0.45802285E+03</pdfrwt>
<totfact> 0.62231592E+04</totfact>
</mgrwt>
</event>
<event>
 6    0  0.1576925E-007  0.4664124E+03  0.7546771E-02  0.1022938E+00
         21   -1    0    0  502  501  0.00000000000E+00  0.00000000000E+00  0.43849133744E+03  0.43849133744E+03  0.00000000000E+00 0. -1.
         21   -1    0    0  501  502 -0.00000000000E+00 -0.00000000000E+00 -0.12402783985E+03  0.12402783985E+03  0.00000000000E+00 0. -1.
      99926    2    1    2    0    0  0.71054273576E-14  0.00000000000E+00  0.31446349759E+03  0.56251917730E+03  0.46641240712E+03 0.  0.
         25    1    3    3    0    0 -0.55120141013E+02 -0.68189653797E+02  0.76515788899E+02  0.17085149365E+03  0.12509000000E+03 0.  0.
         25    1    3    3    0    0  0.16701917000E+02  0.10015608530E+03  0.68169729810E+02  0.17494232083E+03  0.12509000000E+03 0.  0.
         25    1    3    3    0    0  0.38418224013E+02 -0.31966431502E+02  0.16977797888E+03  0.21672536283E+03  0.12509000000E+03 0.  0.
<mgrwt>
<rscale>  2 0.46641241E+03</rscale>
<asrwt>0</asrwt>
<pdfrwt beam="1">  1       21 0.64484020E-01 0.46641241E+03</pdfrwt>
<pdfrwt beam="2">  1       21 0.18239388E-01 0.46641241E+03</pdfrwt>
<totfact> 0.55833474E+04</totfact>
</mgrwt>
</event>
<event>
 6    0  0.1576925E-007  0.4546777E+03  0.7546771E-02  0.1026336E+00
         21   -1    0    0  502  501  0.00000000000E+00  0.00000000000E+00  0.24420526034E+03  0.24420526034E+03  0.00000000000E+00 0.  1.
         21   -1    0    0  501  502 -0.00000000000E+00 -0.00000000000E+00 -0.21163734078E+03  0.21163734078E+03  0.00000000000E+00 0.  1.
      99926    2    1    2    0    0  0.71054273576E-14  0.00000000000E+00  0.32567919557E+02  0.45584260113E+03  0.45467769642E+03 0.  0.
         25    1    3    3    0    0  0.45143754161E+02 -0.20858756210E+01  0.51982241595E+02  0.14280045854E+03  0.12509000000E+03 0.  0.
         25    1    3    3    0    0 -0.32141172004E+02  0.76853220445E+02  0.39375463154E+02  0.15536218211E+03  0.12509000000E+03 0.  0.
         25    1    3    3    0    0 -0.13002582157E+02 -0.74767344824E+02 -0.58789785193E+02  0.15767996048E+03  0.12509000000E+03 0.  0.
<mgrwt>
<rscale>  2 0.45467770E+03</rscale>
<asrwt>0</asrwt>
<pdfrwt beam="1">  1       21 0.35912538E-01 0.45467770E+03</pdfrwt>
<pdfrwt beam="2">  1       21 0.31123138E-01 0.45467770E+03</pdfrwt>
<totfact> 0.68660541E+04</totfact>
</mgrwt>
</event>
<event>
 6    0  0.1576925E-007  0.4574981E+03  0.7546771E-02  0.1025509E+00
         21   -1    0    0  502  501  0.00000000000E+00  0.00000000000E+00  0.62403440066E+03  0.62403440066E+03  0.00000000000E+00 0.  1.
         21   -1    0    0  501  502 -0.00000000000E+00 -0.00000000000E+00 -0.83851356147E+02  0.83851356147E+02  0.00000000000E+00 0.  1.
      99926    2    1    2    0    0  0.00000000000E+00  0.00000000000E+00  0.54018304452E+03  0.70788575681E+03  0.45749811269E+03 0.  0.
         25    1    3    3    0    0  0.30924797401E+02 -0.98755962604E+02  0.23599158966E+03  0.28644130591E+03  0.12509000000E+03 0.  0.
         25    1    3    3    0    0  0.94189500513E+01  0.60969347233E+02  0.85758192105E+02  0.16373134561E+03  0.12509000000E+03 0.  0.
         25    1    3    3    0    0 -0.40343747453E+02  0.37786615371E+02  0.21843326275E+03  0.25771310529E+03  0.12509000000E+03 0.  0.
<mgrwt>
<rscale>  2 0.45749811E+03</rscale>
<asrwt>0</asrwt>
<pdfrwt beam="1">  1       21 0.91769763E-01 0.45749811E+03</pdfrwt>
<pdfrwt beam="2">  1       21 0.12331082E-01 0.45749811E+03</pdfrwt>
<totfact> 0.51457987E+04</totfact>
</mgrwt>
</event>
<event>
 6    0  0.1576925E-007  0.4537643E+03  0.7546771E-02  0.1026605E+00
         21   -1    0    0  502  501  0.00000000000E+00  0.00000000000E+00  0.43613351223E+02  0.43613351223E+02  0.00000000000E+00 0.  1.
         21   -1    0    0  501  502 -0.00000000000E+00 -0.00000000000E+00 -0.11802695896E+04  0.11802695896E+04  0.00000000000E+00 0.  1.
      99926    2    1    2    0    0  0.71054273576E-14  0.00000000000E+00 -0.11366562384E+04  0.12238829408E+04  0.45376430952E+03 0.  0.
         25    1    3    3    0    0 -0.18798524853E-01  0.17478199133E+02 -0.32320221302E+03  0.34700528296E+03  0.12509000000E+03 0.  0.
         25    1    3    3    0    0 -0.41948119409E+02 -0.10069378573E+02 -0.66538190115E+03  0.67841109925E+03  0.12509000000E+03 0.  0.
         25    1    3    3    0    0  0.41966917934E+02 -0.74088205597E+01 -0.14807212421E+03  0.19846655862E+03  0.12509000000E+03 0.  0.
<mgrwt>
<rscale>  2 0.45376431E+03</rscale>
<asrwt>0</asrwt>
<pdfrwt beam="1">  1       21 0.64137286E-02 0.45376431E+03</pdfrwt>
<pdfrwt beam="2">  1       21 0.17356905E+00 0.45376431E+03</pdfrwt>
<totfact> 0.31711882E+04</totfact>
</mgrwt>
</event>
<event>
 6    0  0.1576925E-007  0.4521698E+03  0.7546771E-02  0.1027077E+00
         21   -1    0    0  502  501  0.00000000000E+00  0.00000000000E+00  0.95447085261E+03  0.95447085261E+03  0.00000000000E+00 0.  1.
         21   -1    0    0  501  502 -0.00000000000E+00 -0.00000000000E+00 -0.53552584081E+02  0.53552584081E+02  0.00000000000E+00 0.  1.
      99926    2    1    2    0    0  0.00000000000E+00  0.35527136788E-14  0.90091826853E+03  0.10080234367E+04  0.45216979372E+03 0.  0.
         25    1    3    3    0    0 -0.46003701114E+02 -0.99687721422E+01  0.11291356709E+03  0.17496484980E+03  0.12509000000E+03 0.  0.
         25    1    3    3    0    0  0.95750654730E+01  0.36063887669E+02  0.48379435410E+03  0.50109557075E+03  0.12509000000E+03 0.  0.
         25    1    3    3    0    0  0.36428635641E+02 -0.26095115527E+02  0.30421034735E+03  0.33196301614E+03  0.12509000000E+03 0.  0.
<mgrwt>
<rscale>  2 0.45216979E+03</rscale>
<asrwt>0</asrwt>
<pdfrwt beam="1">  1       21 0.14036335E+00 0.45216979E+03</pdfrwt>
<pdfrwt beam="2">  1       21 0.78753806E-02 0.45216979E+03</pdfrwt>
<totfact> 0.39726920E+04</totfact>
</mgrwt>
</event>
<event>
 6    0  0.1576925E-007  0.4546497E+03  0.7546771E-02  0.1026344E+00
         21   -1    0    0  502  501  0.00000000000E+00  0.00000000000E+00  0.15388323172E+03  0.15388323172E+03  0.00000000000E+00 0.  1.
         21   -1    0    0  501  502 -0.00000000000E+00 -0.00000000000E+00 -0.33581686709E+03  0.33581686709E+03  0.00000000000E+00 0.  1.
      99926    2    1    2    0    0  0.00000000000E+00  0.10186296251E-13 -0.18193363537E+03  0.48970009881E+03  0.45464968833E+03 0.  0.
         25    1    3    3    0    0  0.28815200950E+02  0.87519933214E+02 -0.82565103324E+02  0.17593907725E+03  0.12509000000E+03 0.  0.
         25    1    3    3    0    0 -0.39893327747E+02  0.67646747948E-01 -0.92294081692E+02  0.16049046012E+03  0.12509000000E+03 0.  0.
         25    1    3    3    0    0  0.11078126797E+02 -0.87587579962E+02 -0.70744503564E+01  0.15327056144E+03  0.12509000000E+03 0.  0.
<mgrwt>
<rscale>  2 0.45464969E+03</rscale>
<asrwt>0</asrwt>
<pdfrwt beam="1">  1       21 0.22629887E-01 0.45464969E+03</pdfrwt>
<pdfrwt beam="2">  1       21 0.49384834E-01 0.45464969E+03</pdfrwt>
<totfact> 0.66184361E+04</totfact>
</mgrwt>
</event>
<event>
 6    0  0.1576925E-007  0.4547858E+03  0.7546771E-02  0.1026304E+00
         21   -1    0    0  502  501  0.00000000000E+00  0.00000000000E+00  0.54982643860E+03  0.54982643860E+03  0.00000000000E+00 0.  1.
         21   -1    0    0  501  502 -0.00000000000E+00 -0.00000000000E+00 -0.94043370573E+02  0.94043370573E+02  0.00000000000E+00 0.  1.
      99926    2    1    2    0    0  0.00000000000E+00  0.53290705182E-14  0.45578306802E+03  0.64386980917E+03  0.45478580240E+03 0.  0.
         25    1    3    3    0    0 -0.49265197464E+02  0.57040680074E+02  0.10888631065E+03  0.18216595624E+03  0.12509000000E+03 0.  0.
         25    1    3    3    0    0 -0.65342629428E+01 -0.47657382915E+02  0.27683200987E+03  0.30756689114E+03  0.12509000000E+03 0.  0.
         25    1    3    3    0    0  0.55799460406E+02 -0.93832971593E+01  0.70064747503E+02  0.15413696179E+03  0.12509000000E+03 0.  0.
<mgrwt>
<rscale>  2 0.45478580E+03</rscale>
<asrwt>0</asrwt>
<pdfrwt beam="1">  1       21 0.80856828E-01 0.45478580E+03</pdfrwt>
<pdfrwt beam="2">  1       21 0.13829908E-01 0.45478580E+03</pdfrwt>
<totfact> 0.56150879E+04</totfact>
</mgrwt>
</event>
<event>
 6    0  0.1576925E-007  0.4492894E+03  0.7546771E-02  0.1027934E+00
         21   -1    0    0  502  501  0.00000000000E+00  0.00000000000E+00  0.28979789958E+02  0.28979789958E+02  0.00000000000E+00 0.  1.
         21   -1    0    0  501  502 -0.00000000000E+00 -0.00000000000E+00 -0.17413946828E+04  0.17413946828E+04  0.00000000000E+00 0.  1.
      99926    2    1    2    0    0  0.14210854715E-13  0.88817841970E-15 -0.17124148929E+04  0.17703744728E+04  0.44928944854E+03 0.  0.
         25    1    3    3    0    0  0.10753701432E+03 -0.99653642471E+01 -0.67453803634E+03  0.69448728462E+03  0.12509000000E+03 0.  0.
         25    1    3    3    0    0 -0.68913840247E+02  0.41287887378E+01 -0.40168284581E+03  0.42633646453E+03  0.12509000000E+03 0.  0.
         25    1    3    3    0    0 -0.38623174073E+02  0.58365755093E+01 -0.63619401070E+03  0.64955072361E+03  0.12509000000E+03 0.  0.
<mgrwt>
<rscale>  2 0.44928945E+03</rscale>
<asrwt>0</asrwt>
<pdfrwt beam="1">  1       21 0.42617310E-02 0.44928945E+03</pdfrwt>
<pdfrwt beam="2">  1       21 0.25608762E+00 0.44928945E+03</pdfrwt>
<totfact> 0.18648860E+04</totfact>
</mgrwt>
</event>
<event>
 6    0  0.1576925E-007  0.4518294E+03  0.7546771E-02  0.1027178E+00
         21   -1    0    0  502  501  0.00000000000E+00  0.00000000000E+00  0.27261457827E+03  0.27261457827E+03  0.00000000000E+00 0. -1.
         21   -1    0    0  501  502 -0.00000000000E+00 -0.00000000000E+00 -0.18721472042E+03  0.18721472042E+03  0.00000000000E+00 0. -1.
      99926    2    1    2    0    0  0.00000000000E+00  0.71054273576E-14  0.85399857849E+02  0.45982929869E+03  0.45182944593E+03 0.  0.
         25    1    3    3    0    0  0.45999381209E+02  0.48828121375E+02  0.11973378741E+02  0.14244647559E+03  0.12509000000E+03 0.  0.
         25    1    3    3    0    0  0.35176087013E+02 -0.80775267960E+02  0.59793074098E+02  0.16427026761E+03  0.12509000000E+03 0.  0.
         25    1    3    3    0    0 -0.81175468222E+02  0.31947146585E+02  0.13633405011E+02  0.15311255549E+03  0.12509000000E+03 0.  0.
<mgrwt>
<rscale>  2 0.45182945E+03</rscale>
<asrwt>0</asrwt>
<pdfrwt beam="1">  1       21 0.40090379E-01 0.45182945E+03</pdfrwt>
<pdfrwt beam="2">  1       21 0.27531577E-01 0.45182945E+03</pdfrwt>
<totfact> 0.69941970E+04</totfact>
</mgrwt>
</event>
<event>
 6    0  0.1576925E-007  0.4492823E+03  0.7546771E-02  0.1027936E+00
         21   -1    0    0  502  501  0.00000000000E+00  0.00000000000E+00  0.26641853563E+03  0.26641853563E+03  0.00000000000E+00 0.  1.
         21   -1    0    0  501  502 -0.00000000000E+00 -0.00000000000E+00 -0.18941488772E+03  0.18941488772E+03  0.00000000000E+00 0.  1.
      99926    2    1    2    0    0  0.17763568394E-14  0.00000000000E+00  0.77003647907E+02  0.45583342334E+03  0.44928225877E+03 0.  0.
         25    1    3    3    0    0 -0.28298148069E+02  0.26745793379E+02 -0.62439232230E+02  0.14512852397E+03  0.12509000000E+03 0.  0.
         25    1    3    3    0    0  0.43569209827E+02  0.14938148478E+02  0.11433498568E+03  0.17561725820E+03  0.12509000000E+03 0.  0.
         25    1    3    3    0    0 -0.15271061758E+02 -0.41683941857E+02  0.25107894453E+02  0.13508764118E+03  0.12509000000E+03 0.  0.
<mgrwt>
<rscale>  2 0.44928226E+03</rscale>
<asrwt>0</asrwt>
<pdfrwt beam="1">  1       21 0.39179197E-01 0.44928226E+03</pdfrwt>
<pdfrwt beam="2">  1       21 0.27855130E-01 0.44928226E+03</pdfrwt>
<totfact> 0.71698971E+04</totfact>
</mgrwt>
</event>
<event>
 6    0  0.1576925E-007  0.4465437E+03  0.7546771E-02  0.1028758E+00
         21   -1    0    0  502  501  0.00000000000E+00  0.00000000000E+00  0.32333682302E+03  0.32333682302E+03  0.00000000000E+00 0.  1.
         21   -1    0    0  501  502 -0.00000000000E+00 -0.00000000000E+00 -0.15417460945E+03  0.15417460945E+03  0.00000000000E+00 0.  1.
      99926    2    1    2    0    0  0.00000000000E+00  0.93258734069E-14  0.16916221357E+03  0.47751143247E+03  0.44654374213E+03 0.  0.
         25    1    3    3    0    0 -0.57401211579E+02 -0.77259981537E+02  0.20478634568E+02  0.15915679819E+03  0.12509000000E+03 0.  0.
         25    1    3    3    0    0  0.34094368032E+02 -0.97647174639E+00  0.48178279740E+02  0.13831859661E+03  0.12509000000E+03 0.  0.
         25    1    3    3    0    0  0.23306843547E+02  0.78236453284E+02  0.10050529927E+03  0.18003603767E+03  0.12509000000E+03 0.  0.
<mgrwt>
<rscale>  2 0.44654374E+03</rscale>
<asrwt>0</asrwt>
<pdfrwt beam="1">  1       21 0.47549533E-01 0.44654374E+03</pdfrwt>
<pdfrwt beam="2">  1       21 0.22672737E-01 0.44654374E+03</pdfrwt>
<totfact> 0.71566284E+04</totfact>
</mgrwt>
</event>
<event>
 6    0  0.1576925E-007  0.4566619E+03  0.7546771E-02  0.1025754E+00
         21   -1    0    0  502  501  0.00000000000E+00  0.00000000000E+00  0.55258201260E+02  0.55258201260E+02  0.00000000000E+00 0. -1.
         21   -1    0    0  501  502 -0.00000000000E+00 -0.00000000000E+00 -0.94348033795E+03  0.94348033795E+03  0.00000000000E+00 0. -1.
      99926    2    1    2    0    0  0.71054273576E-14  0.00000000000E+00 -0.88822213669E+03  0.99873853921E+03  0.45666191608E+03 0.  0.
         25    1    3    3    0    0 -0.34156298818E+02 -0.10122685876E+03 -0.21254941532E+03  0.26877182094E+03  0.12509000000E+03 0.  0.
         25    1    3    3    0    0  0.34147151883E+02  0.33359334759E+02 -0.32042465466E+03  0.34727271792E+03  0.12509000000E+03 0.  0.
         25    1    3    3    0    0  0.91469348126E-02  0.67867523998E+02 -0.35524806672E+03  0.38269400035E+03  0.12509000000E+03 0.  0.
<mgrwt>
<rscale>  2 0.45666192E+03</rscale>
<asrwt>0</asrwt>
<pdfrwt beam="1">  1       21 0.81262072E-02 0.45666192E+03</pdfrwt>
<pdfrwt beam="2">  1       21 0.13874709E+00 0.45666192E+03</pdfrwt>
<totfact> 0.38711008E+04</totfact>
</mgrwt>
</event>
<event>
 6    0  0.1576925E-007  0.4500476E+03  0.7546771E-02  0.1027708E+00
         21   -1    0    0  502  501  0.00000000000E+00  0.00000000000E+00  0.10819215981E+03  0.10819215981E+03  0.00000000000E+00 0. -1.
         21   -1    0    0  501  502 -0.00000000000E+00 -0.00000000000E+00 -0.46801646797E+03  0.46801646797E+03  0.00000000000E+00 0. -1.
      99926    2    1    2    0    0  0.71054273576E-14  0.35527136788E-14 -0.35982430816E+03  0.57620862778E+03  0.45004760857E+03 0.  0.
         25    1    3    3    0    0 -0.80554286528E+02 -0.56624311934E+02 -0.96056829847E+02  0.18592936412E+03  0.12509000000E+03 0.  0.
         25    1    3    3    0    0  0.94074260170E+01 -0.99432608814E+01 -0.87950821030E+02  0.15352596888E+03  0.12509000000E+03 0.  0.
         25    1    3    3    0    0  0.71146860511E+02  0.66567572816E+02 -0.17581665728E+03  0.23675329478E+03  0.12509000000E+03 0.  0.
<mgrwt>
<rscale>  2 0.45004761E+03</rscale>
<asrwt>0</asrwt>
<pdfrwt beam="1">  1       21 0.15910612E-01 0.45004761E+03</pdfrwt>
<pdfrwt beam="2">  1       21 0.68825951E-01 0.45004761E+03</pdfrwt>
<totfact> 0.62581784E+04</totfact>
</mgrwt>
</event>
<event>
 6    0  0.1576925E-007  0.4476792E+03  0.7546771E-02  0.1028416E+00
         21   -1    0    0  502  501  0.00000000000E+00  0.00000000000E+00  0.12188374544E+04  0.12188374544E+04  0.00000000000E+00 0. -1.
         21   -1    0    0  501  502 -0.00000000000E+00 -0.00000000000E+00 -0.41108158661E+02  0.41108158661E+02  0.00000000000E+00 0. -1.
      99926    2    1    2    0    0  0.35527136788E-14  0.00000000000E+00  0.11777292957E+04  0.12599456130E+04  0.44767918628E+03 0.  0.
         25    1    3    3    0    0  0.34610201130E+02 -0.39243597917E+02  0.22724943243E+03  0.26462754702E+03  0.12509000000E+03 0.  0.
         25    1    3    3    0    0  0.31108241071E+02  0.75040801790E+02  0.50831643123E+03  0.52974705941E+03  0.12509000000E+03 0.  0.
         25    1    3    3    0    0 -0.65718442201E+02 -0.35797203874E+02  0.44216343205E+03  0.46557100660E+03  0.12509000000E+03 0.  0.
<mgrwt>
<rscale>  2 0.44767919E+03</rscale>
<asrwt>0</asrwt>
<pdfrwt beam="1">  1       21 0.17924078E+00 0.44767919E+03</pdfrwt>
<pdfrwt beam="2">  1       21 0.60453182E-02 0.44767919E+03</pdfrwt>
<totfact> 0.32090039E+04</totfact>
</mgrwt>
</event>
<event>
 6    0  0.1576925E-007  0.4616792E+03  0.7546771E-02  0.1024295E+00
         21   -1    0    0  502  501  0.00000000000E+00  0.00000000000E+00  0.28593032930E+02  0.28593032930E+02  0.00000000000E+00 0. -1.
         21   -1    0    0  501  502 -0.00000000000E+00 -0.00000000000E+00 -0.18636331883E+04  0.18636331883E+04  0.00000000000E+00 0. -1.
      99926    2    1    2    0    0  0.11102230246E-15 -0.71054273576E-14 -0.18350401554E+04  0.18922262212E+04  0.46167921817E+03 0.  0.
         25    1    3    3    0    0 -0.29562271867E+00 -0.19839308345E+02 -0.62954231320E+03  0.64215630321E+03  0.12509000000E+03 0.  0.
         25    1    3    3    0    0  0.31285884785E+01  0.70105850185E+02 -0.95383916453E+03  0.96456273938E+03  0.12509000000E+03 0.  0.
         25    1    3    3    0    0 -0.28329657599E+01 -0.50266541840E+02 -0.25165867762E+03  0.28550717862E+03  0.12509000000E+03 0.  0.
<mgrwt>
<rscale>  2 0.46167922E+03</rscale>
<asrwt>0</asrwt>
<pdfrwt beam="1">  1       21 0.42048553E-02 0.46167922E+03</pdfrwt>
<pdfrwt beam="2">  1       21 0.27406386E+00 0.46167922E+03</pdfrwt>
<totfact> 0.14769665E+04</totfact>
</mgrwt>
</event>
<event>
 6    0  0.1576925E-007  0.4647347E+03  0.7546771E-02  0.1023417E+00
         21   -1    0    0  502  501  0.00000000000E+00  0.00000000000E+00  0.49687172393E+03  0.49687172393E+03  0.00000000000E+00 0.  1.
         21   -1    0    0  501  502 -0.00000000000E+00 -0.00000000000E+00 -0.10866904316E+03  0.10866904316E+03  0.00000000000E+00 0.  1.
      99926    2    1    2    0    0 -0.35527136788E-14  0.00000000000E+00  0.38820268078E+03  0.60554076709E+03  0.46473465467E+03 0.  0.
         25    1    3    3    0    0 -0.16540144192E+02  0.10175128429E+03  0.76388718159E+02  0.17919164207E+03  0.12509000000E+03 0.  0.
         25    1    3    3    0    0 -0.12137689504E+02 -0.35046665182E+02  0.79790207311E+02  0.15293651470E+03  0.12509000000E+03 0.  0.
         25    1    3    3    0    0  0.28677833696E+02 -0.66704619111E+02  0.23202375531E+03  0.27341261032E+03  0.12509000000E+03 0.  0.
<mgrwt>
<rscale>  2 0.46473465E+03</rscale>
<asrwt>0</asrwt>
<pdfrwt beam="1">  1       21 0.73069370E-01 0.46473465E+03</pdfrwt>
<pdfrwt beam="2">  1       21 0.15980742E-01 0.46473465E+03</pdfrwt>
<totfact> 0.54059417E+04</totfact>
</mgrwt>
</event>
<event>
 6    0  0.1576925E-007  0.4522224E+03  0.7546771E-02  0.1027061E+00
         21   -1    0    0  502  501  0.00000000000E+00  0.00000000000E+00  0.28486541883E+03  0.28486541883E+03  0.00000000000E+00 0.  1.
         21   -1    0    0  501  502 -0.00000000000E+00 -0.00000000000E+00 -0.17947518822E+03  0.17947518822E+03  0.00000000000E+00 0.  1.
      99926    2    1    2    0    0  0.14210854715E-13 -0.35527136788E-14  0.10539023061E+03  0.46434060706E+03  0.45222239955E+03 0.  0.
         25    1    3    3    0    0  0.98498990403E+02 -0.30862047551E+02  0.38085081316E+02  0.16659081190E+03  0.12509000000E+03 0.  0.
         25    1    3    3    0    0 -0.41608253824E+02 -0.46911864276E+01 -0.16456378178E+02  0.13293447446E+03  0.12509000000E+03 0.  0.
         25    1    3    3    0    0 -0.56890736579E+02  0.35553233979E+02  0.83761527470E+02  0.16481532070E+03  0.12509000000E+03 0.  0.
<mgrwt>
<rscale>  2 0.45222240E+03</rscale>
<asrwt>0</asrwt>
<pdfrwt beam="1">  1       21 0.41891973E-01 0.45222240E+03</pdfrwt>
<pdfrwt beam="2">  1       21 0.26393410E-01 0.45222240E+03</pdfrwt>
<totfact> 0.69375162E+04</totfact>
</mgrwt>
</event>
<event>
 6    0  0.1576925E-007  0.4578869E+03  0.7546771E-02  0.1025396E+00
         21   -1    0    0  502  501  0.00000000000E+00  0.00000000000E+00  0.12941619967E+03  0.12941619967E+03  0.00000000000E+00 0.  1.
         21   -1    0    0  501  502 -0.00000000000E+00 -0.00000000000E+00 -0.40501198223E+03  0.40501198223E+03  0.00000000000E+00 0.  1.
      99926    2    1    2    0    0  0.35527136788E-14 -0.71054273576E-14 -0.27559578256E+03  0.53442818189E+03  0.45788693609E+03 0.  0.
         25    1    3    3    0    0  0.31971040290E+02 -0.24026300597E+02 -0.38401930895E+02  0.13682699636E+03  0.12509000000E+03 0.  0.
         25    1    3    3    0    0 -0.10460905295E+02 -0.72881545855E+02 -0.54730498100E+02  0.15512603195E+03  0.12509000000E+03 0.  0.
         25    1    3    3    0    0 -0.21510134995E+02  0.96907846453E+02 -0.18246335356E+03  0.24247515358E+03  0.12509000000E+03 0.  0.
<mgrwt>
<rscale>  2 0.45788694E+03</rscale>
<asrwt>0</asrwt>
<pdfrwt beam="1">  1       21 0.19031794E-01 0.45788694E+03</pdfrwt>
<pdfrwt beam="2">  1       21 0.59560586E-01 0.45788694E+03</pdfrwt>
<totfact> 0.61488761E+04</totfact>
</mgrwt>
</event>
<event>
 6    0  0.1576925E-007  0.4606322E+03  0.7546771E-02  0.1024598E+00
         21   -1    0    0  502  501  0.00000000000E+00  0.00000000000E+00  0.22744041841E+03  0.22744041841E+03  0.00000000000E+00 0.  1.
         21   -1    0    0  501  502 -0.00000000000E+00 -0.00000000000E+00 -0.23322809688E+03  0.23322809688E+03  0.00000000000E+00 0.  1.
      99926    2    1    2    0    0 -0.26645352591E-14  0.00000000000E+00 -0.57876784738E+01  0.46066851530E+03  0.46063215668E+03 0.  0.
         25    1    3    3    0    0 -0.49437360647E+02 -0.10563531165E+02 -0.21064097386E+02  0.13655345150E+03  0.12509000000E+03 0.  0.
         25    1    3    3    0    0 -0.64083958788E+01 -0.88105043183E+02 -0.97409346781E+01  0.15344692920E+03  0.12509000000E+03 0.  0.
         25    1    3    3    0    0  0.55845756526E+02  0.98668574348E+02  0.25017353591E+02  0.17066813460E+03  0.12509000000E+03 0.  0.
<mgrwt>
<rscale>  2 0.46063216E+03</rscale>
<asrwt>0</asrwt>
<pdfrwt beam="1">  1       21 0.33447120E-01 0.46063216E+03</pdfrwt>
<pdfrwt beam="2">  1       21 0.34298249E-01 0.46063216E+03</pdfrwt>
<totfact> 0.65154924E+04</totfact>
</mgrwt>
</event>
<event>
 6    0  0.1576925E-007  0.4523989E+03  0.7546771E-02  0.1027009E+00
         21   -1    0    0  502  501  0.00000000000E+00  0.00000000000E+00  0.27132703527E+03  0.27132703527E+03  0.00000000000E+00 0.  1.
         21   -1    0    0  501  502 -0.00000000000E+00 -0.00000000000E+00 -0.18857759665E+03  0.18857759665E+03  0.00000000000E+00 0.  1.
      99926    2    1    2    0    0  0.00000000000E+00 -0.35527136788E-14  0.82749438625E+02  0.45990463192E+03  0.45239893995E+03 0.  0.
         25    1    3    3    0    0 -0.53976807382E+02  0.45641744632E+02  0.97355587152E+02  0.17355772250E+03  0.12509000000E+03 0.  0.
         25    1    3    3    0    0  0.15991723089E+02  0.23547921673E+02  0.30207942048E+02  0.13179631135E+03  0.12509000000E+03 0.  0.
         25    1    3    3    0    0  0.37985084293E+02 -0.69189666305E+02 -0.44814090576E+02  0.15455059808E+03  0.12509000000E+03 0.  0.
<mgrwt>
<rscale>  2 0.45239894E+03</rscale>
<asrwt>0</asrwt>
<pdfrwt beam="1">  1       21 0.39901035E-01 0.45239894E+03</pdfrwt>
<pdfrwt beam="2">  1       21 0.27731999E-01 0.45239894E+03</pdfrwt>
<totfact> 0.69618433E+04</totfact>
</mgrwt>
</event>
<event>
 6    0  0.1576925E-007  0.4539092E+03  0.7546771E-02  0.1026563E+00
         21   -1    0    0  502  501  0.00000000000E+00  0.00000000000E+00  0.12912574022E+03  0.12912574022E+03  0.00000000000E+00 0.  1.
         21   -1    0    0  501  502 -0.00000000000E+00 -0.00000000000E+00 -0.39890107665E+03  0.39890107665E+03  0.00000000000E+00 0.  1.
      99926    2    1    2    0    0 -0.14988010832E-14  0.00000000000E+00 -0.26977533643E+03  0.52802681688E+03  0.45390922792E+03 0.  0.
         25    1    3    3    0    0  0.35099920985E+02  0.64301024067E+01 -0.15981830085E+03  0.20606491224E+03  0.12509000000E+03 0.  0.
         25    1    3    3    0    0 -0.35520948145E+02 -0.39246773026E+02  0.21541073584E+02  0.13752662615E+03  0.12509000000E+03 0.  0.
         25    1    3    3    0    0  0.42102715997E+00  0.32816670620E+02 -0.13149810917E+03  0.18443527848E+03  0.12509000000E+03 0.  0.
<mgrwt>
<rscale>  2 0.45390923E+03</rscale>
<asrwt>0</asrwt>
<pdfrwt beam="1">  1       21 0.18989080E-01 0.45390923E+03</pdfrwt>
<pdfrwt beam="2">  1       21 0.58661923E-01 0.45390923E+03</pdfrwt>
<totfact> 0.63890913E+04</totfact>
</mgrwt>
</event>
<event>
 6    0  0.1576925E-007  0.4632071E+03  0.7546771E-02  0.1023855E+00
         21   -1    0    0  502  501  0.00000000000E+00  0.00000000000E+00  0.15019440756E+03  0.15019440756E+03  0.00000000000E+00 0. -1.
         21   -1    0    0  501  502 -0.00000000000E+00 -0.00000000000E+00 -0.35713855334E+03  0.35713855334E+03  0.00000000000E+00 0. -1.
      99926    2    1    2    0    0  0.10658141036E-13  0.00000000000E+00 -0.20694414578E+03  0.50733296089E+03  0.46320713912E+03 0.  0.
         25    1    3    3    0    0  0.66768321083E+02 -0.17620304104E+02 -0.49981257262E+02  0.15137409948E+03  0.12509000000E+03 0.  0.
         25    1    3    3    0    0  0.28015430754E+02 -0.42550756652E+02 -0.12666350390E+03  0.18516636458E+03  0.12509000000E+03 0.  0.
         25    1    3    3    0    0 -0.94783751837E+02  0.60171060756E+02 -0.30299384622E+02  0.17079249683E+03  0.12509000000E+03 0.  0.
<mgrwt>
<rscale>  2 0.46320714E+03</rscale>
<asrwt>0</asrwt>
<pdfrwt beam="1">  1       21 0.22087413E-01 0.46320714E+03</pdfrwt>
<pdfrwt beam="2">  1       21 0.52520375E-01 0.46320714E+03</pdfrwt>
<totfact> 0.60706327E+04</totfact>
</mgrwt>
</event>
<event>
 6    0  0.1576925E-007  0.4620186E+03  0.7546771E-02  0.1024197E+00
         21   -1    0    0  502  501  0.00000000000E+00  0.00000000000E+00  0.13152035843E+04  0.13152035843E+04  0.00000000000E+00 0. -1.
         21   -1    0    0  501  502 -0.00000000000E+00 -0.00000000000E+00 -0.40575700948E+02  0.40575700948E+02  0.00000000000E+00 0. -1.
      99926    2    1    2    0    0  0.00000000000E+00 -0.71054273576E-14  0.12746278833E+04  0.13557792852E+04  0.46201864604E+03 0.  0.
         25    1    3    3    0    0 -0.60583384192E+02 -0.64571156881E+02  0.39493715088E+03  0.42363031287E+03  0.12509000000E+03 0.  0.
         25    1    3    3    0    0  0.72932298633E+02  0.34910232769E+02  0.26456639472E+03  0.30361279593E+03  0.12509000000E+03 0.  0.
         25    1    3    3    0    0 -0.12348914441E+02  0.29660924112E+02  0.61512433773E+03  0.62853617642E+03  0.12509000000E+03 0.  0.
<mgrwt>
<rscale>  2 0.46201865E+03</rscale>
<asrwt>0</asrwt>
<pdfrwt beam="1">  1       21 0.19341226E+00 0.46201865E+03</pdfrwt>
<pdfrwt beam="2">  1       21 0.59670157E-02 0.46201865E+03</pdfrwt>
<totfact> 0.26082373E+04</totfact>
</mgrwt>
</event>
<event>
 6    0  0.1576925E-007  0.4543269E+03  0.7546771E-02  0.1026440E+00
         21   -1    0    0  502  501  0.00000000000E+00  0.00000000000E+00  0.34881833026E+03  0.34881833026E+03  0.00000000000E+00 0.  1.
         21   -1    0    0  501  502 -0.00000000000E+00 -0.00000000000E+00 -0.14793725280E+03  0.14793725280E+03  0.00000000000E+00 0.  1.
      99926    2    1    2    0    0 -0.71054273576E-14  0.00000000000E+00  0.20088107746E+03  0.49675558305E+03  0.45432686693E+03 0.  0.
         25    1    3    3    0    0  0.88468758206E+02 -0.43084935838E+02  0.34578125078E+02  0.16286862101E+03  0.12509000000E+03 0.  0.
         25    1    3    3    0    0 -0.30662648623E+02  0.56268053042E+02  0.39093036178E+02  0.14588373930E+03  0.12509000000E+03 0.  0.
         25    1    3    3    0    0 -0.57806109582E+02 -0.13183117204E+02  0.12720991620E+03  0.18800322275E+03  0.12509000000E+03 0.  0.
<mgrwt>
<rscale>  2 0.45432687E+03</rscale>
<asrwt>0</asrwt>
<pdfrwt beam="1">  1       21 0.51296813E-01 0.45432687E+03</pdfrwt>
<pdfrwt beam="2">  1       21 0.21755478E-01 0.45432687E+03</pdfrwt>
<totfact> 0.65850368E+04</totfact>
</mgrwt>
</event>
<event>
 6    0  0.1576925E-007  0.4528497E+03  0.7546771E-02  0.1026876E+00
         21   -1    0    0  502  501  0.00000000000E+00  0.00000000000E+00  0.98611778781E+03  0.98611778781E+03  0.00000000000E+00 0.  1.
         21   -1    0    0  501  502 -0.00000000000E+00 -0.00000000000E+00 -0.51989937053E+02  0.51989937053E+02  0.00000000000E+00 0.  1.
      99926    2    1    2    0    0  0.00000000000E+00  0.19428902931E-14  0.93412785076E+03  0.10381077249E+04  0.45284965150E+03 0.  0.
         25    1    3    3    0    0 -0.59044489367E+02 -0.20820612272E+00  0.19880089947E+03  0.24218918391E+03  0.12509000000E+03 0.  0.
         25    1    3    3    0    0 -0.72982710417E+01 -0.68590169573E+02  0.28354598479E+03  0.31749599953E+03  0.12509000000E+03 0.  0.
         25    1    3    3    0    0  0.66342760409E+02  0.68798375696E+02  0.45178096649E+03  0.47842254142E+03  0.12509000000E+03 0.  0.
<mgrwt>
<rscale>  2 0.45284965E+03</rscale>
<asrwt>0</asrwt>
<pdfrwt beam="1">  1       21 0.14501731E+00 0.45284965E+03</pdfrwt>
<pdfrwt beam="2">  1       21 0.76455796E-02 0.45284965E+03</pdfrwt>
<totfact> 0.38356632E+04</totfact>
</mgrwt>
</event>
<event>
 6    0  0.1576925E-007  0.4522221E+03  0.7546771E-02  0.1027061E+00
         21   -1    0    0  502  501  0.00000000000E+00  0.00000000000E+00  0.30428199060E+04  0.30428199060E+04  0.00000000000E+00 0. -1.
         21   -1    0    0  501  502 -0.00000000000E+00 -0.00000000000E+00 -0.16802244729E+02  0.16802244729E+02  0.00000000000E+00 0. -1.
      99926    2    1    2    0    0  0.35527136788E-14 -0.35527136788E-14  0.30260176613E+04  0.30596221507E+04  0.45222209024E+03 0.  0.
         25    1    3    3    0    0  0.26652574302E+02 -0.27683962154E+02  0.17141670799E+04  0.17191547479E+04  0.12509000000E+03 0.  0.
         25    1    3    3    0    0 -0.21913906193E+02 -0.27591706533E+02  0.47297953663E+03  0.49050858476E+03  0.12509000000E+03 0.  0.
         25    1    3    3    0    0 -0.47386681091E+01  0.55275668688E+02  0.83887104475E+03  0.84995881802E+03  0.12509000000E+03 0.  0.
<mgrwt>
<rscale>  2 0.45222209E+03</rscale>
<asrwt>0</asrwt>
<pdfrwt beam="1">  1       21 0.44747313E+00 0.45222209E+03</pdfrwt>
<pdfrwt beam="2">  1       21 0.24709204E-02 0.45222209E+03</pdfrwt>
<totfact> 0.29931922E+03</totfact>
</mgrwt>
</event>
<event>
 6    0  0.1576925E-007  0.4569126E+03  0.7546771E-02  0.1025680E+00
         21   -1    0    0  502  501  0.00000000000E+00  0.00000000000E+00  0.20546910240E+03  0.20546910240E+03  0.00000000000E+00 0.  1.
         21   -1    0    0  501  502 -0.00000000000E+00 -0.00000000000E+00 -0.25401520099E+03  0.25401520099E+03  0.00000000000E+00 0.  1.
      99926    2    1    2    0    0 -0.14210854715E-13  0.35527136788E-14 -0.48546098590E+02  0.45948430339E+03  0.45691257519E+03 0.  0.
         25    1    3    3    0    0  0.20911010414E+02  0.90645626755E+01  0.14372352861E+02  0.12795901406E+03  0.12509000000E+03 0.  0.
         25    1    3    3    0    0 -0.99307991328E+02  0.16883626372E+02 -0.82166167192E+02  0.18040488107E+03  0.12509000000E+03 0.  0.
         25    1    3    3    0    0  0.78396980914E+02 -0.25948189047E+02  0.19247715741E+02  0.15112040826E+03  0.12509000000E+03 0.  0.
<mgrwt>
<rscale>  2 0.45691258E+03</rscale>
<asrwt>0</asrwt>
<pdfrwt beam="1">  1       21 0.30216045E-01 0.45691258E+03</pdfrwt>
<pdfrwt beam="2">  1       21 0.37355176E-01 0.45691258E+03</pdfrwt>
<totfact> 0.67187368E+04</totfact>
</mgrwt>
</event>
<event>
 6    0  0.1576925E-007  0.4670944E+03  0.7546771E-02  0.1022744E+00
         21   -1    0    0  502  501  0.00000000000E+00  0.00000000000E+00  0.13202898231E+03  0.13202898231E+03  0.00000000000E+00 0. -1.
         21   -1    0    0  501  502 -0.00000000000E+00 -0.00000000000E+00 -0.41312357701E+03  0.41312357701E+03  0.00000000000E+00 0. -1.
      99926    2    1    2    0    0  0.35527136788E-14  0.00000000000E+00 -0.28109459469E+03  0.54515255932E+03  0.46709436067E+03 0.  0.
         25    1    3    3    0    0  0.18570762777E+02 -0.77182351514E+02 -0.12210260762E+02  0.14865593558E+03  0.12509000000E+03 0.  0.
         25    1    3    3    0    0  0.29984020026E+02  0.85522837235E+02 -0.11783667294E+03  0.19428377888E+03  0.12509000000E+03 0.  0.
         25    1    3    3    0    0 -0.48554782803E+02 -0.83404857208E+01 -0.15104766100E+03  0.20221284486E+03  0.12509000000E+03 0.  0.
<mgrwt>
<rscale>  2 0.46709436E+03</rscale>
<asrwt>0</asrwt>
<pdfrwt beam="1">  1       21 0.19416027E-01 0.46709436E+03</pdfrwt>
<pdfrwt beam="2">  1       21 0.60753467E-01 0.46709436E+03</pdfrwt>
<totfact> 0.56572710E+04</totfact>
</mgrwt>
</event>
<event>
 6    0  0.1576925E-007  0.4737798E+03  0.7546771E-02  0.1020859E+00
         21   -1    0    0  502  501  0.00000000000E+00  0.00000000000E+00  0.15192007835E+04  0.15192007835E+04  0.00000000000E+00 0.  1.
         21   -1    0    0  501  502 -0.00000000000E+00 -0.00000000000E+00 -0.36938383323E+02  0.36938383323E+02  0.00000000000E+00 0.  1.
      99926    2    1    2    0    0 -0.17763568394E-14  0.53290705182E-14  0.14822624001E+04  0.15561391668E+04  0.47377978380E+03 0.  0.
         25    1    3    3    0    0  0.64985008599E+01  0.10079272538E+02  0.23318491233E+03  0.26488966323E+03  0.12509000000E+03 0.  0.
         25    1    3    3    0    0  0.30409451196E+02 -0.10489974938E+03  0.63466082973E+03  0.65602634783E+03  0.12509000000E+03 0.  0.
         25    1    3    3    0    0 -0.36907952056E+02  0.94820476845E+02  0.61441665808E+03  0.63522315573E+03  0.12509000000E+03 0.  0.
<mgrwt>
<rscale>  2 0.47377978E+03</rscale>
<asrwt>0</asrwt>
<pdfrwt beam="1">  1       21 0.22341184E+00 0.47377978E+03</pdfrwt>
<pdfrwt beam="2">  1       21 0.54321162E-02 0.47377978E+03</pdfrwt>
<totfact> 0.19442284E+04</totfact>
</mgrwt>
</event>
<event>
 6    0  0.1576925E-007  0.4539874E+03  0.7546771E-02  0.1026540E+00
         21   -1    0    0  502  501  0.00000000000E+00  0.00000000000E+00  0.95106693301E+03  0.95106693301E+03  0.00000000000E+00 0.  1.
         21   -1    0    0  501  502 -0.00000000000E+00 -0.00000000000E+00 -0.54177206322E+02  0.54177206322E+02  0.00000000000E+00 0.  1.
      99926    2    1    2    0    0  0.00000000000E+00  0.00000000000E+00  0.89688972669E+03  0.10052441393E+04  0.45398744236E+03 0.  0.
         25    1    3    3    0    0  0.45310191704E+01 -0.63961453600E+02  0.16053704521E+03  0.21338052551E+03  0.12509000000E+03 0.  0.
         25    1    3    3    0    0  0.46253783554E+00 -0.58904314345E+01  0.19418849665E+03  0.23106620578E+03  0.12509000000E+03 0.  0.
         25    1    3    3    0    0 -0.49935570059E+01  0.69851885035E+02  0.54216418483E+03  0.56079740805E+03  0.12509000000E+03 0.  0.
<mgrwt>
<rscale>  2 0.45398744E+03</rscale>
<asrwt>0</asrwt>
<pdfrwt beam="1">  1       21 0.13986277E+00 0.45398744E+03</pdfrwt>
<pdfrwt beam="2">  1       21 0.79672368E-02 0.45398744E+03</pdfrwt>
<totfact> 0.39273065E+04</totfact>
</mgrwt>
</event>
<event>
 6    0  0.1576925E-007  0.4555387E+03  0.7546771E-02  0.1026083E+00
         21   -1    0    0  502  501  0.00000000000E+00  0.00000000000E+00  0.21946506484E+03  0.21946506484E+03  0.00000000000E+00 0.  1.
         21   -1    0    0  501  502 -0.00000000000E+00 -0.00000000000E+00 -0.23638784032E+03  0.23638784032E+03  0.00000000000E+00 0.  1.
      99926    2    1    2    0    0 -0.35527136788E-14  0.00000000000E+00 -0.16922775486E+02  0.45585290516E+03  0.45553868201E+03 0.  0.
         25    1    3    3    0    0 -0.15686141529E+02  0.19546669282E+02 -0.20695882310E+02  0.12924378113E+03  0.12509000000E+03 0.  0.
         25    1    3    3    0    0 -0.91587227109E+02  0.24129752941E+01  0.31077191223E+02  0.15813710043E+03  0.12509000000E+03 0.  0.
         25    1    3    3    0    0  0.10727336864E+03 -0.21959644576E+02 -0.27304084399E+02  0.16847202359E+03  0.12509000000E+03 0.  0.
<mgrwt>
<rscale>  2 0.45553868E+03</rscale>
<asrwt>0</asrwt>
<pdfrwt beam="1">  1       21 0.32274274E-01 0.45553868E+03</pdfrwt>
<pdfrwt beam="2">  1       21 0.34762918E-01 0.45553868E+03</pdfrwt>
<totfact> 0.68189813E+04</totfact>
</mgrwt>
</event>
<event>
 6    0  0.1576925E-007  0.4593522E+03  0.7546771E-02  0.1024969E+00
         21   -1    0    0  502  501  0.00000000000E+00  0.00000000000E+00  0.15743321425E+02  0.15743321425E+02  0.00000000000E+00 0. -1.
         21   -1    0    0  501  502 -0.00000000000E+00 -0.00000000000E+00 -0.33506974463E+04  0.33506974463E+04  0.00000000000E+00 0. -1.
      99926    2    1    2    0    0  0.00000000000E+00  0.00000000000E+00 -0.33349541249E+04  0.33664407677E+04  0.45935218251E+03 0.  0.
         25    1    3    3    0    0  0.33853361067E+01 -0.28937163968E+02 -0.11564463732E+04  0.11635568495E+04  0.12509000000E+03 0.  0.
         25    1    3    3    0    0 -0.10663889325E+02  0.11406661072E+03 -0.13530983141E+04  0.13636889184E+04  0.12509000000E+03 0.  0.
         25    1    3    3    0    0  0.72785532185E+01 -0.85129446756E+02 -0.82540943756E+03  0.83919499984E+03  0.12509000000E+03 0.  0.
<mgrwt>
<rscale>  2 0.45935218E+03</rscale>
<asrwt>0</asrwt>
<pdfrwt beam="1">  1       21 0.23151914E-02 0.45935218E+03</pdfrwt>
<pdfrwt beam="2">  1       21 0.49275024E+00 0.45935218E+03</pdfrwt>
<totfact> 0.16151904E+03</totfact>
</mgrwt>
</event>
<event>
 6    0  0.1576925E-007  0.4537293E+03  0.7546771E-02  0.1026616E+00
         21   -1    0    0  502  501  0.00000000000E+00  0.00000000000E+00  0.55435903937E+02  0.55435903937E+02  0.00000000000E+00 0.  1.
         21   -1    0    0  501  502 -0.00000000000E+00 -0.00000000000E+00 -0.92841592415E+03  0.92841592415E+03  0.00000000000E+00 0.  1.
      99926    2    1    2    0    0  0.51070259133E-14  0.35527136788E-14 -0.87298002022E+03  0.98385182809E+03  0.45372932894E+03 0.  0.
         25    1    3    3    0    0  0.89570701558E+02  0.11978511818E+02 -0.20663968938E+03  0.25790282017E+03  0.12509000000E+03 0.  0.
         25    1    3    3    0    0 -0.91365003554E+00  0.28080485496E+02 -0.33400387716E+03  0.35776451261E+03  0.12509000000E+03 0.  0.
         25    1    3    3    0    0 -0.88657051522E+02 -0.40058997314E+02 -0.33233645367E+03  0.36818449531E+03  0.12509000000E+03 0.  0.
<mgrwt>
<rscale>  2 0.45372933E+03</rscale>
<asrwt>0</asrwt>
<pdfrwt beam="1">  1       21 0.81523395E-02 0.45372933E+03</pdfrwt>
<pdfrwt beam="2">  1       21 0.13653174E+00 0.45372933E+03</pdfrwt>
<totfact> 0.40197113E+04</totfact>
</mgrwt>
</event>
<event>
 6    0  0.1576925E-007  0.4557230E+03  0.7546771E-02  0.1026029E+00
         21   -1    0    0  502  501  0.00000000000E+00  0.00000000000E+00  0.16268898115E+03  0.16268898115E+03  0.00000000000E+00 0. -1.
         21   -1    0    0  501  502 -0.00000000000E+00 -0.00000000000E+00 -0.31914187229E+03  0.31914187229E+03  0.00000000000E+00 0. -1.
      99926    2    1    2    0    0  0.35527136788E-14  0.00000000000E+00 -0.15645289113E+03  0.48183085344E+03  0.45572301256E+03 0.  0.
         25    1    3    3    0    0  0.31134177751E+02  0.73739266914E+02 -0.75523481949E+02  0.16660768570E+03  0.12509000000E+03 0.  0.
         25    1    3    3    0    0 -0.73984320832E+01  0.27451453583E+02  0.10395040951E+02  0.12870075399E+03  0.12509000000E+03 0.  0.
         25    1    3    3    0    0 -0.23735745668E+02 -0.10119072050E+03 -0.91324450135E+02  0.18652241375E+03  0.12509000000E+03 0.  0.
<mgrwt>
<rscale>  2 0.45572301E+03</rscale>
<asrwt>0</asrwt>
<pdfrwt beam="1">  1       21 0.23924850E-01 0.45572301E+03</pdfrwt>
<pdfrwt beam="2">  1       21 0.46932628E-01 0.45572301E+03</pdfrwt>
<totfact> 0.66186400E+04</totfact>
</mgrwt>
</event>
<event>
 6    0  0.1576925E-007  0.4595784E+03  0.7546771E-02  0.1024904E+00
         21   -1    0    0  502  501  0.00000000000E+00  0.00000000000E+00  0.13507023059E+03  0.13507023059E+03  0.00000000000E+00 0.  1.
         21   -1    0    0  501  502 -0.00000000000E+00 -0.00000000000E+00 -0.39093045902E+03  0.39093045902E+03  0.00000000000E+00 0.  1.
      99926    2    1    2    0    0 -0.71054273576E-14  0.71054273576E-14 -0.25586022842E+03  0.52600068961E+03  0.45957836000E+03 0.  0.
         25    1    3    3    0    0 -0.56826562089E+02 -0.65675783539E+02 -0.69233968371E+02  0.16728244731E+03  0.12509000000E+03 0.  0.
         25    1    3    3    0    0 -0.30480774696E+01  0.10031609706E+03 -0.73441303124E+02  0.17639088188E+03  0.12509000000E+03 0.  0.
         25    1    3    3    0    0  0.59874639558E+02 -0.34640313516E+02 -0.11318495693E+03  0.18232736042E+03  0.12509000000E+03 0.  0.
<mgrwt>
<rscale>  2 0.45957836E+03</rscale>
<asrwt>0</asrwt>
<pdfrwt beam="1">  1       21 0.19863270E-01 0.45957836E+03</pdfrwt>
<pdfrwt beam="2">  1       21 0.57489772E-01 0.45957836E+03</pdfrwt>
<totfact> 0.61225457E+04</totfact>
</mgrwt>
</event>
<event>
 6    0  0.1576925E-007  0.4668658E+03  0.7546771E-02  0.1022809E+00
         21   -1    0    0  502  501  0.00000000000E+00  0.00000000000E+00  0.13156414657E+04  0.13156414657E+04  0.00000000000E+00 0.  1.
         21   -1    0    0  501  502 -0.00000000000E+00 -0.00000000000E+00 -0.41417749531E+02  0.41417749531E+02  0.00000000000E+00 0.  1.
      99926    2    1    2    0    0  0.00000000000E+00  0.00000000000E+00  0.12742237161E+04  0.13570592152E+04  0.46686575671E+03 0.  0.
         25    1    3    3    0    0  0.10760360031E+03 -0.44151629273E+02  0.42550107630E+03  0.45850471666E+03  0.12509000000E+03 0.  0.
         25    1    3    3    0    0 -0.85168077659E+02  0.45378000853E+02  0.58260178799E+03  0.60364320246E+03  0.12509000000E+03 0.  0.
         25    1    3    3    0    0 -0.22435522647E+02 -0.12263715808E+01  0.26612085184E+03  0.29491129607E+03  0.12509000000E+03 0.  0.
<mgrwt>
<rscale>  2 0.46686576E+03</rscale>
<asrwt>0</asrwt>
<pdfrwt beam="1">  1       21 0.19347666E+00 0.46686576E+03</pdfrwt>
<pdfrwt beam="2">  1       21 0.60908464E-02 0.46686576E+03</pdfrwt>
<totfact> 0.25102764E+04</totfact>
</mgrwt>
</event>
<event>
 6    0  0.1576925E-007  0.4582100E+03  0.7546771E-02  0.1025302E+00
         21   -1    0    0  502  501  0.00000000000E+00  0.00000000000E+00  0.29457967444E+03  0.29457967444E+03  0.00000000000E+00 0. -1.
         21   -1    0    0  501  502 -0.00000000000E+00 -0.00000000000E+00 -0.17818305831E+03  0.17818305831E+03  0.00000000000E+00 0. -1.
      99926    2    1    2    0    0 -0.17763568394E-14  0.71054273576E-14  0.11639661613E+03  0.47276273275E+03  0.45821002742E+03 0.  0.
         25    1    3    3    0    0 -0.30479582081E+02 -0.82287721144E+02  0.56164009060E+02  0.16279489546E+03  0.12509000000E+03 0.  0.
         25    1    3    3    0    0 -0.14062912142E+02 -0.30227854883E+02  0.16417305955E+02  0.13049338965E+03  0.12509000000E+03 0.  0.
         25    1    3    3    0    0  0.44542494223E+02  0.11251557603E+03  0.43815301114E+02  0.17947444763E+03  0.12509000000E+03 0.  0.
<mgrwt>
<rscale>  2 0.45821003E+03</rscale>
<asrwt>0</asrwt>
<pdfrwt beam="1">  1       21 0.43320541E-01 0.45821003E+03</pdfrwt>
<pdfrwt beam="2">  1       21 0.26203391E-01 0.45821003E+03</pdfrwt>
<totfact> 0.65545657E+04</totfact>
</mgrwt>
</event>
<event>
 6    0  0.1576925E-007  0.4387146E+03  0.7546771E-02  0.1031142E+00
         21   -1    0    0  502  501  0.00000000000E+00  0.00000000000E+00  0.13859783456E+03  0.13859783456E+03  0.00000000000E+00 0. -1.
         21   -1    0    0  501  502 -0.00000000000E+00 -0.00000000000E+00 -0.34717449741E+03  0.34717449741E+03  0.00000000000E+00 0. -1.
      99926    2    1    2    0    0  0.00000000000E+00  0.00000000000E+00 -0.20857666285E+03  0.48577233197E+03  0.43871463871E+03 0.  0.
         25    1    3    3    0    0  0.38891887736E+02  0.42764610789E+02 -0.10185503587E+03  0.17135736722E+03  0.12509000000E+03 0.  0.
         25    1    3    3    0    0 -0.56436345881E+02 -0.10791862917E+02 -0.12107941550E+03  0.18332828042E+03  0.12509000000E+03 0.  0.
         25    1    3    3    0    0  0.17544458145E+02 -0.31972747872E+02  0.14357788528E+02  0.13108668433E+03  0.12509000000E+03 0.  0.
<mgrwt>
<rscale>  2 0.43871464E+03</rscale>
<asrwt>0</asrwt>
<pdfrwt beam="1">  1       21 0.20382035E-01 0.43871464E+03</pdfrwt>
<pdfrwt beam="2">  1       21 0.51055072E-01 0.43871464E+03</pdfrwt>
<totfact> 0.75592250E+04</totfact>
</mgrwt>
</event>
<event>
 6    0  0.1576925E-007  0.4724187E+03  0.7546771E-02  0.1021240E+00
         21   -1    0    0  502  501  0.00000000000E+00  0.00000000000E+00  0.63040799530E+03  0.63040799530E+03  0.00000000000E+00 0. -1.
         21   -1    0    0  501  502 -0.00000000000E+00 -0.00000000000E+00 -0.88505945460E+02  0.88505945460E+02  0.00000000000E+00 0. -1.
      99926    2    1    2    0    0  0.00000000000E+00  0.00000000000E+00  0.54190204984E+03  0.71891394076E+03  0.47241869417E+03 0.  0.
         25    1    3    3    0    0 -0.79189868989E+02  0.22390076690E+02  0.26909265902E+03  0.30794596624E+03  0.12509000000E+03 0.  0.
         25    1    3    3    0    0  0.10103512833E+03  0.66469625823E+01  0.83869628747E+02  0.18147700128E+03  0.12509000000E+03 0.  0.
         25    1    3    3    0    0 -0.21845259343E+02 -0.29037039272E+02  0.18893976207E+03  0.22949097324E+03  0.12509000000E+03 0.  0.
<mgrwt>
<rscale>  2 0.47241869E+03</rscale>
<asrwt>0</asrwt>
<pdfrwt beam="1">  1       21 0.92707056E-01 0.47241869E+03</pdfrwt>
<pdfrwt beam="2">  1       21 0.13015581E-01 0.47241869E+03</pdfrwt>
<totfact> 0.45347244E+04</totfact>
</mgrwt>
</event>
<event>
 6    0  0.1576925E-007  0.4508462E+03  0.7546771E-02  0.1027470E+00
         21   -1    0    0  502  501  0.00000000000E+00  0.00000000000E+00  0.73538440601E+02  0.73538440601E+02  0.00000000000E+00 0.  1.
         21   -1    0    0  501  502 -0.00000000000E+00 -0.00000000000E+00 -0.69100706414E+03  0.69100706414E+03  0.00000000000E+00 0.  1.
      99926    2    1    2    0    0  0.00000000000E+00  0.00000000000E+00 -0.61746862354E+03  0.76454550474E+03  0.45084623517E+03 0.  0.
         25    1    3    3    0    0  0.90584875455E+02 -0.50306400453E+02 -0.28652542930E+03  0.32936405894E+03  0.12509000000E+03 0.  0.
         25    1    3    3    0    0 -0.51288349943E+02  0.33181189159E+02 -0.22990861869E+03  0.26876935689E+03  0.12509000000E+03 0.  0.
         25    1    3    3    0    0 -0.39296525512E+02  0.17125211295E+02 -0.10103457554E+03  0.16641208891E+03  0.12509000000E+03 0.  0.
<mgrwt>
<rscale>  2 0.45084624E+03</rscale>
<asrwt>0</asrwt>
<pdfrwt beam="1">  1       21 0.10814476E-01 0.45084624E+03</pdfrwt>
<pdfrwt beam="2">  1       21 0.10161869E+00 0.45084624E+03</pdfrwt>
<totfact> 0.51175857E+04</totfact>
</mgrwt>
</event>
<event>
 6    0  0.1576925E-007  0.4683812E+03  0.7546771E-02  0.1022378E+00
         21   -1    0    0  502  501  0.00000000000E+00  0.00000000000E+00  0.25476074897E+03  0.25476074897E+03  0.00000000000E+00 0. -1.
         21   -1    0    0  501  502 -0.00000000000E+00 -0.00000000000E+00 -0.21528138226E+03  0.21528138226E+03  0.00000000000E+00 0. -1.
      99926    2    1    2    0    0 -0.14210854715E-13  0.00000000000E+00  0.39479366714E+02  0.47004213123E+03  0.46838123867E+03 0.  0.
         25    1    3    3    0    0  0.25867514715E+02  0.24678986241E+02  0.13686574784E+02  0.13081670806E+03  0.12509000000E+03 0.  0.
         25    1    3    3    0    0 -0.11477379984E+03  0.35367960253E+02  0.15734260000E+02  0.17412349864E+03  0.12509000000E+03 0.  0.
         25    1    3    3    0    0  0.88906285124E+02 -0.60046946494E+02  0.10058531929E+02  0.16510192453E+03  0.12509000000E+03 0.  0.
<mgrwt>
<rscale>  2 0.46838124E+03</rscale>
<asrwt>0</asrwt>
<pdfrwt beam="1">  1       21 0.37464816E-01 0.46838124E+03</pdfrwt>
<pdfrwt beam="2">  1       21 0.31659027E-01 0.46838124E+03</pdfrwt>
<totfact> 0.60712127E+04</totfact>
</mgrwt>
</event>
<event>
 6    0  0.1576925E-007  0.4557481E+03  0.7546771E-02  0.1026022E+00
         21   -1    0    0  502  501  0.00000000000E+00  0.00000000000E+00  0.15244997517E+03  0.15244997517E+03  0.00000000000E+00 0. -1.
         21   -1    0    0  501  502 -0.00000000000E+00 -0.00000000000E+00 -0.34061395428E+03  0.34061395428E+03  0.00000000000E+00 0. -1.
      99926    2    1    2    0    0 -0.44408920985E-14 -0.35527136788E-14 -0.18816397912E+03  0.49306392945E+03  0.45574812724E+03 0.  0.
         25    1    3    3    0    0 -0.46708090031E+01 -0.17824250864E+02 -0.21571587621E+02  0.12826676057E+03  0.12509000000E+03 0.  0.
         25    1    3    3    0    0  0.96571490189E+02  0.49831885099E+02 -0.76680551345E+02  0.18258336327E+03  0.12509000000E+03 0.  0.
         25    1    3    3    0    0 -0.91900681186E+02 -0.32007634235E+02 -0.89911840149E+02  0.18221380560E+03  0.12509000000E+03 0.  0.
<mgrwt>
<rscale>  2 0.45574813E+03</rscale>
<asrwt>0</asrwt>
<pdfrwt beam="1">  1       21 0.22419114E-01 0.45574813E+03</pdfrwt>
<pdfrwt beam="2">  1       21 0.50090288E-01 0.45574813E+03</pdfrwt>
<totfact> 0.65371621E+04</totfact>
</mgrwt>
</event>
<event>
 6    0  0.1576925E-007  0.4560635E+03  0.7546771E-02  0.1025929E+00
         21   -1    0    0  502  501  0.00000000000E+00  0.00000000000E+00  0.14448675799E+03  0.14448675799E+03  0.00000000000E+00 0. -1.
         21   -1    0    0  501  502 -0.00000000000E+00 -0.00000000000E+00 -0.35988409551E+03  0.35988409551E+03  0.00000000000E+00 0. -1.
      99926    2    1    2    0    0  0.00000000000E+00  0.00000000000E+00 -0.21539733752E+03  0.50437085350E+03  0.45606353160E+03 0.  0.
         25    1    3    3    0    0  0.76380255183E+02  0.24864320381E+02 -0.18482938327E+03  0.23719525044E+03  0.12509000000E+03 0.  0.
         25    1    3    3    0    0 -0.57053978154E+02 -0.13156654476E+02 -0.10845020530E+02  0.13854016223E+03  0.12509000000E+03 0.  0.
         25    1    3    3    0    0 -0.19326277028E+02 -0.11707665905E+02 -0.19722933720E+02  0.12863544084E+03  0.12509000000E+03 0.  0.
<mgrwt>
<rscale>  2 0.45606353E+03</rscale>
<asrwt>0</asrwt>
<pdfrwt beam="1">  1       21 0.21248053E-01 0.45606353E+03</pdfrwt>
<pdfrwt beam="2">  1       21 0.52924132E-01 0.45606353E+03</pdfrwt>
<totfact> 0.64419143E+04</totfact>
</mgrwt>
</event>
<event>
 6    0  0.1576925E-007  0.4665919E+03  0.7546771E-02  0.1022887E+00
         21   -1    0    0  502  501  0.00000000000E+00  0.00000000000E+00  0.28858007731E+03  0.28858007731E+03  0.00000000000E+00 0.  1.
         21   -1    0    0  501  502 -0.00000000000E+00 -0.00000000000E+00 -0.18860278653E+03  0.18860278653E+03  0.00000000000E+00 0.  1.
      99926    2    1    2    0    0 -0.26645352591E-14 -0.14210854715E-13  0.99977290780E+02  0.47718286384E+03  0.46659192756E+03 0.  0.
         25    1    3    3    0    0 -0.84810101766E+02  0.64369219540E+02  0.80488828583E+01  0.16446410673E+03  0.12509000000E+03 0.  0.
         25    1    3    3    0    0  0.77842483895E+02  0.10335498580E+02  0.75665956146E+02  0.16594914838E+03  0.12509000000E+03 0.  0.
         25    1    3    3    0    0  0.69676178702E+01 -0.74704718120E+02  0.16262451776E+02  0.14676960873E+03  0.12509000000E+03 0.  0.
<mgrwt>
<rscale>  2 0.46659193E+03</rscale>
<asrwt>0</asrwt>
<pdfrwt beam="1">  1       21 0.42438247E-01 0.46659193E+03</pdfrwt>
<pdfrwt beam="2">  1       21 0.27735704E-01 0.46659193E+03</pdfrwt>
<totfact> 0.61089328E+04</totfact>
</mgrwt>
</event>
<event>
 6    0  0.1576925E-007  0.4864855E+03  0.7546771E-02  0.1017368E+00
         21   -1    0    0  502  501  0.00000000000E+00  0.00000000000E+00  0.80838322520E+02  0.80838322520E+02  0.00000000000E+00 0.  1.
         21   -1    0    0  501  502 -0.00000000000E+00 -0.00000000000E+00 -0.73191808147E+03  0.73191808147E+03  0.00000000000E+00 0.  1.
      99926    2    1    2    0    0 -0.71054273576E-14  0.00000000000E+00 -0.65107975895E+03  0.81275640399E+03  0.48648547739E+03 0.  0.
         25    1    3    3    0    0 -0.40484764735E+02  0.22916023796E+02 -0.30145971507E+03  0.32968110081E+03  0.12509000000E+03 0.  0.
         25    1    3    3    0    0  0.94150541470E+02  0.28702082789E+02 -0.27914886384E+03  0.32134052079E+03  0.12509000000E+03 0.  0.
         25    1    3    3    0    0 -0.53665776735E+02 -0.51618106585E+02 -0.70471180043E+02  0.16173478240E+03  0.12509000000E+03 0.  0.
<mgrwt>
<rscale>  2 0.48648548E+03</rscale>
<asrwt>0</asrwt>
<pdfrwt beam="1">  1       21 0.11887989E-01 0.48648548E+03</pdfrwt>
<pdfrwt beam="2">  1       21 0.10763501E+00 0.48648548E+03</pdfrwt>
<totfact> 0.37101949E+04</totfact>
</mgrwt>
</event>
<event>
 6    0  0.1576925E-007  0.4430831E+03  0.7546771E-02  0.1029805E+00
         21   -1    0    0  502  501  0.00000000000E+00  0.00000000000E+00  0.23205422538E+02  0.23205422538E+02  0.00000000000E+00 0.  1.
         21   -1    0    0  501  502 -0.00000000000E+00 -0.00000000000E+00 -0.21150508839E+04  0.21150508839E+04  0.00000000000E+00 0.  1.
      99926    2    1    2    0    0  0.00000000000E+00 -0.71054273576E-14 -0.20918454613E+04  0.21382563064E+04  0.44308305971E+03 0.  0.
         25    1    3    3    0    0  0.14485306443E+02  0.13141347953E+02 -0.85127885914E+03  0.86064262225E+03  0.12509000000E+03 0.  0.
         25    1    3    3    0    0  0.23442140051E+01 -0.61152929006E+02 -0.90895127649E+03  0.91955701683E+03  0.12509000000E+03 0.  0.
         25    1    3    3    0    0 -0.16829520449E+02  0.48011581053E+02 -0.33161532571E+03  0.35805666733E+03  0.12509000000E+03 0.  0.
<mgrwt>
<rscale>  2 0.44308306E+03</rscale>
<asrwt>0</asrwt>
<pdfrwt beam="1">  1       21 0.34125632E-02 0.44308306E+03</pdfrwt>
<pdfrwt beam="2">  1       21 0.31103680E+00 0.44308306E+03</pdfrwt>
<totfact> 0.12717880E+04</totfact>
</mgrwt>
</event>
<event>
 6    0  0.1576925E-007  0.4532824E+03  0.7546771E-02  0.1026748E+00
         21   -1    0    0  502  501  0.00000000000E+00  0.00000000000E+00  0.23186589694E+03  0.23186589694E+03  0.00000000000E+00 0.  1.
         21   -1    0    0  501  502 -0.00000000000E+00 -0.00000000000E+00 -0.22153426312E+03  0.22153426312E+03  0.00000000000E+00 0.  1.
      99926    2    1    2    0    0  0.00000000000E+00  0.17763568394E-14  0.10331633820E+02  0.45340016005E+03  0.45328243125E+03 0.  0.
         25    1    3    3    0    0 -0.72272118405E+02  0.60040499564E+02  0.16519746087E+02  0.15731665772E+03  0.12509000000E+03 0.  0.
         25    1    3    3    0    0  0.85614621487E+01 -0.50080692380E+02  0.50793106425E+02  0.14425263306E+03  0.12509000000E+03 0.  0.
         25    1    3    3    0    0  0.63710656256E+02 -0.99598071842E+01 -0.56981218692E+02  0.15183086927E+03  0.12509000000E+03 0.  0.
<mgrwt>
<rscale>  2 0.45328243E+03</rscale>
<asrwt>0</asrwt>
<pdfrwt beam="1">  1       21 0.34097926E-01 0.45328243E+03</pdfrwt>
<pdfrwt beam="2">  1       21 0.32578568E-01 0.45328243E+03</pdfrwt>
<totfact> 0.69612272E+04</totfact>
</mgrwt>
</event>
<event>
 6    0  0.1576925E-007  0.4922247E+03  0.7546771E-02  0.1015829E+00
         21   -1    0    0  502  501  0.00000000000E+00  0.00000000000E+00  0.53689059463E+03  0.53689059463E+03  0.00000000000E+00 0. -1.
         21   -1    0    0  501  502 -0.00000000000E+00 -0.00000000000E+00 -0.11281869125E+03  0.11281869125E+03  0.00000000000E+00 0. -1.
      99926    2    1    2    0    0  0.79936057773E-14  0.00000000000E+00  0.42407190338E+03  0.64970928588E+03  0.49222472197E+03 0.  0.
         25    1    3    3    0    0 -0.67774099182E+02  0.12597969993E+02  0.12600884304E+03  0.19046725176E+03  0.12509000000E+03 0.  0.
         25    1    3    3    0    0  0.60810490063E+02 -0.28292495671E+02  0.30117064471E+03  0.33294090519E+03  0.12509000000E+03 0.  0.
         25    1    3    3    0    0  0.69636091195E+01  0.15694525678E+02 -0.31075843683E+01  0.12630112893E+03  0.12509000000E+03 0.  0.
<mgrwt>
<rscale>  2 0.49222472E+03</rscale>
<asrwt>0</asrwt>
<pdfrwt beam="1">  1       21 0.78954499E-01 0.49222472E+03</pdfrwt>
<pdfrwt beam="2">  1       21 0.16590984E-01 0.49222472E+03</pdfrwt>
<totfact> 0.41964024E+04</totfact>
</mgrwt>
</event>
<event>
 6    0  0.1576925E-007  0.4587844E+03  0.7546771E-02  0.1025134E+00
         21   -1    0    0  502  501  0.00000000000E+00  0.00000000000E+00  0.18122531925E+03  0.18122531925E+03  0.00000000000E+00 0.  1.
         21   -1    0    0  501  502 -0.00000000000E+00 -0.00000000000E+00 -0.29036106512E+03  0.29036106512E+03  0.00000000000E+00 0.  1.
      99926    2    1    2    0    0 -0.10658141036E-13  0.17763568394E-14 -0.10913574587E+03  0.47158638438E+03  0.45878437953E+03 0.  0.
         25    1    3    3    0    0  0.11237688202E+03 -0.60850085187E+01 -0.75815633709E+02  0.18455652076E+03  0.12509000000E+03 0.  0.
         25    1    3    3    0    0 -0.91650147835E+02 -0.42830323169E+01  0.14774982580E+01  0.15513795495E+03  0.12509000000E+03 0.  0.
         25    1    3    3    0    0 -0.20726734189E+02  0.10368040836E+02 -0.34797610420E+02  0.13189190867E+03  0.12509000000E+03 0.  0.
<mgrwt>
<rscale>  2 0.45878438E+03</rscale>
<asrwt>0</asrwt>
<pdfrwt beam="1">  1       21 0.26650783E-01 0.45878438E+03</pdfrwt>
<pdfrwt beam="2">  1       21 0.42700156E-01 0.45878438E+03</pdfrwt>
<totfact> 0.65334505E+04</totfact>
</mgrwt>
</event>
<event>
 6    0  0.1576925E-007  0.4535901E+03  0.7546771E-02  0.1026657E+00
         21   -1    0    0  502  501  0.00000000000E+00  0.00000000000E+00  0.73709238466E+03  0.73709238466E+03  0.00000000000E+00 0. -1.
         21   -1    0    0  501  502 -0.00000000000E+00 -0.00000000000E+00 -0.69782278717E+02  0.69782278717E+02  0.00000000000E+00 0. -1.
      99926    2    1    2    0    0  0.71054273576E-14  0.00000000000E+00  0.66731010594E+03  0.80687466338E+03  0.45359006262E+03 0.  0.
         25    1    3    3    0    0  0.32733885469E+02  0.36181864561E+02  0.16516520792E+03  0.21285602784E+03  0.12509000000E+03 0.  0.
         25    1    3    3    0    0  0.71160443530E+02 -0.39718031368E+02  0.29522215214E+03  0.33082466346E+03  0.12509000000E+03 0.  0.
         25    1    3    3    0    0 -0.10389432900E+03  0.35361668065E+01  0.20692274588E+03  0.26319397208E+03  0.12509000000E+03 0.  0.
<mgrwt>
<rscale>  2 0.45359006E+03</rscale>
<asrwt>0</asrwt>
<pdfrwt beam="1">  1       21 0.10839593E+00 0.45359006E+03</pdfrwt>
<pdfrwt beam="2">  1       21 0.10262100E-01 0.45359006E+03</pdfrwt>
<totfact> 0.47962563E+04</totfact>
</mgrwt>
</event>
<event>
 6    0  0.1576925E-007  0.4705768E+03  0.7546771E-02  0.1021758E+00
         21   -1    0    0  502  501  0.00000000000E+00  0.00000000000E+00  0.97271197947E+02  0.97271197947E+02  0.00000000000E+00 0. -1.
         21   -1    0    0  501  502 -0.00000000000E+00 -0.00000000000E+00 -0.56913685197E+03  0.56913685197E+03  0.00000000000E+00 0. -1.
      99926    2    1    2    0    0 -0.35527136788E-14  0.00000000000E+00 -0.47186565403E+03  0.66640804992E+03  0.47057676690E+03 0.  0.
         25    1    3    3    0    0 -0.13132049327E+02  0.32108957906E+02 -0.95454072004E+02  0.16112859417E+03  0.12509000000E+03 0.  0.
         25    1    3    3    0    0 -0.40087333655E+02 -0.73568601612E+02 -0.31758411232E+03  0.35146338353E+03  0.12509000000E+03 0.  0.
         25    1    3    3    0    0  0.53219382983E+02  0.41459643706E+02 -0.58827469699E+02  0.15381607222E+03  0.12509000000E+03 0.  0.
<mgrwt>
<rscale>  2 0.47057677E+03</rscale>
<asrwt>0</asrwt>
<pdfrwt beam="1">  1       21 0.14304588E-01 0.47057677E+03</pdfrwt>
<pdfrwt beam="2">  1       21 0.83696596E-01 0.47057677E+03</pdfrwt>
<totfact> 0.48524617E+04</totfact>
</mgrwt>
</event>
<event>
 6    0  0.1576925E-007  0.4507661E+03  0.7546771E-02  0.1027494E+00
         21   -1    0    0  502  501  0.00000000000E+00  0.00000000000E+00  0.84495638101E+02  0.84495638101E+02  0.00000000000E+00 0.  1.
         21   -1    0    0  501  502 -0.00000000000E+00 -0.00000000000E+00 -0.60118507988E+03  0.60118507988E+03  0.00000000000E+00 0.  1.
      99926    2    1    2    0    0  0.00000000000E+00  0.00000000000E+00 -0.51668944177E+03  0.68568071798E+03  0.45076608986E+03 0.  0.
         25    1    3    3    0    0 -0.81338928541E+02  0.96459980643E+01 -0.22073154514E+03  0.26660643221E+03  0.12509000000E+03 0.  0.
         25    1    3    3    0    0  0.66862161088E+02  0.27444038822E+02 -0.23137571224E+03  0.27277454457E+03  0.12509000000E+03 0.  0.
         25    1    3    3    0    0  0.14476767453E+02 -0.37090036886E+02 -0.64582184388E+02  0.14629974119E+03  0.12509000000E+03 0.  0.
<mgrwt>
<rscale>  2 0.45076609E+03</rscale>
<asrwt>0</asrwt>
<pdfrwt beam="1">  1       21 0.12425829E-01 0.45076609E+03</pdfrwt>
<pdfrwt beam="2">  1       21 0.88409570E-01 0.45076609E+03</pdfrwt>
<totfact> 0.55514982E+04</totfact>
</mgrwt>
</event>
<event>
 6    0  0.1576925E-007  0.4488808E+03  0.7546771E-02  0.1028056E+00
         21   -1    0    0  502  501  0.00000000000E+00  0.00000000000E+00  0.52168392852E+02  0.52168392852E+02  0.00000000000E+00 0. -1.
         21   -1    0    0  501  502 -0.00000000000E+00 -0.00000000000E+00 -0.96559409916E+03  0.96559409916E+03  0.00000000000E+00 0. -1.
      99926    2    1    2    0    0  0.00000000000E+00  0.35527136788E-14 -0.91342570631E+03  0.10177624920E+04  0.44888079621E+03 0.  0.
         25    1    3    3    0    0 -0.62466113032E+02 -0.50267161617E+02 -0.30663452196E+03  0.34073602829E+03  0.12509000000E+03 0.  0.
         25    1    3    3    0    0  0.78577573634E+02 -0.23239008574E+02 -0.24688871366E+03  0.28864516561E+03  0.12509000000E+03 0.  0.
         25    1    3    3    0    0 -0.16111460602E+02  0.73506170191E+02 -0.35990247069E+03  0.38838129812E+03  0.12509000000E+03 0.  0.
<mgrwt>
<rscale>  2 0.44888080E+03</rscale>
<asrwt>0</asrwt>
<pdfrwt beam="1">  1       21 0.76718229E-02 0.44888080E+03</pdfrwt>
<pdfrwt beam="2">  1       21 0.14199913E+00 0.44888080E+03</pdfrwt>
<totfact> 0.40377907E+04</totfact>
</mgrwt>
</event>
<event>
 6    0  0.1576925E-007  0.4556588E+03  0.7546771E-02  0.1026048E+00
         21   -1    0    0  502  501  0.00000000000E+00  0.00000000000E+00  0.48777723178E+03  0.48777723178E+03  0.00000000000E+00 0.  1.
         21   -1    0    0  501  502 -0.00000000000E+00 -0.00000000000E+00 -0.10641383312E+03  0.10641383312E+03  0.00000000000E+00 0.  1.
      99926    2    1    2    0    0  0.00000000000E+00 -0.71054273576E-14  0.38136339866E+03  0.59419106490E+03  0.45565884143E+03 0.  0.
         25    1    3    3    0    0  0.15004305186E+02  0.10352312349E+03  0.11825267505E+03  0.20142832355E+03  0.12509000000E+03 0.  0.
         25    1    3    3    0    0 -0.18073598181E+01 -0.76508888370E+02  0.74580866732E+02  0.16451957431E+03  0.12509000000E+03 0.  0.
         25    1    3    3    0    0 -0.13196945368E+02 -0.27014235123E+02  0.18852985688E+03  0.22824316704E+03  0.12509000000E+03 0.  0.
<mgrwt>
<rscale>  2 0.45565884E+03</rscale>
<asrwt>0</asrwt>
<pdfrwt beam="1">  1       21 0.71731945E-01 0.45565884E+03</pdfrwt>
<pdfrwt beam="2">  1       21 0.15649093E-01 0.45565884E+03</pdfrwt>
<totfact> 0.58730869E+04</totfact>
</mgrwt>
</event>
<event>
 6    0  0.1576925E-007  0.4571793E+03  0.7546771E-02  0.1025602E+00
         21   -1    0    0  502  501  0.00000000000E+00  0.00000000000E+00  0.46738426503E+03  0.46738426503E+03  0.00000000000E+00 0.  1.
         21   -1    0    0  501  502 -0.00000000000E+00 -0.00000000000E+00 -0.11179930291E+03  0.11179930291E+03  0.00000000000E+00 0.  1.
      99926    2    1    2    0    0 -0.33306690739E-14 -0.71054273576E-14  0.35558496213E+03  0.57918356794E+03  0.45717933034E+03 0.  0.
         25    1    3    3    0    0 -0.36977181857E+02 -0.50119097483E+02  0.22097757790E+02  0.14147457337E+03  0.12509000000E+03 0.  0.
         25    1    3    3    0    0  0.38864018070E+02  0.75781089713E+02  0.21897914322E+03  0.26618143948E+03  0.12509000000E+03 0.  0.
         25    1    3    3    0    0 -0.18868362132E+01 -0.25661992230E+02  0.11450806111E+03  0.17152755509E+03  0.12509000000E+03 0.  0.
<mgrwt>
<rscale>  2 0.45717933E+03</rscale>
<asrwt>0</asrwt>
<pdfrwt beam="1">  1       21 0.68732980E-01 0.45717933E+03</pdfrwt>
<pdfrwt beam="2">  1       21 0.16441074E-01 0.45717933E+03</pdfrwt>
<totfact> 0.58955849E+04</totfact>
</mgrwt>
</event>
<event>
 6    0  0.1576925E-007  0.4529694E+03  0.7546771E-02  0.1026840E+00
         21   -1    0    0  502  501  0.00000000000E+00  0.00000000000E+00  0.94084377243E+02  0.94084377243E+02  0.00000000000E+00 0. -1.
         21   -1    0    0  501  502 -0.00000000000E+00 -0.00000000000E+00 -0.54520561216E+03  0.54520561216E+03  0.00000000000E+00 0. -1.
      99926    2    1    2    0    0  0.00000000000E+00  0.00000000000E+00 -0.45112123491E+03  0.63928998940E+03  0.45296944925E+03 0.  0.
         25    1    3    3    0    0  0.38563593194E+02  0.65162314485E+02 -0.22399975351E+03  0.26750079555E+03  0.12509000000E+03 0.  0.
         25    1    3    3    0    0 -0.79922580638E+02 -0.28462583283E+01 -0.12030512130E+03  0.19109304119E+03  0.12509000000E+03 0.  0.
         25    1    3    3    0    0  0.41358987444E+02 -0.62316056157E+02 -0.10681636011E+03  0.18069615265E+03  0.12509000000E+03 0.  0.
<mgrwt>
<rscale>  2 0.45296945E+03</rscale>
<asrwt>0</asrwt>
<pdfrwt beam="1">  1       21 0.13835938E-01 0.45296945E+03</pdfrwt>
<pdfrwt beam="2">  1       21 0.80177297E-01 0.45296945E+03</pdfrwt>
<totfact> 0.57234387E+04</totfact>
</mgrwt>
</event>
<event>
 6    0  0.1576925E-007  0.4507493E+03  0.7546771E-02  0.1027499E+00
         21   -1    0    0  502  501  0.00000000000E+00  0.00000000000E+00  0.64654295611E+03  0.64654295611E+03  0.00000000000E+00 0. -1.
         21   -1    0    0  501  502 -0.00000000000E+00 -0.00000000000E+00 -0.78562030607E+02  0.78562030607E+02  0.00000000000E+00 0. -1.
      99926    2    1    2    0    0  0.00000000000E+00  0.00000000000E+00  0.56798092550E+03  0.72510498672E+03  0.45074927623E+03 0.  0.
         25    1    3    3    0    0  0.63828571561E+02  0.14965377048E+01  0.15550502706E+03  0.20953674550E+03  0.12509000000E+03 0.  0.
         25    1    3    3    0    0  0.35940429972E+02 -0.11827344306E+02  0.27456022775E+03  0.30407635118E+03  0.12509000000E+03 0.  0.
         25    1    3    3    0    0 -0.99769001534E+02  0.10330806601E+02  0.13791567068E+03  0.21149189004E+03  0.12509000000E+03 0.  0.
<mgrwt>
<rscale>  2 0.45074928E+03</rscale>
<asrwt>0</asrwt>
<pdfrwt beam="1">  1       21 0.95079844E-01 0.45074928E+03</pdfrwt>
<pdfrwt beam="2">  1       21 0.11553240E-01 0.45074928E+03</pdfrwt>
<totfact> 0.53321353E+04</totfact>
</mgrwt>
</event>
<event>
 6    0  0.1576925E-007  0.4507570E+03  0.7546771E-02  0.1027497E+00
         21   -1    0    0  502  501  0.00000000000E+00  0.00000000000E+00  0.61703457622E+02  0.61703457622E+02  0.00000000000E+00 0.  1.
         21   -1    0    0  501  502 -0.00000000000E+00 -0.00000000000E+00 -0.82321902000E+03  0.82321902000E+03  0.00000000000E+00 0.  1.
      99926    2    1    2    0    0 -0.35527136788E-14 -0.35527136788E-14 -0.76151556238E+03  0.88492247763E+03  0.45075696296E+03 0.  0.
         25    1    3    3    0    0 -0.51029195543E+01 -0.28773583420E+02 -0.31887778187E+03  0.34377973582E+03  0.12509000000E+03 0.  0.
         25    1    3    3    0    0 -0.74628395546E+02  0.61569541248E+02 -0.24983704578E+03  0.29567932525E+03  0.12509000000E+03 0.  0.
         25    1    3    3    0    0  0.79731315101E+02 -0.32795957829E+02 -0.19280073472E+03  0.24546341656E+03  0.12509000000E+03 0.  0.
<mgrwt>
<rscale>  2 0.45075696E+03</rscale>
<asrwt>0</asrwt>
<pdfrwt beam="1">  1       21 0.90740387E-02 0.45075696E+03</pdfrwt>
<pdfrwt beam="2">  1       21 0.12106161E+00 0.45075696E+03</pdfrwt>
<totfact> 0.45381279E+04</totfact>
</mgrwt>
</event>
<event>
 6    0  0.1576925E-007  0.4557590E+03  0.7546771E-02  0.1026018E+00
         21   -1    0    0  502  501  0.00000000000E+00  0.00000000000E+00  0.11487546630E+04  0.11487546630E+04  0.00000000000E+00 0. -1.
         21   -1    0    0  501  502 -0.00000000000E+00 -0.00000000000E+00 -0.45204662341E+02  0.45204662341E+02  0.00000000000E+00 0. -1.
      99926    2    1    2    0    0  0.18873791419E-14  0.00000000000E+00  0.11035500007E+04  0.11939593254E+04  0.45575900059E+03 0.  0.
         25    1    3    3    0    0 -0.85191541378E+02 -0.14451343508E+02  0.42725419676E+03  0.45349762602E+03  0.12509000000E+03 0.  0.
         25    1    3    3    0    0 -0.78070129715E+00  0.24799870114E+02  0.17465371348E+03  0.21625695546E+03  0.12509000000E+03 0.  0.
         25    1    3    3    0    0  0.85972242675E+02 -0.10348526606E+02  0.50164209043E+03  0.52420474388E+03  0.12509000000E+03 0.  0.
<mgrwt>
<rscale>  2 0.45575900E+03</rscale>
<asrwt>0</asrwt>
<pdfrwt beam="1">  1       21 0.16893449E+00 0.45575900E+03</pdfrwt>
<pdfrwt beam="2">  1       21 0.66477452E-02 0.45575900E+03</pdfrwt>
<totfact> 0.32157424E+04</totfact>
</mgrwt>
</event>
<event>
 6    0  0.1576925E-007  0.4499396E+03  0.7546771E-02  0.1027740E+00
         21   -1    0    0  502  501  0.00000000000E+00  0.00000000000E+00  0.23768240675E+03  0.23768240675E+03  0.00000000000E+00 0.  1.
         21   -1    0    0  501  502 -0.00000000000E+00 -0.00000000000E+00 -0.21293715087E+03  0.21293715087E+03  0.00000000000E+00 0.  1.
      99926    2    1    2    0    0  0.00000000000E+00  0.71054273576E-14  0.24745255879E+02  0.45061955763E+03  0.44993961598E+03 0.  0.
         25    1    3    3    0    0  0.38827603350E+02  0.51784107879E+02 -0.98336641616E+01  0.14118564255E+03  0.12509000000E+03 0.  0.
         25    1    3    3    0    0 -0.52230513588E+02  0.43951018536E+02  0.48988730624E+02  0.15068882642E+03  0.12509000000E+03 0.  0.
         25    1    3    3    0    0  0.13402910238E+02 -0.95735126415E+02 -0.14409810583E+02  0.15874508866E+03  0.12509000000E+03 0.  0.
<mgrwt>
<rscale>  2 0.44993962E+03</rscale>
<asrwt>0</asrwt>
<pdfrwt beam="1">  1       21 0.34953295E-01 0.44993962E+03</pdfrwt>
<pdfrwt beam="2">  1       21 0.31314287E-01 0.44993962E+03</pdfrwt>
<totfact> 0.71720255E+04</totfact>
</mgrwt>
</event>
<event>
 6    0  0.1576925E-007  0.4671943E+03  0.7546771E-02  0.1022715E+00
         21   -1    0    0  502  501  0.00000000000E+00  0.00000000000E+00  0.15129268051E+04  0.15129268051E+04  0.00000000000E+00 0.  1.
         21   -1    0    0  501  502 -0.00000000000E+00 -0.00000000000E+00 -0.36067592074E+02  0.36067592074E+02  0.00000000000E+00 0.  1.
      99926    2    1    2    0    0  0.00000000000E+00  0.00000000000E+00  0.14768592131E+04  0.15489943972E+04  0.46719429297E+03 0.  0.
         25    1    3    3    0    0  0.10106673983E+03 -0.21426718263E+02  0.40072509681E+03  0.43232129426E+03  0.12509000000E+03 0.  0.
         25    1    3    3    0    0 -0.26026699334E+02 -0.30945118194E+02  0.65167167156E+03  0.66479956756E+03  0.12509000000E+03 0.  0.
         25    1    3    3    0    0 -0.75040040496E+02  0.52371836457E+02  0.42446244470E+03  0.45187353539E+03  0.12509000000E+03 0.  0.
<mgrwt>
<rscale>  2 0.46719429E+03</rscale>
<asrwt>0</asrwt>
<pdfrwt beam="1">  1       21 0.22248919E+00 0.46719429E+03</pdfrwt>
<pdfrwt beam="2">  1       21 0.53040586E-02 0.46719429E+03</pdfrwt>
<totfact> 0.20584039E+04</totfact>
</mgrwt>
</event>
<event>
 6    0  0.1576925E-007  0.4478548E+03  0.7546771E-02  0.1028364E+00
         21   -1    0    0  502  501  0.00000000000E+00  0.00000000000E+00  0.54572104722E+02  0.54572104722E+02  0.00000000000E+00 0. -1.
         21   -1    0    0  501  502 -0.00000000000E+00 -0.00000000000E+00 -0.91884802728E+03  0.91884802728E+03  0.00000000000E+00 0. -1.
      99926    2    1    2    0    0  0.13322676296E-14  0.00000000000E+00 -0.86427592255E+03  0.97342013200E+03  0.44785475667E+03 0.  0.
         25    1    3    3    0    0 -0.21020257668E+01  0.78612287921E+02 -0.36956047466E+03  0.39800347091E+03  0.12509000000E+03 0.  0.
         25    1    3    3    0    0 -0.55719759545E+02 -0.54605986627E+02 -0.19311008737E+03  0.24295168105E+03  0.12509000000E+03 0.  0.
         25    1    3    3    0    0  0.57821785312E+02 -0.24006301294E+02 -0.30160536052E+03  0.33246498004E+03  0.12509000000E+03 0.  0.
<mgrwt>
<rscale>  2 0.44785476E+03</rscale>
<asrwt>0</asrwt>
<pdfrwt beam="1">  1       21 0.80253105E-02 0.44785476E+03</pdfrwt>
<pdfrwt beam="2">  1       21 0.13512469E+00 0.44785476E+03</pdfrwt>
<totfact> 0.42533304E+04</totfact>
</mgrwt>
</event>
<event>
 6    0  0.1576925E-007  0.4533514E+03  0.7546771E-02  0.1026727E+00
         21   -1    0    0  502  501  0.00000000000E+00  0.00000000000E+00  0.88414638577E+02  0.88414638577E+02  0.00000000000E+00 0.  1.
         21   -1    0    0  501  502 -0.00000000000E+00 -0.00000000000E+00 -0.58114655692E+03  0.58114655692E+03  0.00000000000E+00 0.  1.
      99926    2    1    2    0    0  0.00000000000E+00 -0.17763568394E-14 -0.49273191834E+03  0.66956119550E+03  0.45335135509E+03 0.  0.
         25    1    3    3    0    0 -0.62749091587E+02  0.10129529454E+02 -0.57446935123E+02  0.15161699877E+03  0.12509000000E+03 0.  0.
         25    1    3    3    0    0  0.22913649719E+01  0.19961524495E+01 -0.12080159074E+03  0.17392460264E+03  0.12509000000E+03 0.  0.
         25    1    3    3    0    0  0.60457726615E+02 -0.12125681903E+02 -0.31448339248E+03  0.34401959408E+03  0.12509000000E+03 0.  0.
<mgrwt>
<rscale>  2 0.45335136E+03</rscale>
<asrwt>0</asrwt>
<pdfrwt beam="1">  1       21 0.13002153E-01 0.45335136E+03</pdfrwt>
<pdfrwt beam="2">  1       21 0.85462728E-01 0.45335136E+03</pdfrwt>
<totfact> 0.55302223E+04</totfact>
</mgrwt>
</event>
<event>
 6    0  0.1576925E-007  0.4548923E+03  0.7546771E-02  0.1026273E+00
         21   -1    0    0  502  501  0.00000000000E+00  0.00000000000E+00  0.15717656532E+03  0.15717656532E+03  0.00000000000E+00 0. -1.
         21   -1    0    0  501  502 -0.00000000000E+00 -0.00000000000E+00 -0.32913148582E+03  0.32913148582E+03  0.00000000000E+00 0. -1.
      99926    2    1    2    0    0  0.00000000000E+00 -0.71054273576E-14 -0.17195492050E+03  0.48630805113E+03  0.45489232343E+03 0.  0.
         25    1    3    3    0    0  0.94108812414E+02  0.44903546880E+02 -0.99497186588E+02  0.19084023511E+03  0.12509000000E+03 0.  0.
         25    1    3    3    0    0 -0.39624340710E+02  0.23835121299E+02 -0.26979031166E+02  0.13606460821E+03  0.12509000000E+03 0.  0.
         25    1    3    3    0    0 -0.54484471704E+02 -0.68738668179E+02 -0.45478702749E+02  0.15940320782E+03  0.12509000000E+03 0.  0.
<mgrwt>
<rscale>  2 0.45489232E+03</rscale>
<asrwt>0</asrwt>
<pdfrwt beam="1">  1       21 0.23114201E-01 0.45489232E+03</pdfrwt>
<pdfrwt beam="2">  1       21 0.48401689E-01 0.45489232E+03</pdfrwt>
<totfact> 0.66300366E+04</totfact>
</mgrwt>
</event>
<event>
 6    0  0.1604930E-007  0.4821025E+03  0.7546771E-02  0.1018559E+00
         21   -1    0    0  502  501  0.00000000000E+00  0.00000000000E+00  0.13300279954E+03  0.13300279954E+03  0.00000000000E+00 0.  1.
         21   -1    0    0  501  502 -0.00000000000E+00 -0.00000000000E+00 -0.43687584727E+03  0.43687584727E+03  0.00000000000E+00 0.  1.
      99926    2    1    2    0    0 -0.79936057773E-14  0.00000000000E+00 -0.30387304773E+03  0.56987864681E+03  0.48210252328E+03 0.  0.
         25    1    3    3    0    0  0.10623423745E+03  0.46329591704E+02 -0.96574394468E+02  0.19597516690E+03  0.12509000000E+03 0.  0.
         25    1    3    3    0    0  0.52520546353E+01 -0.53637473945E+02 -0.13331267893E+03  0.19058945709E+03  0.12509000000E+03 0.  0.
         25    1    3    3    0    0 -0.11148629209E+03  0.73078822408E+01 -0.73985974326E+02  0.18331402282E+03  0.12509000000E+03 0.  0.
<mgrwt>
<rscale>  2 0.48210252E+03</rscale>
<asrwt>0</asrwt>
<pdfrwt beam="1">  1       21 0.19559236E-01 0.48210252E+03</pdfrwt>
<pdfrwt beam="2">  1       21 0.64246447E-01 0.48210252E+03</pdfrwt>
<totfact> 0.49153548E+04</totfact>
</mgrwt>
</event>
<event>
 6    0  0.1576925E-007  0.4556199E+03  0.7546771E-02  0.1026059E+00
         21   -1    0    0  502  501  0.00000000000E+00  0.00000000000E+00  0.88521358858E+02  0.88521358858E+02  0.00000000000E+00 0. -1.
         21   -1    0    0  501  502 -0.00000000000E+00 -0.00000000000E+00 -0.58626944829E+03  0.58626944829E+03  0.00000000000E+00 0. -1.
      99926    2    1    2    0    0  0.22204460493E-14  0.00000000000E+00 -0.49774808943E+03  0.67479080714E+03  0.45561987761E+03 0.  0.
         25    1    3    3    0    0  0.61009489299E+02 -0.66445659545E+01 -0.13958369759E+03  0.19722430067E+03  0.12509000000E+03 0.  0.
         25    1    3    3    0    0  0.29743517153E+01 -0.82128174848E+02 -0.17257195848E+03  0.22843483277E+03  0.12509000000E+03 0.  0.
         25    1    3    3    0    0 -0.63983841014E+02  0.88772740803E+02 -0.18559243336E+03  0.24913167370E+03  0.12509000000E+03 0.  0.
<mgrwt>
<rscale>  2 0.45561988E+03</rscale>
<asrwt>0</asrwt>
<pdfrwt beam="1">  1       21 0.13017848E-01 0.45561988E+03</pdfrwt>
<pdfrwt beam="2">  1       21 0.86216091E-01 0.45561988E+03</pdfrwt>
<totfact> 0.54029074E+04</totfact>
</mgrwt>
</event>
<event>
 6    0  0.1576925E-007  0.4560345E+03  0.7546771E-02  0.1025938E+00
         21   -1    0    0  502  501  0.00000000000E+00  0.00000000000E+00  0.73271877248E+03  0.73271877248E+03  0.00000000000E+00 0. -1.
         21   -1    0    0  501  502 -0.00000000000E+00 -0.00000000000E+00 -0.70957471787E+02  0.70957471787E+02  0.00000000000E+00 0. -1.
      99926    2    1    2    0    0  0.00000000000E+00  0.00000000000E+00  0.66176130069E+03  0.80367624426E+03  0.45603452337E+03 0.  0.
         25    1    3    3    0    0  0.42593050632E+02 -0.55152539214E+02  0.12083068990E+03  0.18735937197E+03  0.12509000000E+03 0.  0.
         25    1    3    3    0    0 -0.83831529863E+02  0.60835145318E+02  0.32505615819E+03  0.36336985893E+03  0.12509000000E+03 0.  0.
         25    1    3    3    0    0  0.41238479231E+02 -0.56826061040E+01  0.21587445260E+03  0.25294701336E+03  0.12509000000E+03 0.  0.
<mgrwt>
<rscale>  2 0.45603452E+03</rscale>
<asrwt>0</asrwt>
<pdfrwt beam="1">  1       21 0.10775276E+00 0.45603452E+03</pdfrwt>
<pdfrwt beam="2">  1       21 0.10434923E-01 0.45603452E+03</pdfrwt>
<totfact> 0.47203118E+04</totfact>
</mgrwt>
</event>
<event>
 6    0  0.1576925E-007  0.4534343E+03  0.7546771E-02  0.1026703E+00
         21   -1    0    0  502  501  0.00000000000E+00  0.00000000000E+00  0.29768463117E+03  0.29768463117E+03  0.00000000000E+00 0. -1.
         21   -1    0    0  501  502 -0.00000000000E+00 -0.00000000000E+00 -0.17266820155E+03  0.17266820155E+03  0.00000000000E+00 0. -1.
      99926    2    1    2    0    0  0.00000000000E+00  0.00000000000E+00  0.12501642962E+03  0.47035283272E+03  0.45343431671E+03 0.  0.
         25    1    3    3    0    0 -0.12713267374E+02  0.66442472542E+01 -0.25415446915E+02  0.12844931386E+03  0.12509000000E+03 0.  0.
         25    1    3    3    0    0 -0.52406187283E+02 -0.69132717625E+02  0.64453056039E+02  0.16531014985E+03  0.12509000000E+03 0.  0.
         25    1    3    3    0    0  0.65119454658E+02  0.62488470370E+02  0.85978820497E+02  0.17659336901E+03  0.12509000000E+03 0.  0.
<mgrwt>
<rscale>  2 0.45343432E+03</rscale>
<asrwt>0</asrwt>
<pdfrwt beam="1">  1       21 0.43777152E-01 0.45343432E+03</pdfrwt>
<pdfrwt beam="2">  1       21 0.25392383E-01 0.45343432E+03</pdfrwt>
<totfact> 0.68253360E+04</totfact>
</mgrwt>
</event>
<event>
 6    0  0.1576925E-007  0.4475894E+03  0.7546771E-02  0.1028443E+00
         21   -1    0    0  502  501  0.00000000000E+00  0.00000000000E+00  0.13766456262E+03  0.13766456262E+03  0.00000000000E+00 0.  1.
         21   -1    0    0  501  502 -0.00000000000E+00 -0.00000000000E+00 -0.36381232370E+03  0.36381232370E+03  0.00000000000E+00 0.  1.
      99926    2    1    2    0    0  0.17763568394E-14  0.71054273576E-14 -0.22614776108E+03  0.50147688632E+03  0.44758938511E+03 0.  0.
         25    1    3    3    0    0  0.12071068536E+02  0.17143338010E+02 -0.16903432998E+03  0.21132845891E+03  0.12509000000E+03 0.  0.
         25    1    3    3    0    0 -0.17363681752E+02 -0.65435325051E+02 -0.63583456890E+02  0.15580001059E+03  0.12509000000E+03 0.  0.
         25    1    3    3    0    0  0.52926132166E+01  0.48291987040E+02  0.64700257915E+01  0.13434841682E+03  0.12509000000E+03 0.  0.
<mgrwt>
<rscale>  2 0.44758939E+03</rscale>
<asrwt>0</asrwt>
<pdfrwt beam="1">  1       21 0.20244789E-01 0.44758939E+03</pdfrwt>
<pdfrwt beam="2">  1       21 0.53501811E-01 0.44758939E+03</pdfrwt>
<totfact> 0.69145472E+04</totfact>
</mgrwt>
</event>
<event>
 6    0  0.1576925E-007  0.4816723E+03  0.7546771E-02  0.1018677E+00
         21   -1    0    0  502  501  0.00000000000E+00  0.00000000000E+00  0.13492494131E+03  0.13492494131E+03  0.00000000000E+00 0. -1.
         21   -1    0    0  501  502 -0.00000000000E+00 -0.00000000000E+00 -0.42988378651E+03  0.42988378651E+03  0.00000000000E+00 0. -1.
      99926    2    1    2    0    0  0.71054273576E-14 -0.14210854715E-13 -0.29495884520E+03  0.56480872781E+03  0.48167227308E+03 0.  0.
         25    1    3    3    0    0  0.53701072682E+02 -0.17823656908E+02 -0.18931850469E+03  0.23385998433E+03  0.12509000000E+03 0.  0.
         25    1    3    3    0    0 -0.58104096966E+02  0.91069729944E+02 -0.80202344688E+02  0.18371093051E+03  0.12509000000E+03 0.  0.
         25    1    3    3    0    0  0.44030242844E+01 -0.73246073036E+02 -0.25437995830E+02  0.14723781298E+03  0.12509000000E+03 0.  0.
<mgrwt>
<rscale>  2 0.48167227E+03</rscale>
<asrwt>0</asrwt>
<pdfrwt beam="1">  1       21 0.19841903E-01 0.48167227E+03</pdfrwt>
<pdfrwt beam="2">  1       21 0.63218204E-01 0.48167227E+03</pdfrwt>
<totfact> 0.49576182E+04</totfact>
</mgrwt>
</event>
<event>
 6    0  0.1576925E-007  0.4497130E+03  0.7546771E-02  0.1027808E+00
         21   -1    0    0  502  501  0.00000000000E+00  0.00000000000E+00  0.61948047439E+02  0.61948047439E+02  0.00000000000E+00 0.  1.
         21   -1    0    0  501  502 -0.00000000000E+00 -0.00000000000E+00 -0.81617508207E+03  0.81617508207E+03  0.00000000000E+00 0.  1.
      99926    2    1    2    0    0 -0.35527136788E-14  0.44408920985E-15 -0.75422703463E+03  0.87812312951E+03  0.44971303162E+03 0.  0.
         25    1    3    3    0    0  0.67556408333E+02  0.17908835113E+02 -0.35564513075E+03  0.38342608389E+03  0.12509000000E+03 0.  0.
         25    1    3    3    0    0 -0.81914034018E+02 -0.21871760806E+02 -0.13532213961E+03  0.20284938368E+03  0.12509000000E+03 0.  0.
         25    1    3    3    0    0  0.14357625686E+02  0.39629256930E+01 -0.26325976428E+03  0.29184766194E+03  0.12509000000E+03 0.  0.
<mgrwt>
<rscale>  2 0.44971303E+03</rscale>
<asrwt>0</asrwt>
<pdfrwt beam="1">  1       21 0.91100077E-02 0.44971303E+03</pdfrwt>
<pdfrwt beam="2">  1       21 0.12002574E+00 0.44971303E+03</pdfrwt>
<totfact> 0.46071431E+04</totfact>
</mgrwt>
</event>
<event>
 6    0  0.1576925E-007  0.4516862E+03  0.7546771E-02  0.1027220E+00
         21   -1    0    0  502  501  0.00000000000E+00  0.00000000000E+00  0.11242627401E+03  0.11242627401E+03  0.00000000000E+00 0. -1.
         21   -1    0    0  501  502 -0.00000000000E+00 -0.00000000000E+00 -0.45367605686E+03  0.45367605686E+03  0.00000000000E+00 0. -1.
      99926    2    1    2    0    0  0.00000000000E+00  0.00000000000E+00 -0.34124978286E+03  0.56610233087E+03  0.45168621267E+03 0.  0.
         25    1    3    3    0    0  0.95111323487E+02  0.46545357896E+02 -0.15613524221E+03  0.22635891005E+03  0.12509000000E+03 0.  0.
         25    1    3    3    0    0 -0.47128226518E+01 -0.10062753111E+02 -0.69942823828E+02  0.14374622222E+03  0.12509000000E+03 0.  0.
         25    1    3    3    0    0 -0.90398500835E+02 -0.36482604785E+02 -0.11517171682E+03  0.19599719860E+03  0.12509000000E+03 0.  0.
<mgrwt>
<rscale>  2 0.45168621E+03</rscale>
<asrwt>0</asrwt>
<pdfrwt beam="1">  1       21 0.16533276E-01 0.45168621E+03</pdfrwt>
<pdfrwt beam="2">  1       21 0.66717067E-01 0.45168621E+03</pdfrwt>
<totfact> 0.62435069E+04</totfact>
</mgrwt>
</event>
<event>
 6    0  0.1576925E-007  0.4578714E+03  0.7546771E-02  0.1025400E+00
         21   -1    0    0  502  501  0.00000000000E+00  0.00000000000E+00  0.11180888737E+03  0.11180888737E+03  0.00000000000E+00 0.  1.
         21   -1    0    0  501  502 -0.00000000000E+00 -0.00000000000E+00 -0.46876021602E+03  0.46876021602E+03  0.00000000000E+00 0.  1.
      99926    2    1    2    0    0  0.00000000000E+00  0.71054273576E-14 -0.35695132864E+03  0.58056910339E+03  0.45787141512E+03 0.  0.
         25    1    3    3    0    0  0.49104727431E+02  0.50632264141E+02 -0.13963367568E+03  0.20029970522E+03  0.12509000000E+03 0.  0.
         25    1    3    3    0    0 -0.31628405648E+02  0.43391150172E+02 -0.37382543829E+02  0.14116696016E+03  0.12509000000E+03 0.  0.
         25    1    3    3    0    0 -0.17476321783E+02 -0.94023414313E+02 -0.17993510913E+03  0.23910243801E+03  0.12509000000E+03 0.  0.
<mgrwt>
<rscale>  2 0.45787142E+03</rscale>
<asrwt>0</asrwt>
<pdfrwt beam="1">  1       21 0.16442484E-01 0.45787142E+03</pdfrwt>
<pdfrwt beam="2">  1       21 0.68935326E-01 0.45787142E+03</pdfrwt>
<totfact> 0.58550044E+04</totfact>
</mgrwt>
</event>
<event>
 6    0  0.1576925E-007  0.4541786E+03  0.7546771E-02  0.1026483E+00
         21   -1    0    0  502  501  0.00000000000E+00  0.00000000000E+00  0.59972529609E+02  0.59972529609E+02  0.00000000000E+00 0.  1.
         21   -1    0    0  501  502 -0.00000000000E+00 -0.00000000000E+00 -0.85988618104E+03  0.85988618104E+03  0.00000000000E+00 0.  1.
      99926    2    1    2    0    0  0.17763568394E-14  0.14210854715E-13 -0.79991365143E+03  0.91985871065E+03  0.45417859682E+03 0.  0.
         25    1    3    3    0    0  0.23222485999E+02  0.33877823180E+02 -0.10611145280E+03  0.16909801677E+03  0.12509000000E+03 0.  0.
         25    1    3    3    0    0 -0.10822941445E+02 -0.83026073309E+02 -0.40194582172E+03  0.42920672945E+03  0.12509000000E+03 0.  0.
         25    1    3    3    0    0 -0.12399544555E+02  0.49148250129E+02 -0.29185637691E+03  0.32155396443E+03  0.12509000000E+03 0.  0.
<mgrwt>
<rscale>  2 0.45417860E+03</rscale>
<asrwt>0</asrwt>
<pdfrwt beam="1">  1       21 0.88194897E-02 0.45417860E+03</pdfrwt>
<pdfrwt beam="2">  1       21 0.12645385E+00 0.45417860E+03</pdfrwt>
<totfact> 0.42659557E+04</totfact>
</mgrwt>
</event>
<event>
 6    0  0.1576925E-007  0.4571191E+03  0.7546771E-02  0.1025620E+00
         21   -1    0    0  502  501  0.00000000000E+00  0.00000000000E+00  0.36008247187E+03  0.36008247187E+03  0.00000000000E+00 0.  1.
         21   -1    0    0  501  502 -0.00000000000E+00 -0.00000000000E+00 -0.14507641993E+03  0.14507641993E+03  0.00000000000E+00 0.  1.
      99926    2    1    2    0    0  0.00000000000E+00 -0.71054273576E-14  0.21500605194E+03  0.50515889180E+03  0.45711913501E+03 0.  0.
         25    1    3    3    0    0  0.66367495660E+02  0.45237991952E+02  0.36851324905E+01  0.14870174410E+03  0.12509000000E+03 0.  0.
         25    1    3    3    0    0 -0.22761185300E+02 -0.47835184685E+02  0.43508039210E+02  0.14264197848E+03  0.12509000000E+03 0.  0.
         25    1    3    3    0    0 -0.43606310360E+02  0.25971927327E+01  0.16781288024E+03  0.21381516922E+03  0.12509000000E+03 0.  0.
<mgrwt>
<rscale>  2 0.45711914E+03</rscale>
<asrwt>0</asrwt>
<pdfrwt beam="1">  1       21 0.52953305E-01 0.45711914E+03</pdfrwt>
<pdfrwt beam="2">  1       21 0.21334768E-01 0.45711914E+03</pdfrwt>
<totfact> 0.63829312E+04</totfact>
</mgrwt>
</event>
<event>
 6    0  0.1576925E-007  0.4838405E+03  0.7546771E-02  0.1018085E+00
         21   -1    0    0  502  501  0.00000000000E+00  0.00000000000E+00  0.18049733567E+03  0.18049733567E+03  0.00000000000E+00 0. -1.
         21   -1    0    0  501  502 -0.00000000000E+00 -0.00000000000E+00 -0.32424528988E+03  0.32424528988E+03  0.00000000000E+00 0. -1.
      99926    2    1    2    0    0 -0.71054273576E-14  0.35527136788E-14 -0.14374795421E+03  0.50474262555E+03  0.48384051475E+03 0.  0.
         25    1    3    3    0    0 -0.10360261412E+03 -0.68017783371E+02 -0.25363156224E+02  0.17790648752E+03  0.12509000000E+03 0.  0.
         25    1    3    3    0    0  0.11442545284E+03  0.44842634685E+02 -0.51873553068E+02  0.18287268727E+03  0.12509000000E+03 0.  0.
         25    1    3    3    0    0 -0.10822838721E+02  0.23175148686E+02 -0.66511244920E+02  0.14396345076E+03  0.12509000000E+03 0.  0.
<mgrwt>
<rscale>  2 0.48384051E+03</rscale>
<asrwt>0</asrwt>
<pdfrwt beam="1">  1       21 0.26543726E-01 0.48384051E+03</pdfrwt>
<pdfrwt beam="2">  1       21 0.47683131E-01 0.48384051E+03</pdfrwt>
<totfact> 0.51979794E+04</totfact>
</mgrwt>
</event>
<event>
 6    0  0.1576925E-007  0.4455904E+03  0.7546771E-02  0.1029045E+00
         21   -1    0    0  502  501  0.00000000000E+00  0.00000000000E+00  0.12684864573E+03  0.12684864573E+03  0.00000000000E+00 0.  1.
         21   -1    0    0  501  502 -0.00000000000E+00 -0.00000000000E+00 -0.39131439540E+03  0.39131439540E+03  0.00000000000E+00 0.  1.
      99926    2    1    2    0    0  0.00000000000E+00  0.00000000000E+00 -0.26446574967E+03  0.51816304114E+03  0.44559039987E+03 0.  0.
         25    1    3    3    0    0  0.18184477867E+02 -0.22632176773E+02 -0.16977326455E+02  0.12953234490E+03  0.12509000000E+03 0.  0.
         25    1    3    3    0    0 -0.31123351540E+02  0.85435698703E+02 -0.96237821956E+02  0.18214595274E+03  0.12509000000E+03 0.  0.
         25    1    3    3    0    0  0.12938873673E+02 -0.62803521930E+02 -0.15125060126E+03  0.20648474350E+03  0.12509000000E+03 0.  0.
<mgrwt>
<rscale>  2 0.44559040E+03</rscale>
<asrwt>0</asrwt>
<pdfrwt beam="1">  1       21 0.18654212E-01 0.44559040E+03</pdfrwt>
<pdfrwt beam="2">  1       21 0.57546235E-01 0.44559040E+03</pdfrwt>
<totfact> 0.69021221E+04</totfact>
</mgrwt>
</event>
<event>
 6    0  0.1576925E-007  0.4516985E+03  0.7546771E-02  0.1027217E+00
         21   -1    0    0  502  501  0.00000000000E+00  0.00000000000E+00  0.19798652339E+03  0.19798652339E+03  0.00000000000E+00 0. -1.
         21   -1    0    0  501  502 -0.00000000000E+00 -0.00000000000E+00 -0.25763311085E+03  0.25763311085E+03  0.00000000000E+00 0. -1.
      99926    2    1    2    0    0  0.00000000000E+00 -0.14210854715E-13 -0.59646587458E+02  0.45561963424E+03  0.45169850089E+03 0.  0.
         25    1    3    3    0    0 -0.41068521394E+02  0.20870434014E+02 -0.12585151815E+02  0.13389582746E+03  0.12509000000E+03 0.  0.
         25    1    3    3    0    0  0.95582238523E+02 -0.64891171225E+02  0.16874424753E+01  0.17028559536E+03  0.12509000000E+03 0.  0.
         25    1    3    3    0    0 -0.54513717128E+02  0.44020737211E+02 -0.48748878118E+02  0.15143821142E+03  0.12509000000E+03 0.  0.
<mgrwt>
<rscale>  2 0.45169850E+03</rscale>
<asrwt>0</asrwt>
<pdfrwt beam="1">  1       21 0.29115665E-01 0.45169850E+03</pdfrwt>
<pdfrwt beam="2">  1       21 0.37887222E-01 0.45169850E+03</pdfrwt>
<totfact> 0.70334644E+04</totfact>
</mgrwt>
</event>
<event>
 6    0  0.1576925E-007  0.4567063E+03  0.7546771E-02  0.1025741E+00
         21   -1    0    0  502  501  0.00000000000E+00  0.00000000000E+00  0.10505166159E+03  0.10505166159E+03  0.00000000000E+00 0.  1.
         21   -1    0    0  501  502 -0.00000000000E+00 -0.00000000000E+00 -0.49637645221E+03  0.49637645221E+03  0.00000000000E+00 0.  1.
      99926    2    1    2    0    0 -0.14210854715E-13  0.88817841970E-15 -0.39132479062E+03  0.60142811381E+03  0.45670634364E+03 0.  0.
         25    1    3    3    0    0  0.36153122091E+02  0.29096643070E+02 -0.10216208319E+03  0.16804244171E+03  0.12509000000E+03 0.  0.
         25    1    3    3    0    0 -0.98537890147E+02 -0.54708414513E+01 -0.73905679402E+02  0.17563941314E+03  0.12509000000E+03 0.  0.
         25    1    3    3    0    0  0.62384768056E+02 -0.23625801619E+02 -0.21525702803E+03  0.25774625895E+03  0.12509000000E+03 0.  0.
<mgrwt>
<rscale>  2 0.45670634E+03</rscale>
<asrwt>0</asrwt>
<pdfrwt beam="1">  1       21 0.15448774E-01 0.45670634E+03</pdfrwt>
<pdfrwt beam="2">  1       21 0.72996537E-01 0.45670634E+03</pdfrwt>
<totfact> 0.57807153E+04</totfact>
</mgrwt>
</event>
<event>
 6    0  0.1576925E-007  0.4486717E+03  0.7546771E-02  0.1028119E+00
         21   -1    0    0  502  501  0.00000000000E+00  0.00000000000E+00  0.10326986336E+03  0.10326986336E+03  0.00000000000E+00 0.  1.
         21   -1    0    0  501  502 -0.00000000000E+00 -0.00000000000E+00 -0.48733075621E+03  0.48733075621E+03  0.00000000000E+00 0.  1.
      99926    2    1    2    0    0 -0.39968028887E-14  0.00000000000E+00 -0.38406089285E+03  0.59060061957E+03  0.44867173125E+03 0.  0.
         25    1    3    3    0    0 -0.38569536422E+02 -0.37170183431E+02 -0.20130940573E+03  0.24298604201E+03  0.12509000000E+03 0.  0.
         25    1    3    3    0    0  0.29075541667E+01  0.84354639012E+02 -0.59153903171E+02  0.16208285336E+03  0.12509000000E+03 0.  0.
         25    1    3    3    0    0  0.35661982255E+02 -0.47184455581E+02 -0.12359758394E+03  0.18553172420E+03  0.12509000000E+03 0.  0.
<mgrwt>
<rscale>  2 0.44867173E+03</rscale>
<asrwt>0</asrwt>
<pdfrwt beam="1">  1       21 0.15186745E-01 0.44867173E+03</pdfrwt>
<pdfrwt beam="2">  1       21 0.71666286E-01 0.44867173E+03</pdfrwt>
<totfact> 0.62319398E+04</totfact>
</mgrwt>
</event>
<event>
 6    0  0.1576925E-007  0.4567764E+03  0.7546771E-02  0.1025720E+00
         21   -1    0    0  502  501  0.00000000000E+00  0.00000000000E+00  0.53378487417E+02  0.53378487417E+02  0.00000000000E+00 0.  1.
         21   -1    0    0  501  502 -0.00000000000E+00 -0.00000000000E+00 -0.97719479305E+03  0.97719479305E+03  0.00000000000E+00 0.  1.
      99926    2    1    2    0    0  0.00000000000E+00 -0.10214051827E-13 -0.92381630564E+03  0.10305732805E+04  0.45677644407E+03 0.  0.
         25    1    3    3    0    0 -0.29744924386E+02 -0.80424901234E+02 -0.45137255348E+03  0.47616973381E+03  0.12509000000E+03 0.  0.
         25    1    3    3    0    0 -0.24710056286E+02 -0.22860483429E+01 -0.25016088414E+03  0.28079136196E+03  0.12509000000E+03 0.  0.
         25    1    3    3    0    0  0.54454980672E+02  0.82710949577E+02 -0.22228286802E+03  0.27361218470E+03  0.12509000000E+03 0.  0.
<mgrwt>
<rscale>  2 0.45677644E+03</rscale>
<asrwt>0</asrwt>
<pdfrwt beam="1">  1       21 0.78497785E-02 0.45677644E+03</pdfrwt>
<pdfrwt beam="2">  1       21 0.14370510E+00 0.45677644E+03</pdfrwt>
<totfact> 0.37475960E+04</totfact>
</mgrwt>
</event>
<event>
 6    0  0.1576925E-007  0.4580106E+03  0.7546771E-02  0.1025360E+00
         21   -1    0    0  502  501  0.00000000000E+00  0.00000000000E+00  0.36951973278E+03  0.36951973278E+03  0.00000000000E+00 0.  1.
         21   -1    0    0  501  502 -0.00000000000E+00 -0.00000000000E+00 -0.14192323568E+03  0.14192323568E+03  0.00000000000E+00 0.  1.
      99926    2    1    2    0    0  0.00000000000E+00  0.00000000000E+00  0.22759649711E+03  0.51144296846E+03  0.45801063797E+03 0.  0.
         25    1    3    3    0    0 -0.59542606934E+02  0.47676573369E+02  0.17696795915E+02  0.14757730982E+03  0.12509000000E+03 0.  0.
         25    1    3    3    0    0  0.60531702113E+02 -0.26102457820E+02  0.31416175675E+02  0.14484443192E+03  0.12509000000E+03 0.  0.
         25    1    3    3    0    0 -0.98909517940E+00 -0.21574115549E+02  0.17848352551E+03  0.21902122671E+03  0.12509000000E+03 0.  0.
<mgrwt>
<rscale>  2 0.45801064E+03</rscale>
<asrwt>0</asrwt>
<pdfrwt beam="1">  1       21 0.54341137E-01 0.45801064E+03</pdfrwt>
<pdfrwt beam="2">  1       21 0.20871064E-01 0.45801064E+03</pdfrwt>
<totfact> 0.62956259E+04</totfact>
</mgrwt>
</event>
<event>
 6    0  0.1576925E-007  0.4266631E+03  0.7546771E-02  0.1034919E+00
         21   -1    0    0  502  501  0.00000000000E+00  0.00000000000E+00  0.11857779184E+03  0.11857779184E+03  0.00000000000E+00 0.  1.
         21   -1    0    0  501  502 -0.00000000000E+00 -0.00000000000E+00 -0.38380155550E+03  0.38380155550E+03  0.00000000000E+00 0.  1.
      99926    2    1    2    0    0  0.00000000000E+00  0.17763568394E-14 -0.26522376366E+03  0.50237934734E+03  0.42666305655E+03 0.  0.
         25    1    3    3    0    0  0.19185540150E+02  0.62834217259E+02 -0.47248526853E+02  0.14898374139E+03  0.12509000000E+03 0.  0.
         25    1    3    3    0    0 -0.53374363935E+02 -0.78888985007E+01 -0.91520180623E+02  0.16411736351E+03  0.12509000000E+03 0.  0.
         25    1    3    3    0    0  0.34188823785E+02 -0.54945318759E+02 -0.12645505618E+03  0.18927824243E+03  0.12509000000E+03 0.  0.
<mgrwt>
<rscale>  2 0.42666306E+03</rscale>
<asrwt>0</asrwt>
<pdfrwt beam="1">  1       21 0.17437911E-01 0.42666306E+03</pdfrwt>
<pdfrwt beam="2">  1       21 0.56441405E-01 0.42666306E+03</pdfrwt>
<totfact> 0.82049525E+04</totfact>
</mgrwt>
</event>
<event>
 6    0  0.1576925E-007  0.4550321E+03  0.7546771E-02  0.1026232E+00
         21   -1    0    0  502  501  0.00000000000E+00  0.00000000000E+00  0.26933661432E+04  0.26933661432E+04  0.00000000000E+00 0. -1.
         21   -1    0    0  501  502 -0.00000000000E+00 -0.00000000000E+00 -0.19218903281E+02  0.19218903281E+02  0.00000000000E+00 0. -1.
      99926    2    1    2    0    0  0.71054273576E-14  0.35527136788E-14  0.26741472399E+04  0.27125850465E+04  0.45503205780E+03 0.  0.
         25    1    3    3    0    0 -0.41591600591E+02  0.63908765995E+02  0.56454189050E+03  0.58324029854E+03  0.12509000000E+03 0.  0.
         25    1    3    3    0    0  0.36967486431E+01 -0.82307244389E+02  0.13582151057E+04  0.13664493880E+04  0.12509000000E+03 0.  0.
         25    1    3    3    0    0  0.37894851947E+02  0.18398478394E+02  0.75139024369E+03  0.76289535995E+03  0.12509000000E+03 0.  0.
<mgrwt>
<rscale>  2 0.45503206E+03</rscale>
<asrwt>0</asrwt>
<pdfrwt beam="1">  1       21 0.39608300E+00 0.45503206E+03</pdfrwt>
<pdfrwt beam="2">  1       21 0.28263112E-02 0.45503206E+03</pdfrwt>
<totfact> 0.51909914E+03</totfact>
</mgrwt>
</event>
<event>
 6    0  0.1576925E-007  0.4533329E+03  0.7546771E-02  0.1026733E+00
         21   -1    0    0  502  501  0.00000000000E+00  0.00000000000E+00  0.16948068394E+03  0.16948068394E+03  0.00000000000E+00 0. -1.
         21   -1    0    0  501  502 -0.00000000000E+00 -0.00000000000E+00 -0.30314775750E+03  0.30314775750E+03  0.00000000000E+00 0. -1.
      99926    2    1    2    0    0  0.00000000000E+00  0.17763568394E-14 -0.13366707356E+03  0.47262844144E+03  0.45333294288E+03 0.  0.
         25    1    3    3    0    0 -0.53001773071E+02 -0.81220587484E+02 -0.16502430697E+02  0.15914084987E+03  0.12509000000E+03 0.  0.
         25    1    3    3    0    0  0.52321756977E+02 -0.97306985102E+01 -0.49496670590E+02  0.14467094126E+03  0.12509000000E+03 0.  0.
         25    1    3    3    0    0  0.68001609342E+00  0.90951285994E+02 -0.67667972277E+02  0.16881665030E+03  0.12509000000E+03 0.  0.
<mgrwt>
<rscale>  2 0.45333294E+03</rscale>
<asrwt>0</asrwt>
<pdfrwt beam="1">  1       21 0.24923631E-01 0.45333294E+03</pdfrwt>
<pdfrwt beam="2">  1       21 0.44580552E-01 0.45333294E+03</pdfrwt>
<totfact> 0.68137670E+04</totfact>
</mgrwt>
</event>
<event>
 6    0  0.1576925E-007  0.4539757E+03  0.7546771E-02  0.1026543E+00
         21   -1    0    0  502  501  0.00000000000E+00  0.00000000000E+00  0.45212935806E+03  0.45212935806E+03  0.00000000000E+00 0.  1.
         21   -1    0    0  501  502 -0.00000000000E+00 -0.00000000000E+00 -0.11395740234E+03  0.11395740234E+03  0.00000000000E+00 0.  1.
      99926    2    1    2    0    0 -0.35527136788E-14  0.00000000000E+00  0.33817195572E+03  0.56608676040E+03  0.45397571373E+03 0.  0.
         25    1    3    3    0    0  0.51048739317E+02  0.84768713563E+02  0.15991698054E+03  0.22585981792E+03  0.12509000000E+03 0.  0.
         25    1    3    3    0    0 -0.71498903620E+02 -0.44434990252E+02  0.60103617766E+02  0.16231609454E+03  0.12509000000E+03 0.  0.
         25    1    3    3    0    0  0.20450164304E+02 -0.40333723311E+02  0.11815135741E+03  0.17791084794E+03  0.12509000000E+03 0.  0.
<mgrwt>
<rscale>  2 0.45397571E+03</rscale>
<asrwt>0</asrwt>
<pdfrwt beam="1">  1       21 0.66489611E-01 0.45397571E+03</pdfrwt>
<pdfrwt beam="2">  1       21 0.16758442E-01 0.45397571E+03</pdfrwt>
<totfact> 0.61310990E+04</totfact>
</mgrwt>
</event>
<event>
 6    0  0.1576925E-007  0.4586429E+03  0.7546771E-02  0.1025176E+00
         21   -1    0    0  502  501  0.00000000000E+00  0.00000000000E+00  0.14486781000E+03  0.14486781000E+03  0.00000000000E+00 0.  1.
         21   -1    0    0  501  502 -0.00000000000E+00 -0.00000000000E+00 -0.36300902241E+03  0.36300902241E+03  0.00000000000E+00 0.  1.
      99926    2    1    2    0    0 -0.71054273576E-14 -0.35527136788E-14 -0.21814121241E+03  0.50787683242E+03  0.45864287671E+03 0.  0.
         25    1    3    3    0    0  0.23779502962E+02  0.46521158864E+02 -0.11815479590E+03  0.17982699151E+03  0.12509000000E+03 0.  0.
         25    1    3    3    0    0  0.45132918076E+02  0.10658377252E+02  0.17402779932E+02  0.13453975676E+03  0.12509000000E+03 0.  0.
         25    1    3    3    0    0 -0.68912421038E+02 -0.57179536116E+02 -0.11738919644E+03  0.19351008414E+03  0.12509000000E+03 0.  0.
<mgrwt>
<rscale>  2 0.45864288E+03</rscale>
<asrwt>0</asrwt>
<pdfrwt beam="1">  1       21 0.21304090E-01 0.45864288E+03</pdfrwt>
<pdfrwt beam="2">  1       21 0.53383679E-01 0.45864288E+03</pdfrwt>
<totfact> 0.62882798E+04</totfact>
</mgrwt>
</event>
<event>
 6    0  0.1576925E-007  0.4637525E+03  0.7546771E-02  0.1023698E+00
         21   -1    0    0  502  501  0.00000000000E+00  0.00000000000E+00  0.13440340121E+04  0.13440340121E+04  0.00000000000E+00 0.  1.
         21   -1    0    0  501  502 -0.00000000000E+00 -0.00000000000E+00 -0.40003895265E+02  0.40003895265E+02  0.00000000000E+00 0.  1.
      99926    2    1    2    0    0  0.00000000000E+00 -0.88817841970E-15  0.13040301168E+04  0.13840379073E+04  0.46375250232E+03 0.  0.
         25    1    3    3    0    0  0.29613531326E+02  0.82995916550E+02  0.27994702001E+03  0.31903467761E+03  0.12509000000E+03 0.  0.
         25    1    3    3    0    0  0.29766459790E+02  0.41436073826E+01  0.43544294901E+03  0.45404986681E+03  0.12509000000E+03 0.  0.
         25    1    3    3    0    0 -0.59379991117E+02 -0.87139523932E+02  0.58864014780E+03  0.61095336293E+03  0.12509000000E+03 0.  0.
<mgrwt>
<rscale>  2 0.46375250E+03</rscale>
<asrwt>0</asrwt>
<pdfrwt beam="1">  1       21 0.19765203E+00 0.46375250E+03</pdfrwt>
<pdfrwt beam="2">  1       21 0.58829267E-02 0.46375250E+03</pdfrwt>
<totfact> 0.25015142E+04</totfact>
</mgrwt>
</event>
<event>
 6    0  0.1576925E-007  0.4563097E+03  0.7546771E-02  0.1025857E+00
         21   -1    0    0  502  501  0.00000000000E+00  0.00000000000E+00  0.91663083155E+02  0.91663083155E+02  0.00000000000E+00 0.  1.
         21   -1    0    0  501  502 -0.00000000000E+00 -0.00000000000E+00 -0.56789087716E+03  0.56789087716E+03  0.00000000000E+00 0.  1.
      99926    2    1    2    0    0 -0.71054273576E-14  0.00000000000E+00 -0.47622779400E+03  0.65955396031E+03  0.45630966983E+03 0.  0.
         25    1    3    3    0    0  0.54373895551E+02  0.61131539774E+02 -0.18960551594E+03  0.24143600694E+03  0.12509000000E+03 0.  0.
         25    1    3    3    0    0 -0.80262418949E+02 -0.34930454801E+02 -0.22975567507E+03  0.27585751919E+03  0.12509000000E+03 0.  0.
         25    1    3    3    0    0  0.25888523398E+02 -0.26201084974E+02 -0.56866602997E+02  0.14226043418E+03  0.12509000000E+03 0.  0.
<mgrwt>
<rscale>  2 0.45630967E+03</rscale>
<asrwt>0</asrwt>
<pdfrwt beam="1">  1       21 0.13479865E-01 0.45630967E+03</pdfrwt>
<pdfrwt beam="2">  1       21 0.83513364E-01 0.45630967E+03</pdfrwt>
<totfact> 0.54588087E+04</totfact>
</mgrwt>
</event>
<event>
 6    0  0.1576925E-007  0.4593195E+03  0.7546771E-02  0.1024979E+00
         21   -1    0    0  502  501  0.00000000000E+00  0.00000000000E+00  0.77969802576E+02  0.77969802576E+02  0.00000000000E+00 0.  1.
         21   -1    0    0  501  502 -0.00000000000E+00 -0.00000000000E+00 -0.67646191118E+03  0.67646191118E+03  0.00000000000E+00 0.  1.
      99926    2    1    2    0    0  0.00000000000E+00  0.00000000000E+00 -0.59849210860E+03  0.75443171375E+03  0.45931950390E+03 0.  0.
         25    1    3    3    0    0  0.84362465424E+02 -0.75150506757E+01 -0.34011733293E+03  0.37215696932E+03  0.12509000000E+03 0.  0.
         25    1    3    3    0    0 -0.17300907277E+01  0.47775747245E+01 -0.15907891533E+03  0.20243376160E+03  0.12509000000E+03 0.  0.
         25    1    3    3    0    0 -0.82632374696E+02  0.27374759512E+01 -0.99295860344E+02  0.17984098283E+03  0.12509000000E+03 0.  0.
<mgrwt>
<rscale>  2 0.45931950E+03</rscale>
<asrwt>0</asrwt>
<pdfrwt beam="1">  1       21 0.11466147E-01 0.45931950E+03</pdfrwt>
<pdfrwt beam="2">  1       21 0.99479694E-01 0.45931950E+03</pdfrwt>
<totfact> 0.48381957E+04</totfact>
</mgrwt>
</event>
<event>
 6    0  0.1576925E-007  0.4543359E+03  0.7546771E-02  0.1026437E+00
         21   -1    0    0  502  501  0.00000000000E+00  0.00000000000E+00  0.54474187324E+03  0.54474187324E+03  0.00000000000E+00 0. -1.
         21   -1    0    0  501  502 -0.00000000000E+00 -0.00000000000E+00 -0.94733459242E+02  0.94733459242E+02  0.00000000000E+00 0. -1.
      99926    2    1    2    0    0  0.00000000000E+00  0.00000000000E+00  0.45000841400E+03  0.63947533248E+03  0.45433591998E+03 0.  0.
         25    1    3    3    0    0  0.26011420715E+01  0.31318086855E+02  0.48481851843E+02  0.13778819457E+03  0.12509000000E+03 0.  0.
         25    1    3    3    0    0  0.78473868529E+02 -0.22298985319E+02  0.23032869640E+03  0.27450721170E+03  0.12509000000E+03 0.  0.
         25    1    3    3    0    0 -0.81075010600E+02 -0.90191015353E+01  0.17119786575E+03  0.22717992621E+03  0.12509000000E+03 0.  0.
<mgrwt>
<rscale>  2 0.45433592E+03</rscale>
<asrwt>0</asrwt>
<pdfrwt beam="1">  1       21 0.80109097E-01 0.45433592E+03</pdfrwt>
<pdfrwt beam="2">  1       21 0.13931391E-01 0.45433592E+03</pdfrwt>
<totfact> 0.56608004E+04</totfact>
</mgrwt>
</event>
<event>
 6    0  0.1576925E-007  0.4645881E+03  0.7546771E-02  0.1023459E+00
         21   -1    0    0  502  501  0.00000000000E+00  0.00000000000E+00  0.24830328926E+03  0.24830328926E+03  0.00000000000E+00 0.  1.
         21   -1    0    0  501  502 -0.00000000000E+00 -0.00000000000E+00 -0.21731704327E+03  0.21731704327E+03  0.00000000000E+00 0.  1.
      99926    2    1    2    0    0 -0.71054273576E-14  0.00000000000E+00  0.30986245982E+02  0.46562033253E+03  0.46458814731E+03 0.  0.
         25    1    3    3    0    0 -0.48476054602E+02 -0.10273259609E+03 -0.51166545851E+01  0.16904911246E+03  0.12509000000E+03 0.  0.
         25    1    3    3    0    0 -0.21991490210E+02  0.48060184641E+02 -0.10020837194E+02  0.13616656075E+03  0.12509000000E+03 0.  0.
         25    1    3    3    0    0  0.70467544811E+02  0.54672411448E+02  0.46123737762E+02  0.16040465932E+03  0.12509000000E+03 0.  0.
<mgrwt>
<rscale>  2 0.46458815E+03</rscale>
<asrwt>0</asrwt>
<pdfrwt beam="1">  1       21 0.36515190E-01 0.46458815E+03</pdfrwt>
<pdfrwt beam="2">  1       21 0.31958389E-01 0.46458815E+03</pdfrwt>
<totfact> 0.62828838E+04</totfact>
</mgrwt>
</event>
<event>
 6    0  0.1576925E-007  0.4575120E+03  0.7546771E-02  0.1025505E+00
         21   -1    0    0  502  501  0.00000000000E+00  0.00000000000E+00  0.24825731400E+03  0.24825731400E+03  0.00000000000E+00 0.  1.
         21   -1    0    0  501  502 -0.00000000000E+00 -0.00000000000E+00 -0.21078653534E+03  0.21078653534E+03  0.00000000000E+00 0.  1.
      99926    2    1    2    0    0  0.00000000000E+00  0.35527136788E-14  0.37470778662E+02  0.45904384934E+03  0.45751196308E+03 0.  0.
         25    1    3    3    0    0  0.90994081815E+02  0.52943271577E+02  0.50532087499E+02  0.17112543031E+03  0.12509000000E+03 0.  0.
         25    1    3    3    0    0  0.38261516210E+01 -0.32312560672E+02 -0.31169535056E+01  0.12929023363E+03  0.12509000000E+03 0.  0.
         25    1    3    3    0    0 -0.94820233436E+02 -0.20630710905E+02 -0.99443553317E+01  0.15862818540E+03  0.12509000000E+03 0.  0.
<mgrwt>
<rscale>  2 0.45751196E+03</rscale>
<asrwt>0</asrwt>
<pdfrwt beam="1">  1       21 0.36508429E-01 0.45751196E+03</pdfrwt>
<pdfrwt beam="2">  1       21 0.30998020E-01 0.45751196E+03</pdfrwt>
<totfact> 0.66899680E+04</totfact>
</mgrwt>
</event>
<event>
 6    0  0.1576925E-007  0.4529647E+03  0.7546771E-02  0.1026842E+00
         21   -1    0    0  502  501  0.00000000000E+00  0.00000000000E+00  0.73902002533E+03  0.73902002533E+03  0.00000000000E+00 0.  1.
         21   -1    0    0  501  502 -0.00000000000E+00 -0.00000000000E+00 -0.69408491057E+02  0.69408491057E+02  0.00000000000E+00 0.  1.
      99926    2    1    2    0    0 -0.17763568394E-14 -0.71054273576E-14  0.66961153428E+03  0.80842851639E+03  0.45296474397E+03 0.  0.
         25    1    3    3    0    0 -0.64912158844E+01 -0.56043341771E+02  0.36703191865E+03  0.39184554285E+03  0.12509000000E+03 0.  0.
         25    1    3    3    0    0 -0.43476738949E+02  0.56541420972E+02  0.20382827116E+03  0.24956087702E+03  0.12509000000E+03 0.  0.
         25    1    3    3    0    0  0.49967954833E+02 -0.49807920154E+00  0.98751344465E+02  0.16702209652E+03  0.12509000000E+03 0.  0.
<mgrwt>
<rscale>  2 0.45296474E+03</rscale>
<asrwt>0</asrwt>
<pdfrwt beam="1">  1       21 0.10867941E+00 0.45296474E+03</pdfrwt>
<pdfrwt beam="2">  1       21 0.10207131E-01 0.45296474E+03</pdfrwt>
<totfact> 0.48123842E+04</totfact>
</mgrwt>
</event>
<event>
 6    0  0.1576925E-007  0.4498437E+03  0.7546771E-02  0.1027769E+00
         21   -1    0    0  502  501  0.00000000000E+00  0.00000000000E+00  0.33315709769E+03  0.33315709769E+03  0.00000000000E+00 0.  1.
         21   -1    0    0  501  502 -0.00000000000E+00 -0.00000000000E+00 -0.15184979700E+03  0.15184979700E+03  0.00000000000E+00 0.  1.
      99926    2    1    2    0    0  0.00000000000E+00  0.00000000000E+00  0.18130730069E+03  0.48500689468E+03  0.44984369575E+03 0.  0.
         25    1    3    3    0    0 -0.55409677017E+02  0.46436097105E+02  0.13118690145E+03  0.19515136339E+03  0.12509000000E+03 0.  0.
         25    1    3    3    0    0  0.37438364175E+02  0.29868535441E+02  0.47783382754E+02  0.14221293995E+03  0.12509000000E+03 0.  0.
         25    1    3    3    0    0  0.17971312842E+02 -0.76304632546E+02  0.23370164869E+01  0.14764259135E+03  0.12509000000E+03 0.  0.
<mgrwt>
<rscale>  2 0.44984370E+03</rscale>
<asrwt>0</asrwt>
<pdfrwt beam="1">  1       21 0.48993691E-01 0.44984370E+03</pdfrwt>
<pdfrwt beam="2">  1       21 0.22330853E-01 0.44984370E+03</pdfrwt>
<totfact> 0.69123873E+04</totfact>
</mgrwt>
</event>
<event>
 6    0  0.1576925E-007  0.4596126E+03  0.7546771E-02  0.1024894E+00
         21   -1    0    0  502  501  0.00000000000E+00  0.00000000000E+00  0.77532589739E+03  0.77532589739E+03  0.00000000000E+00 0.  1.
         21   -1    0    0  501  502 -0.00000000000E+00 -0.00000000000E+00 -0.68114504590E+02  0.68114504590E+02  0.00000000000E+00 0.  1.
      99926    2    1    2    0    0  0.00000000000E+00  0.00000000000E+00  0.70721139280E+03  0.84344040198E+03  0.45961261687E+03 0.  0.
         25    1    3    3    0    0 -0.15980443002E+02  0.11783055846E+02  0.21155691825E+03  0.24657261146E+03  0.12509000000E+03 0.  0.
         25    1    3    3    0    0  0.62184634993E+02 -0.76643148663E+02  0.36870640912E+03  0.40166282538E+03  0.12509000000E+03 0.  0.
         25    1    3    3    0    0 -0.46204191991E+02  0.64860092817E+02  0.12694806543E+03  0.19520496514E+03  0.12509000000E+03 0.  0.
<mgrwt>
<rscale>  2 0.45961262E+03</rscale>
<asrwt>0</asrwt>
<pdfrwt beam="1">  1       21 0.11401851E+00 0.45961262E+03</pdfrwt>
<pdfrwt beam="2">  1       21 0.10016839E-01 0.45961262E+03</pdfrwt>
<totfact> 0.44116036E+04</totfact>
</mgrwt>
</event>
<event>
 6    0  0.1576925E-007  0.4513323E+03  0.7546771E-02  0.1027325E+00
         21   -1    0    0  502  501  0.00000000000E+00  0.00000000000E+00  0.10094398949E+03  0.10094398949E+03  0.00000000000E+00 0.  1.
         21   -1    0    0  501  502 -0.00000000000E+00 -0.00000000000E+00 -0.50448970777E+03  0.50448970777E+03  0.00000000000E+00 0.  1.
      99926    2    1    2    0    0 -0.71054273576E-14  0.00000000000E+00 -0.40354571828E+03  0.60543369727E+03  0.45133226679E+03 0.  0.
         25    1    3    3    0    0  0.25857363590E+02  0.30752518503E+02 -0.66448705190E+02  0.14723199098E+03  0.12509000000E+03 0.  0.
         25    1    3    3    0    0 -0.62321466580E+02  0.18395842097E+02 -0.26785011014E+03  0.30267732291E+03  0.12509000000E+03 0.  0.
         25    1    3    3    0    0  0.36464102989E+02 -0.49148360600E+02 -0.69246902951E+02  0.15552438338E+03  0.12509000000E+03 0.  0.
<mgrwt>
<rscale>  2 0.45133227E+03</rscale>
<asrwt>0</asrwt>
<pdfrwt beam="1">  1       21 0.14844704E-01 0.45133227E+03</pdfrwt>
<pdfrwt beam="2">  1       21 0.74189662E-01 0.45133227E+03</pdfrwt>
<totfact> 0.60066626E+04</totfact>
</mgrwt>
</event>
<event>
 6    0  0.1576925E-007  0.4485316E+03  0.7546771E-02  0.1028161E+00
         21   -1    0    0  502  501  0.00000000000E+00  0.00000000000E+00  0.25040448536E+03  0.25040448536E+03  0.00000000000E+00 0.  1.
         21   -1    0    0  501  502 -0.00000000000E+00 -0.00000000000E+00 -0.20085561007E+03  0.20085561007E+03  0.00000000000E+00 0.  1.
      99926    2    1    2    0    0 -0.71054273576E-14  0.00000000000E+00  0.49548875286E+02  0.45126009543E+03  0.44853158493E+03 0.  0.
         25    1    3    3    0    0  0.57330717561E+02  0.27204861407E+02  0.56547933470E+02  0.15123522255E+03  0.12509000000E+03 0.  0.
         25    1    3    3    0    0  0.32770880013E+02 -0.59630742213E+02 -0.45504889971E+01  0.14247094807E+03  0.12509000000E+03 0.  0.
         25    1    3    3    0    0 -0.90101597573E+02  0.32425880806E+02 -0.24485691865E+01  0.15755392481E+03  0.12509000000E+03 0.  0.
<mgrwt>
<rscale>  2 0.44853158E+03</rscale>
<asrwt>0</asrwt>
<pdfrwt beam="1">  1       21 0.36824189E-01 0.44853158E+03</pdfrwt>
<pdfrwt beam="2">  1       21 0.29537590E-01 0.44853158E+03</pdfrwt>
<totfact> 0.72490044E+04</totfact>
</mgrwt>
</event>
<event>
 6    0  0.1576925E-007  0.4432321E+03  0.7546771E-02  0.1029760E+00
         21   -1    0    0  502  501  0.00000000000E+00  0.00000000000E+00  0.21825148826E+02  0.21825148826E+02  0.00000000000E+00 0. -1.
         21   -1    0    0  501  502 -0.00000000000E+00 -0.00000000000E+00 -0.22503243251E+04  0.22503243251E+04  0.00000000000E+00 0. -1.
      99926    2    1    2    0    0  0.00000000000E+00 -0.35527136788E-14 -0.22284991763E+04  0.22721494739E+04  0.44323205346E+03 0.  0.
         25    1    3    3    0    0 -0.40979139658E+02 -0.62801967686E+01 -0.37302706184E+03  0.39562030752E+03  0.12509000000E+03 0.  0.
         25    1    3    3    0    0  0.13906650636E+02  0.61776367553E+02 -0.99272164589E+03  0.10025734331E+04  0.12509000000E+03 0.  0.
         25    1    3    3    0    0  0.27072489023E+02 -0.55496170784E+02 -0.86275046853E+03  0.87395573325E+03  0.12509000000E+03 0.  0.
<mgrwt>
<rscale>  2 0.44323205E+03</rscale>
<asrwt>0</asrwt>
<pdfrwt beam="1">  1       21 0.32095827E-02 0.44323205E+03</pdfrwt>
<pdfrwt beam="2">  1       21 0.33092984E+00 0.44323205E+03</pdfrwt>
<totfact> 0.10698746E+04</totfact>
</mgrwt>
</event>
<event>
 6    0  0.1576925E-007  0.4436140E+03  0.7546771E-02  0.1029644E+00
         21   -1    0    0  502  501  0.00000000000E+00  0.00000000000E+00  0.25576916224E+02  0.25576916224E+02  0.00000000000E+00 0.  1.
         21   -1    0    0  501  502 -0.00000000000E+00 -0.00000000000E+00 -0.19235451119E+04  0.19235451119E+04  0.00000000000E+00 0.  1.
      99926    2    1    2    0    0  0.00000000000E+00  0.35527136788E-14 -0.18979681957E+04  0.19491220282E+04  0.44361403125E+03 0.  0.
         25    1    3    3    0    0  0.62641699910E+02  0.44272621968E+02 -0.44755397187E+03  0.47099481256E+03  0.12509000000E+03 0.  0.
         25    1    3    3    0    0 -0.71674892389E+01 -0.69564653912E+02 -0.63966345844E+03  0.65552075645E+03  0.12509000000E+03 0.  0.
         25    1    3    3    0    0 -0.55474210671E+02  0.25292031944E+02 -0.81075076541E+03  0.82260645916E+03  0.12509000000E+03 0.  0.
<mgrwt>
<rscale>  2 0.44361403E+03</rscale>
<asrwt>0</asrwt>
<pdfrwt beam="1">  1       21 0.37613102E-02 0.44361403E+03</pdfrwt>
<pdfrwt beam="2">  1       21 0.28287435E+00 0.44361403E+03</pdfrwt>
<totfact> 0.15919597E+04</totfact>
</mgrwt>
</event>
<event>
 6    0  0.1576925E-007  0.4344311E+03  0.7546771E-02  0.1032469E+00
         21   -1    0    0  502  501  0.00000000000E+00  0.00000000000E+00  0.51267349652E+03  0.51267349652E+03  0.00000000000E+00 0. -1.
         21   -1    0    0  501  502 -0.00000000000E+00 -0.00000000000E+00 -0.92032465557E+02  0.92032465557E+02  0.00000000000E+00 0. -1.
      99926    2    1    2    0    0  0.00000000000E+00  0.00000000000E+00  0.42064103097E+03  0.60470596208E+03  0.43443114949E+03 0.  0.
         25    1    3    3    0    0 -0.51828006364E+02  0.33865283947E+02  0.24368690168E+03  0.28082701766E+03  0.12509000000E+03 0.  0.
         25    1    3    3    0    0  0.29629255402E+01 -0.37264064807E+02  0.12215826220E+03  0.17879468275E+03  0.12509000000E+03 0.  0.
         25    1    3    3    0    0  0.48865080824E+02  0.33987808597E+01  0.54795867088E+02  0.14508426167E+03  0.12509000000E+03 0.  0.
<mgrwt>
<rscale>  2 0.43443115E+03</rscale>
<asrwt>0</asrwt>
<pdfrwt beam="1">  1       21 0.75393160E-01 0.43443115E+03</pdfrwt>
<pdfrwt beam="2">  1       21 0.13534186E-01 0.43443115E+03</pdfrwt>
<totfact> 0.68924024E+04</totfact>
</mgrwt>
</event>
<event>
 6    0  0.1576925E-007  0.4579475E+03  0.7546771E-02  0.1025378E+00
         21   -1    0    0  502  501  0.00000000000E+00  0.00000000000E+00  0.78778437252E+02  0.78778437252E+02  0.00000000000E+00 0. -1.
         21   -1    0    0  501  502 -0.00000000000E+00 -0.00000000000E+00 -0.66552450208E+03  0.66552450208E+03  0.00000000000E+00 0. -1.
      99926    2    1    2    0    0  0.00000000000E+00  0.00000000000E+00 -0.58674606483E+03  0.74430293933E+03  0.45794750890E+03 0.  0.
         25    1    3    3    0    0 -0.42781046282E+02  0.54887486780E+02 -0.63965200870E+02  0.15678618928E+03  0.12509000000E+03 0.  0.
         25    1    3    3    0    0  0.72017324338E+01  0.28126710631E+01 -0.22715031765E+03  0.25943120664E+03  0.12509000000E+03 0.  0.
         25    1    3    3    0    0  0.35579313848E+02 -0.57700157844E+02 -0.29563054630E+03  0.32808554341E+03  0.12509000000E+03 0.  0.
<mgrwt>
<rscale>  2 0.45794751E+03</rscale>
<asrwt>0</asrwt>
<pdfrwt beam="1">  1       21 0.11585065E-01 0.45794751E+03</pdfrwt>
<pdfrwt beam="2">  1       21 0.97871245E-01 0.45794751E+03</pdfrwt>
<totfact> 0.49407975E+04</totfact>
</mgrwt>
</event>
<event>
 6    0  0.1576925E-007  0.4614503E+03  0.7546771E-02  0.1024361E+00
         21   -1    0    0  502  501  0.00000000000E+00  0.00000000000E+00  0.49879884551E+02  0.49879884551E+02  0.00000000000E+00 0.  1.
         21   -1    0    0  501  502 -0.00000000000E+00 -0.00000000000E+00 -0.10672457162E+04  0.10672457162E+04  0.00000000000E+00 0.  1.
      99926    2    1    2    0    0  0.00000000000E+00 -0.71054273576E-14 -0.10173658316E+04  0.11171256007E+04  0.46145029249E+03 0.  0.
         25    1    3    3    0    0  0.28037380129E+02  0.35478111911E+02 -0.32869905093E+03  0.35459182913E+03  0.12509000000E+03 0.  0.
         25    1    3    3    0    0  0.61641593979E+02 -0.74693809260E+02 -0.24845288343E+03  0.29454234778E+03  0.12509000000E+03 0.  0.
         25    1    3    3    0    0 -0.89678974108E+02  0.39215697349E+02 -0.44021389728E+03  0.46799142382E+03  0.12509000000E+03 0.  0.
<mgrwt>
<rscale>  2 0.46145029E+03</rscale>
<asrwt>0</asrwt>
<pdfrwt beam="1">  1       21 0.73352775E-02 0.46145029E+03</pdfrwt>
<pdfrwt beam="2">  1       21 0.15694789E+00 0.46145029E+03</pdfrwt>
<totfact> 0.33197899E+04</totfact>
</mgrwt>
</event>
<event>
 6    0  0.1576925E-007  0.4683952E+03  0.7546771E-02  0.1022374E+00
         21   -1    0    0  502  501  0.00000000000E+00  0.00000000000E+00  0.63153682134E+02  0.63153682134E+02  0.00000000000E+00 0.  1.
         21   -1    0    0  501  502 -0.00000000000E+00 -0.00000000000E+00 -0.86849270579E+03  0.86849270579E+03  0.00000000000E+00 0.  1.
      99926    2    1    2    0    0 -0.35527136788E-14  0.00000000000E+00 -0.80533902365E+03  0.93164638792E+03  0.46839518476E+03 0.  0.
         25    1    3    3    0    0 -0.78272468529E+01 -0.57867147257E+02 -0.22426739051E+03  0.26335003906E+03  0.12509000000E+03 0.  0.
         25    1    3    3    0    0 -0.27189598981E+02 -0.21370046527E+02 -0.44712680236E+03  0.46558118376E+03  0.12509000000E+03 0.  0.
         25    1    3    3    0    0  0.35016845834E+02  0.79237193783E+02 -0.13394483078E+03  0.20271516511E+03  0.12509000000E+03 0.  0.
<mgrwt>
<rscale>  2 0.46839518E+03</rscale>
<asrwt>0</asrwt>
<pdfrwt beam="1">  1       21 0.92873062E-02 0.46839518E+03</pdfrwt>
<pdfrwt beam="2">  1       21 0.12771952E+00 0.46839518E+03</pdfrwt>
<totfact> 0.37775265E+04</totfact>
</mgrwt>
</event>
<event>
 6    0  0.1576925E-007  0.4582643E+03  0.7546771E-02  0.1025286E+00
         21   -1    0    0  502  501  0.00000000000E+00  0.00000000000E+00  0.27960998142E+03  0.27960998142E+03  0.00000000000E+00 0.  1.
         21   -1    0    0  501  502 -0.00000000000E+00 -0.00000000000E+00 -0.18776702613E+03  0.18776702613E+03  0.00000000000E+00 0.  1.
      99926    2    1    2    0    0  0.00000000000E+00  0.14210854715E-13  0.91842955294E+02  0.46737700755E+03  0.45826426737E+03 0.  0.
         25    1    3    3    0    0  0.22830650479E+02 -0.89898845828E+02  0.41891357387E+02  0.16126200732E+03  0.12509000000E+03 0.  0.
         25    1    3    3    0    0  0.48633912019E+01 -0.25357619036E+02  0.38496075188E+02  0.13340208890E+03  0.12509000000E+03 0.  0.
         25    1    3    3    0    0 -0.27694041681E+02  0.11525646486E+03  0.11455522718E+02  0.17271291133E+03  0.12509000000E+03 0.  0.
<mgrwt>
<rscale>  2 0.45826427E+03</rscale>
<asrwt>0</asrwt>
<pdfrwt beam="1">  1       21 0.41119115E-01 0.45826427E+03</pdfrwt>
<pdfrwt beam="2">  1       21 0.27612798E-01 0.45826427E+03</pdfrwt>
<totfact> 0.65907300E+04</totfact>
</mgrwt>
</event>
<event>
 6    0  0.1576925E-007  0.4500552E+03  0.7546771E-02  0.1027706E+00
         21   -1    0    0  502  501  0.00000000000E+00  0.00000000000E+00  0.89726655614E+03  0.89726655614E+03  0.00000000000E+00 0. -1.
         21   -1    0    0  501  502 -0.00000000000E+00 -0.00000000000E+00 -0.56435195991E+02  0.56435195991E+02  0.00000000000E+00 0. -1.
      99926    2    1    2    0    0  0.00000000000E+00 -0.71054273576E-14  0.84083136015E+03  0.95370175214E+03  0.45005516974E+03 0.  0.
         25    1    3    3    0    0 -0.51595146787E+02 -0.46481859267E+02  0.32093793230E+03  0.35138481314E+03  0.12509000000E+03 0.  0.
         25    1    3    3    0    0  0.26451891872E+02 -0.14650036563E+02  0.38840156678E+03  0.40916697244E+03  0.12509000000E+03 0.  0.
         25    1    3    3    0    0  0.25143254915E+02  0.61131895830E+02  0.13149186107E+03  0.19314996656E+03  0.12509000000E+03 0.  0.
<mgrwt>
<rscale>  2 0.45005517E+03</rscale>
<asrwt>0</asrwt>
<pdfrwt beam="1">  1       21 0.13195096E+00 0.45005517E+03</pdfrwt>
<pdfrwt beam="2">  1       21 0.82992941E-02 0.45005517E+03</pdfrwt>
<totfact> 0.42615325E+04</totfact>
</mgrwt>
</event>
<event>
 6    0  0.1576925E-007  0.4530736E+03  0.7546771E-02  0.1026809E+00
         21   -1    0    0  502  501  0.00000000000E+00  0.00000000000E+00  0.27617431062E+03  0.27617431062E+03  0.00000000000E+00 0.  1.
         21   -1    0    0  501  502 -0.00000000000E+00 -0.00000000000E+00 -0.18582074697E+03  0.18582074697E+03  0.00000000000E+00 0.  1.
      99926    2    1    2    0    0 -0.35527136788E-14 -0.14210854715E-13  0.90353563647E+02  0.46199505759E+03  0.45307357766E+03 0.  0.
         25    1    3    3    0    0  0.16730537582E+02  0.81613494663E+02 -0.28342926241E+02  0.15294280946E+03  0.12509000000E+03 0.  0.
         25    1    3    3    0    0  0.96542077966E+01 -0.67498927642E+02  0.13896817296E+02  0.14314307036E+03  0.12509000000E+03 0.  0.
         25    1    3    3    0    0 -0.26384745378E+02 -0.14114567022E+02  0.10479967259E+03  0.16590917776E+03  0.12509000000E+03 0.  0.
<mgrwt>
<rscale>  2 0.45307358E+03</rscale>
<asrwt>0</asrwt>
<pdfrwt beam="1">  1       21 0.40613869E-01 0.45307358E+03</pdfrwt>
<pdfrwt beam="2">  1       21 0.27326581E-01 0.45307358E+03</pdfrwt>
<totfact> 0.69085780E+04</totfact>
</mgrwt>
</event>
<event>
 6    0  0.1576925E-007  0.4547779E+03  0.7546771E-02  0.1026307E+00
         21   -1    0    0  502  501  0.00000000000E+00  0.00000000000E+00  0.82223592001E+02  0.82223592001E+02  0.00000000000E+00 0. -1.
         21   -1    0    0  501  502 -0.00000000000E+00 -0.00000000000E+00 -0.62884316718E+03  0.62884316718E+03  0.00000000000E+00 0. -1.
      99926    2    1    2    0    0  0.00000000000E+00  0.71054273576E-14 -0.54661957518E+03  0.71106675918E+03  0.45477794147E+03 0.  0.
         25    1    3    3    0    0  0.41482745706E+02 -0.78383571688E+02 -0.13243956017E+03  0.20261428306E+03  0.12509000000E+03 0.  0.
         25    1    3    3    0    0  0.40443803675E+02  0.53928191808E+02 -0.22440568426E+03  0.26561131444E+03  0.12509000000E+03 0.  0.
         25    1    3    3    0    0 -0.81926549380E+02  0.24455379880E+02 -0.18977433076E+03  0.24284116169E+03  0.12509000000E+03 0.  0.
<mgrwt>
<rscale>  2 0.45477794E+03</rscale>
<asrwt>0</asrwt>
<pdfrwt beam="1">  1       21 0.12091704E-01 0.45477794E+03</pdfrwt>
<pdfrwt beam="2">  1       21 0.92476938E-01 0.45477794E+03</pdfrwt>
<totfact> 0.52397714E+04</totfact>
</mgrwt>
</event>
<event>
 6    0  0.1576925E-007  0.4571424E+03  0.7546771E-02  0.1025613E+00
         21   -1    0    0  502  501  0.00000000000E+00  0.00000000000E+00  0.10433624350E+03  0.10433624350E+03  0.00000000000E+00 0.  1.
         21   -1    0    0  501  502 -0.00000000000E+00 -0.00000000000E+00 -0.50073483009E+03  0.50073483009E+03  0.00000000000E+00 0.  1.
      99926    2    1    2    0    0  0.00000000000E+00  0.00000000000E+00 -0.39639858659E+03  0.60507107359E+03  0.45714238991E+03 0.  0.
         25    1    3    3    0    0  0.31310518102E+02 -0.92231392508E+01 -0.10875314991E+03  0.16893836319E+03  0.12509000000E+03 0.  0.
         25    1    3    3    0    0 -0.11920965065E+03  0.15151083006E+02 -0.13288194257E+03  0.21850769983E+03  0.12509000000E+03 0.  0.
         25    1    3    3    0    0  0.87899132547E+02 -0.59279437547E+01 -0.15476349411E+03  0.21762501058E+03  0.12509000000E+03 0.  0.
<mgrwt>
<rscale>  2 0.45714239E+03</rscale>
<asrwt>0</asrwt>
<pdfrwt beam="1">  1       21 0.15343565E-01 0.45714239E+03</pdfrwt>
<pdfrwt beam="2">  1       21 0.73637475E-01 0.45714239E+03</pdfrwt>
<totfact> 0.57389691E+04</totfact>
</mgrwt>
</event>
<event>
 6    0  0.1576925E-007  0.4520672E+03  0.7546771E-02  0.1027107E+00
         21   -1    0    0  502  501  0.00000000000E+00  0.00000000000E+00  0.64824891147E+03  0.64824891147E+03  0.00000000000E+00 0. -1.
         21   -1    0    0  501  502 -0.00000000000E+00 -0.00000000000E+00 -0.78814139903E+02  0.78814139903E+02  0.00000000000E+00 0. -1.
      99926    2    1    2    0    0  0.71054273576E-14  0.00000000000E+00  0.56943477156E+03  0.72706305137E+03  0.45206716492E+03 0.  0.
         25    1    3    3    0    0 -0.32788457789E+02 -0.16357756659E+02  0.19424720711E+03  0.23392764851E+03  0.12509000000E+03 0.  0.
         25    1    3    3    0    0  0.10237739078E+03  0.15713498128E+02  0.27155798037E+03  0.31641632222E+03  0.12509000000E+03 0.  0.
         25    1    3    3    0    0 -0.69588932991E+02  0.64425853128E+00  0.10362958409E+03  0.17671908064E+03  0.12509000000E+03 0.  0.
<mgrwt>
<rscale>  2 0.45206716E+03</rscale>
<asrwt>0</asrwt>
<pdfrwt beam="1">  1       21 0.95330719E-01 0.45206716E+03</pdfrwt>
<pdfrwt beam="2">  1       21 0.11590315E-01 0.45206716E+03</pdfrwt>
<totfact> 0.52662297E+04</totfact>
</mgrwt>
</event>
<event>
 6    0  0.1576925E-007  0.4544078E+03  0.7546771E-02  0.1026416E+00
         21   -1    0    0  502  501  0.00000000000E+00  0.00000000000E+00  0.47079805470E+03  0.47079805470E+03  0.00000000000E+00 0. -1.
         21   -1    0    0  501  502 -0.00000000000E+00 -0.00000000000E+00 -0.10964702826E+03  0.10964702826E+03  0.00000000000E+00 0. -1.
      99926    2    1    2    0    0  0.71054273576E-14  0.35527136788E-14  0.36115102644E+03  0.58044508297E+03  0.45440777991E+03 0.  0.
         25    1    3    3    0    0  0.60916465964E+02  0.20733249866E+02  0.10750564894E+03  0.17704704496E+03  0.12509000000E+03 0.  0.
         25    1    3    3    0    0 -0.31599560029E+02 -0.47389282011E+02  0.23306901074E+03  0.27057891291E+03  0.12509000000E+03 0.  0.
         25    1    3    3    0    0 -0.29316905935E+02  0.26656032146E+02  0.20576366765E+02  0.13281912510E+03  0.12509000000E+03 0.  0.
<mgrwt>
<rscale>  2 0.45440778E+03</rscale>
<asrwt>0</asrwt>
<pdfrwt beam="1">  1       21 0.69235007E-01 0.45440778E+03</pdfrwt>
<pdfrwt beam="2">  1       21 0.16124563E-01 0.45440778E+03</pdfrwt>
<totfact> 0.60179619E+04</totfact>
</mgrwt>
</event>
<event>
 6    0  0.1576925E-007  0.4536091E+03  0.7546771E-02  0.1026651E+00
         21   -1    0    0  502  501  0.00000000000E+00  0.00000000000E+00  0.21536117106E+03  0.21536117106E+03  0.00000000000E+00 0. -1.
         21   -1    0    0  501  502 -0.00000000000E+00 -0.00000000000E+00 -0.23885595724E+03  0.23885595724E+03  0.00000000000E+00 0. -1.
      99926    2    1    2    0    0 -0.35527136788E-14  0.00000000000E+00 -0.23494786177E+02  0.45421712830E+03  0.45360907692E+03 0.  0.
         25    1    3    3    0    0 -0.25346600629E+02  0.32122889310E+01 -0.46078065487E+02  0.13573306591E+03  0.12509000000E+03 0.  0.
         25    1    3    3    0    0 -0.77370861569E+02  0.12734690586E+02  0.44914319421E+02  0.15431534840E+03  0.12509000000E+03 0.  0.
         25    1    3    3    0    0  0.10271746220E+03 -0.15946979517E+02 -0.22331040112E+02  0.16416871398E+03  0.12509000000E+03 0.  0.
<mgrwt>
<rscale>  2 0.45360908E+03</rscale>
<asrwt>0</asrwt>
<pdfrwt beam="1">  1       21 0.31670760E-01 0.45360908E+03</pdfrwt>
<pdfrwt beam="2">  1       21 0.35125876E-01 0.45360908E+03</pdfrwt>
<totfact> 0.69369886E+04</totfact>
</mgrwt>
</event>
<event>
 6    0  0.1576925E-007  0.4449588E+03  0.7546771E-02  0.1029236E+00
         21   -1    0    0  502  501  0.00000000000E+00  0.00000000000E+00  0.33516602165E+03  0.33516602165E+03  0.00000000000E+00 0. -1.
         21   -1    0    0  501  502 -0.00000000000E+00 -0.00000000000E+00 -0.14767930352E+03  0.14767930352E+03  0.00000000000E+00 0. -1.
      99926    2    1    2    0    0  0.00000000000E+00  0.00000000000E+00  0.18748671813E+03  0.48284532517E+03  0.44495880547E+03 0.  0.
         25    1    3    3    0    0 -0.37480783903E+02  0.62069369183E+02  0.14892912955E+03  0.20756880662E+03  0.12509000000E+03 0.  0.
         25    1    3    3    0    0 -0.17440550580E+02 -0.11473303594E+02  0.15093194552E+02  0.12771500351E+03  0.12509000000E+03 0.  0.
         25    1    3    3    0    0  0.54921334483E+02 -0.50596065589E+02  0.23464394027E+02  0.14756151504E+03  0.12509000000E+03 0.  0.
<mgrwt>
<rscale>  2 0.44495881E+03</rscale>
<asrwt>0</asrwt>
<pdfrwt beam="1">  1       21 0.49289121E-01 0.44495881E+03</pdfrwt>
<pdfrwt beam="2">  1       21 0.21717545E-01 0.44495881E+03</pdfrwt>
<totfact> 0.72069355E+04</totfact>
</mgrwt>
</event>
<event>
 6    0  0.1576925E-007  0.4455101E+03  0.7546771E-02  0.1029069E+00
         21   -1    0    0  502  501  0.00000000000E+00  0.00000000000E+00  0.79299211638E+02  0.79299211638E+02  0.00000000000E+00 0. -1.
         21   -1    0    0  501  502 -0.00000000000E+00 -0.00000000000E+00 -0.62572887082E+03  0.62572887082E+03  0.00000000000E+00 0. -1.
      99926    2    1    2    0    0 -0.35527136788E-14  0.17763568394E-14 -0.54642965918E+03  0.70502808246E+03  0.44551007241E+03 0.  0.
         25    1    3    3    0    0  0.67556930268E+02  0.32579476831E+02 -0.17474710306E+03  0.22761682554E+03  0.12509000000E+03 0.  0.
         25    1    3    3    0    0 -0.95346060697E+02 -0.23530421489E+02 -0.13715958514E+03  0.21001145664E+03  0.12509000000E+03 0.  0.
         25    1    3    3    0    0  0.27789130429E+02 -0.90490553411E+01 -0.23452297098E+03  0.26739980028E+03  0.12509000000E+03 0.  0.
<mgrwt>
<rscale>  2 0.44551007E+03</rscale>
<asrwt>0</asrwt>
<pdfrwt beam="1">  1       21 0.11661649E-01 0.44551007E+03</pdfrwt>
<pdfrwt beam="2">  1       21 0.92018951E-01 0.44551007E+03</pdfrwt>
<totfact> 0.56751315E+04</totfact>
</mgrwt>
</event>
<event>
 6    0  0.1576925E-007  0.4545046E+03  0.7546771E-02  0.1026387E+00
         21   -1    0    0  502  501  0.00000000000E+00  0.00000000000E+00  0.83470640843E+02  0.83470640843E+02  0.00000000000E+00 0. -1.
         21   -1    0    0  501  502 -0.00000000000E+00 -0.00000000000E+00 -0.61870381961E+03  0.61870381961E+03  0.00000000000E+00 0. -1.
      99926    2    1    2    0    0  0.00000000000E+00  0.00000000000E+00 -0.53523317877E+03  0.70217446046E+03  0.45450458442E+03 0.  0.
         25    1    3    3    0    0 -0.14386577036E+01  0.74793534168E+02 -0.99226491045E+02  0.17632228196E+03  0.12509000000E+03 0.  0.
         25    1    3    3    0    0 -0.62789631077E+02 -0.16593717374E+02 -0.22956092568E+03  0.26937634627E+03  0.12509000000E+03 0.  0.
         25    1    3    3    0    0  0.64228288781E+02 -0.58199816794E+02 -0.20644576204E+03  0.25647583223E+03  0.12509000000E+03 0.  0.
<mgrwt>
<rscale>  2 0.45450458E+03</rscale>
<asrwt>0</asrwt>
<pdfrwt beam="1">  1       21 0.12275095E-01 0.45450458E+03</pdfrwt>
<pdfrwt beam="2">  1       21 0.90985853E-01 0.45450458E+03</pdfrwt>
<totfact> 0.52991343E+04</totfact>
</mgrwt>
</event>
<event>
 6    0  0.1576925E-007  0.4566622E+03  0.7546771E-02  0.1025754E+00
         21   -1    0    0  502  501  0.00000000000E+00  0.00000000000E+00  0.25983380835E+03  0.25983380835E+03  0.00000000000E+00 0. -1.
         21   -1    0    0  501  502 -0.00000000000E+00 -0.00000000000E+00 -0.20064784851E+03  0.20064784851E+03  0.00000000000E+00 0. -1.
      99926    2    1    2    0    0  0.00000000000E+00  0.22204460493E-14  0.59185959832E+02  0.46048165686E+03  0.45666221484E+03 0.  0.
         25    1    3    3    0    0  0.85089686380E+02 -0.35258089315E+01 -0.57573201056E+01  0.15143758084E+03  0.12509000000E+03 0.  0.
         25    1    3    3    0    0  0.54752709813E+01  0.35043534216E+02  0.76754207090E+02  0.15098590758E+03  0.12509000000E+03 0.  0.
         25    1    3    3    0    0 -0.90564957361E+02 -0.31517725284E+02 -0.11810927153E+02  0.15805816844E+03  0.12509000000E+03 0.  0.
<mgrwt>
<rscale>  2 0.45666221E+03</rscale>
<asrwt>0</asrwt>
<pdfrwt beam="1">  1       21 0.38210854E-01 0.45666221E+03</pdfrwt>
<pdfrwt beam="2">  1       21 0.29507036E-01 0.45666221E+03</pdfrwt>
<totfact> 0.67249580E+04</totfact>
</mgrwt>
</event>
<event>
 6    0  0.1576925E-007  0.4544650E+03  0.7546771E-02  0.1026399E+00
         21   -1    0    0  502  501  0.00000000000E+00  0.00000000000E+00  0.35157334504E+02  0.35157334504E+02  0.00000000000E+00 0. -1.
         21   -1    0    0  501  502 -0.00000000000E+00 -0.00000000000E+00 -0.14686724385E+04  0.14686724385E+04  0.00000000000E+00 0. -1.
      99926    2    1    2    0    0  0.71054273576E-14  0.00000000000E+00 -0.14335151040E+04  0.15038297730E+04  0.45446499623E+03 0.  0.
         25    1    3    3    0    0  0.75248438085E+02  0.29332653851E+02 -0.45376005051E+03  0.47756509876E+03  0.12509000000E+03 0.  0.
         25    1    3    3    0    0 -0.48383060095E+02  0.40255537386E+02 -0.29986371860E+03  0.33094891845E+03  0.12509000000E+03 0.  0.
         25    1    3    3    0    0 -0.26865377990E+02 -0.69588191237E+02 -0.67989133493E+03  0.69531575583E+03  0.12509000000E+03 0.  0.
<mgrwt>
<rscale>  2 0.45446500E+03</rscale>
<asrwt>0</asrwt>
<pdfrwt beam="1">  1       21 0.51701972E-02 0.45446500E+03</pdfrwt>
<pdfrwt beam="2">  1       21 0.21598120E+00 0.45446500E+03</pdfrwt>
<totfact> 0.23784099E+04</totfact>
</mgrwt>
</event>
<event>
 6    0  0.1576925E-007  0.4550409E+03  0.7546771E-02  0.1026229E+00
         21   -1    0    0  502  501  0.00000000000E+00  0.00000000000E+00  0.23099041187E+02  0.23099041187E+02  0.00000000000E+00 0. -1.
         21   -1    0    0  501  502 -0.00000000000E+00 -0.00000000000E+00 -0.22410259280E+04  0.22410259280E+04  0.00000000000E+00 0. -1.
      99926    2    1    2    0    0  0.00000000000E+00  0.00000000000E+00 -0.22179268868E+04  0.22641249691E+04  0.45504087822E+03 0.  0.
         25    1    3    3    0    0 -0.68286188861E+01 -0.60698759689E+02 -0.12126745421E+04  0.12206383668E+04  0.12509000000E+03 0.  0.
         25    1    3    3    0    0  0.12837396372E+02 -0.22228336274E+02 -0.52425350706E+03  0.53958145395E+03  0.12509000000E+03 0.  0.
         25    1    3    3    0    0 -0.60087774858E+01  0.82927095963E+02 -0.48099883763E+03  0.50390514837E+03  0.12509000000E+03 0.  0.
<mgrwt>
<rscale>  2 0.45504088E+03</rscale>
<asrwt>0</asrwt>
<pdfrwt beam="1">  1       21 0.33969183E-02 0.45504088E+03</pdfrwt>
<pdfrwt beam="2">  1       21 0.32956259E+00 0.45504088E+03</pdfrwt>
<totfact> 0.98537031E+03</totfact>
</mgrwt>
</event>
<event>
 6    0  0.1576925E-007  0.4559843E+03  0.7546771E-02  0.1025952E+00
         21   -1    0    0  502  501  0.00000000000E+00  0.00000000000E+00  0.80511958738E+03  0.80511958738E+03  0.00000000000E+00 0. -1.
         21   -1    0    0  501  502 -0.00000000000E+00 -0.00000000000E+00 -0.64562347153E+02  0.64562347153E+02  0.00000000000E+00 0. -1.
      99926    2    1    2    0    0 -0.71054273576E-14  0.71054273576E-14  0.74055724023E+03  0.86968193453E+03  0.45598425543E+03 0.  0.
         25    1    3    3    0    0 -0.69791774391E+02 -0.40213428015E+02  0.17218041029E+03  0.22755573681E+03  0.12509000000E+03 0.  0.
         25    1    3    3    0    0  0.62105748957E+02  0.85013153034E+02  0.35154928748E+03  0.38770964635E+03  0.12509000000E+03 0.  0.
         25    1    3    3    0    0  0.76860254336E+01 -0.44799725019E+02  0.21682754245E+03  0.25441655138E+03  0.12509000000E+03 0.  0.
<mgrwt>
<rscale>  2 0.45598426E+03</rscale>
<asrwt>0</asrwt>
<pdfrwt beam="1">  1       21 0.11839993E+00 0.45598426E+03</pdfrwt>
<pdfrwt beam="2">  1       21 0.94944633E-02 0.45598426E+03</pdfrwt>
<totfact> 0.44228515E+04</totfact>
</mgrwt>
</event>
<event>
 6    0  0.1576925E-007  0.4757052E+03  0.7546771E-02  0.1020322E+00
         21   -1    0    0  502  501  0.00000000000E+00  0.00000000000E+00  0.10941922334E+03  0.10941922334E+03  0.00000000000E+00 0.  1.
         21   -1    0    0  501  502 -0.00000000000E+00 -0.00000000000E+00 -0.51703756928E+03  0.51703756928E+03  0.00000000000E+00 0.  1.
      99926    2    1    2    0    0  0.00000000000E+00  0.00000000000E+00 -0.40761834595E+03  0.62645679262E+03  0.47570515771E+03 0.  0.
         25    1    3    3    0    0  0.13171095059E+03  0.26937515393E+02 -0.15195940964E+03  0.23835388505E+03  0.12509000000E+03 0.  0.
         25    1    3    3    0    0 -0.38542598613E+02  0.11365561129E+02 -0.11411572934E+03  0.17402475592E+03  0.12509000000E+03 0.  0.
         25    1    3    3    0    0 -0.93168351973E+02 -0.38303076522E+02 -0.14154320696E+03  0.21407815166E+03  0.12509000000E+03 0.  0.
<mgrwt>
<rscale>  2 0.47570516E+03</rscale>
<asrwt>0</asrwt>
<pdfrwt beam="1">  1       21 0.16091062E-01 0.47570516E+03</pdfrwt>
<pdfrwt beam="2">  1       21 0.76034938E-01 0.47570516E+03</pdfrwt>
<totfact> 0.48627412E+04</totfact>
</mgrwt>
</event>
<event>
 6    0  0.1576925E-007  0.4498008E+03  0.7546771E-02  0.1027781E+00
         21   -1    0    0  502  501  0.00000000000E+00  0.00000000000E+00  0.12172666409E+03  0.12172666409E+03  0.00000000000E+00 0.  1.
         21   -1    0    0  501  502 -0.00000000000E+00 -0.00000000000E+00 -0.41552265960E+03  0.41552265960E+03  0.00000000000E+00 0.  1.
      99926    2    1    2    0    0  0.17763568394E-14  0.88817841970E-15 -0.29379599551E+03  0.53724932369E+03  0.44980078793E+03 0.  0.
         25    1    3    3    0    0  0.97047771923E+01  0.75206553003E+01 -0.93909747934E+02  0.15689898602E+03  0.12509000000E+03 0.  0.
         25    1    3    3    0    0 -0.11697542210E+02 -0.12494992052E+02  0.19498237427E+02  0.12775228641E+03  0.12509000000E+03 0.  0.
         25    1    3    3    0    0  0.19927650181E+01  0.49743367514E+01 -0.21938448501E+03  0.25259805126E+03  0.12509000000E+03 0.  0.
<mgrwt>
<rscale>  2 0.44980079E+03</rscale>
<asrwt>0</asrwt>
<pdfrwt beam="1">  1       21 0.17900980E-01 0.44980079E+03</pdfrwt>
<pdfrwt beam="2">  1       21 0.61106274E-01 0.44980079E+03</pdfrwt>
<totfact> 0.65365495E+04</totfact>
</mgrwt>
</event>
<event>
 6    0  0.1576925E-007  0.4447857E+03  0.7546771E-02  0.1029288E+00
         21   -1    0    0  502  501  0.00000000000E+00  0.00000000000E+00  0.17393394672E+03  0.17393394672E+03  0.00000000000E+00 0.  1.
         21   -1    0    0  501  502 -0.00000000000E+00 -0.00000000000E+00 -0.28435270200E+03  0.28435270200E+03  0.00000000000E+00 0.  1.
      99926    2    1    2    0    0  0.00000000000E+00  0.00000000000E+00 -0.11041875528E+03  0.45828664871E+03  0.44478573591E+03 0.  0.
         25    1    3    3    0    0 -0.47724402153E+02 -0.45592817004E+02 -0.58684738068E+02  0.15312651666E+03  0.12509000000E+03 0.  0.
         25    1    3    3    0    0 -0.50978292899E+02  0.84091740256E+01 -0.69463632702E+01  0.13551848810E+03  0.12509000000E+03 0.  0.
         25    1    3    3    0    0  0.98702695052E+02  0.37183642979E+02 -0.44787653944E+02  0.16964164395E+03  0.12509000000E+03 0.  0.
<mgrwt>
<rscale>  2 0.44478574E+03</rscale>
<asrwt>0</asrwt>
<pdfrwt beam="1">  1       21 0.25578522E-01 0.44478574E+03</pdfrwt>
<pdfrwt beam="2">  1       21 0.41816573E-01 0.44478574E+03</pdfrwt>
<totfact> 0.74144624E+04</totfact>
</mgrwt>
</event>
<event>
 6    0  0.1576925E-007  0.4543205E+03  0.7546771E-02  0.1026441E+00
         21   -1    0    0  502  501  0.00000000000E+00  0.00000000000E+00  0.75466233568E+02  0.75466233568E+02  0.00000000000E+00 0. -1.
         21   -1    0    0  501  502 -0.00000000000E+00 -0.00000000000E+00 -0.68377293671E+03  0.68377293671E+03  0.00000000000E+00 0. -1.
      99926    2    1    2    0    0  0.00000000000E+00  0.00000000000E+00 -0.60830670315E+03  0.75923917028E+03  0.45432045144E+03 0.  0.
         25    1    3    3    0    0  0.52785100571E+02 -0.19024669160E+02 -0.24423097515E+03  0.28007942124E+03  0.12509000000E+03 0.  0.
         25    1    3    3    0    0  0.30415874365E+02  0.49465121990E+02 -0.88631357996E+02  0.16393580886E+03  0.12509000000E+03 0.  0.
         25    1    3    3    0    0 -0.83200974936E+02 -0.30440452830E+02 -0.27544437000E+03  0.31522394018E+03  0.12509000000E+03 0.  0.
<mgrwt>
<rscale>  2 0.45432045E+03</rscale>
<asrwt>0</asrwt>
<pdfrwt beam="1">  1       21 0.11097976E-01 0.45432045E+03</pdfrwt>
<pdfrwt beam="2">  1       21 0.10055484E+00 0.45432045E+03</pdfrwt>
<totfact> 0.50065634E+04</totfact>
</mgrwt>
</event>
<event>
 6    0  0.1576925E-007  0.4507297E+03  0.7546771E-02  0.1027505E+00
         21   -1    0    0  502  501  0.00000000000E+00  0.00000000000E+00  0.65808192634E+03  0.65808192634E+03  0.00000000000E+00 0. -1.
         21   -1    0    0  501  502 -0.00000000000E+00 -0.00000000000E+00 -0.77177792927E+02  0.77177792927E+02  0.00000000000E+00 0. -1.
      99926    2    1    2    0    0  0.00000000000E+00 -0.35527136788E-14  0.58090413342E+03  0.73525971927E+03  0.45072967792E+03 0.  0.
         25    1    3    3    0    0  0.42795147112E+02 -0.24962224057E+02  0.34612031820E+03  0.37135066987E+03  0.12509000000E+03 0.  0.
         25    1    3    3    0    0  0.33785561588E+02  0.70337607772E+01  0.98756280087E+02  0.16306823394E+03  0.12509000000E+03 0.  0.
         25    1    3    3    0    0 -0.76580708700E+02  0.17928463279E+02  0.13602753513E+03  0.20084081546E+03  0.12509000000E+03 0.  0.
<mgrwt>
<rscale>  2 0.45072968E+03</rscale>
<asrwt>0</asrwt>
<pdfrwt beam="1">  1       21 0.96776751E-01 0.45072968E+03</pdfrwt>
<pdfrwt beam="2">  1       21 0.11349676E-01 0.45072968E+03</pdfrwt>
<totfact> 0.52779949E+04</totfact>
</mgrwt>
</event>
<event>
 6    0  0.1576925E-007  0.4560864E+03  0.7546771E-02  0.1025922E+00
         21   -1    0    0  502  501  0.00000000000E+00  0.00000000000E+00  0.15927779587E+03  0.15927779587E+03  0.00000000000E+00 0.  1.
         21   -1    0    0  501  502 -0.00000000000E+00 -0.00000000000E+00 -0.32649690241E+03  0.32649690241E+03  0.00000000000E+00 0.  1.
      99926    2    1    2    0    0  0.00000000000E+00 -0.35527136788E-14 -0.16721910654E+03  0.48577469828E+03  0.45608642590E+03 0.  0.
         25    1    3    3    0    0 -0.48799339639E+02  0.10038563463E+02 -0.85962619791E+02  0.15974738936E+03  0.12509000000E+03 0.  0.
         25    1    3    3    0    0  0.44804404894E+02 -0.38091244240E+02  0.45677723252E+02  0.14557589116E+03  0.12509000000E+03 0.  0.
         25    1    3    3    0    0  0.39949347453E+01  0.28052680777E+02 -0.12693421000E+03  0.18045141776E+03  0.12509000000E+03 0.  0.
<mgrwt>
<rscale>  2 0.45608643E+03</rscale>
<asrwt>0</asrwt>
<pdfrwt beam="1">  1       21 0.23423205E-01 0.45608643E+03</pdfrwt>
<pdfrwt beam="2">  1       21 0.48014250E-01 0.45608643E+03</pdfrwt>
<totfact> 0.65713516E+04</totfact>
</mgrwt>
</event>
<event>
 6    0  0.1576925E-007  0.4802548E+03  0.7546771E-02  0.1019065E+00
         21   -1    0    0  502  501  0.00000000000E+00  0.00000000000E+00  0.58829565532E+03  0.58829565532E+03  0.00000000000E+00 0. -1.
         21   -1    0    0  501  502 -0.00000000000E+00 -0.00000000000E+00 -0.98013929192E+02  0.98013929192E+02  0.00000000000E+00 0. -1.
      99926    2    1    2    0    0  0.00000000000E+00  0.14210854715E-13  0.49028172613E+03  0.68630958451E+03  0.48025480197E+03 0.  0.
         25    1    3    3    0    0 -0.43008210153E+02 -0.10470346101E+03  0.18901196414E+03  0.25334867589E+03  0.12509000000E+03 0.  0.
         25    1    3    3    0    0  0.68013563434E+02  0.92474582959E+02  0.23139514013E+03  0.28699932453E+03  0.12509000000E+03 0.  0.
         25    1    3    3    0    0 -0.25005353281E+02  0.12228878050E+02  0.69874621859E+02  0.14596158409E+03  0.12509000000E+03 0.  0.
<mgrwt>
<rscale>  2 0.48025480E+03</rscale>
<asrwt>0</asrwt>
<pdfrwt beam="1">  1       21 0.86514065E-01 0.48025480E+03</pdfrwt>
<pdfrwt beam="2">  1       21 0.14413813E-01 0.48025480E+03</pdfrwt>
<totfact> 0.44181692E+04</totfact>
</mgrwt>
</event>
<event>
 6    0  0.1576925E-007  0.4828088E+03  0.7546771E-02  0.1018366E+00
         21   -1    0    0  502  501  0.00000000000E+00  0.00000000000E+00  0.73736213069E+02  0.73736213069E+02  0.00000000000E+00 0.  1.
         21   -1    0    0  501  502 -0.00000000000E+00 -0.00000000000E+00 -0.79033191674E+03  0.79033191674E+03  0.00000000000E+00 0.  1.
      99926    2    1    2    0    0  0.71054273576E-14  0.00000000000E+00 -0.71659570367E+03  0.86406812980E+03  0.48280879283E+03 0.  0.
         25    1    3    3    0    0 -0.39694667738E+02 -0.75620633027E+02 -0.23186888623E+03  0.27695637795E+03  0.12509000000E+03 0.  0.
         25    1    3    3    0    0  0.58842841821E+02 -0.29111529544E+02 -0.11367996951E+03  0.18133009886E+03  0.12509000000E+03 0.  0.
         25    1    3    3    0    0 -0.19148174083E+02  0.10473216257E+03 -0.37104684793E+03  0.40578165299E+03  0.12509000000E+03 0.  0.
<mgrwt>
<rscale>  2 0.48280879E+03</rscale>
<asrwt>0</asrwt>
<pdfrwt beam="1">  1       21 0.10843561E-01 0.48280879E+03</pdfrwt>
<pdfrwt beam="2">  1       21 0.11622528E+00 0.48280879E+03</pdfrwt>
<totfact> 0.36240445E+04</totfact>
</mgrwt>
</event>
<event>
 6    0  0.1576925E-007  0.4480987E+03  0.7546771E-02  0.1028291E+00
         21   -1    0    0  502  501  0.00000000000E+00  0.00000000000E+00  0.10467938538E+03  0.10467938538E+03  0.00000000000E+00 0.  1.
         21   -1    0    0  501  502 -0.00000000000E+00 -0.00000000000E+00 -0.47954146182E+03  0.47954146182E+03  0.00000000000E+00 0.  1.
      99926    2    1    2    0    0  0.00000000000E+00  0.17763568394E-14 -0.37486207644E+03  0.58422084720E+03  0.44809867434E+03 0.  0.
         25    1    3    3    0    0  0.39588972631E+02 -0.93225458140E+02 -0.16002592125E+03  0.22696712619E+03  0.12509000000E+03 0.  0.
         25    1    3    3    0    0 -0.45552260241E+02  0.13368309853E+02 -0.75643739979E+02  0.15369841775E+03  0.12509000000E+03 0.  0.
         25    1    3    3    0    0  0.59632876100E+01  0.79857148287E+02 -0.13919241522E+03  0.20355530326E+03  0.12509000000E+03 0.  0.
<mgrwt>
<rscale>  2 0.44809867E+03</rscale>
<asrwt>0</asrwt>
<pdfrwt beam="1">  1       21 0.15394027E-01 0.44809867E+03</pdfrwt>
<pdfrwt beam="2">  1       21 0.70520804E-01 0.44809867E+03</pdfrwt>
<totfact> 0.63028809E+04</totfact>
</mgrwt>
</event>
<event>
 6    0  0.1576925E-007  0.4535616E+03  0.7546771E-02  0.1026665E+00
         21   -1    0    0  502  501  0.00000000000E+00  0.00000000000E+00  0.35206107170E+03  0.35206107170E+03  0.00000000000E+00 0.  1.
         21   -1    0    0  501  502 -0.00000000000E+00 -0.00000000000E+00 -0.14608125355E+03  0.14608125355E+03  0.00000000000E+00 0.  1.
      99926    2    1    2    0    0 -0.44408920985E-15  0.00000000000E+00  0.20597981815E+03  0.49814232526E+03  0.45356156222E+03 0.  0.
         25    1    3    3    0    0  0.32080989100E+01  0.71656130374E+02  0.74652399016E+02  0.16237420269E+03  0.12509000000E+03 0.  0.
         25    1    3    3    0    0 -0.43635198272E+01  0.40297574498E+02  0.99512767810E+02  0.16490371091E+03  0.12509000000E+03 0.  0.
         25    1    3    3    0    0  0.11554209172E+01 -0.11195370487E+03  0.31814651323E+02  0.17086441166E+03  0.12509000000E+03 0.  0.
<mgrwt>
<rscale>  2 0.45356156E+03</rscale>
<asrwt>0</asrwt>
<pdfrwt beam="1">  1       21 0.51773687E-01 0.45356156E+03</pdfrwt>
<pdfrwt beam="2">  1       21 0.21482537E-01 0.45356156E+03</pdfrwt>
<totfact> 0.66153523E+04</totfact>
</mgrwt>
</event>
<event>
 6    0  0.1576925E-007  0.4530622E+03  0.7546771E-02  0.1026813E+00
         21   -1    0    0  502  501  0.00000000000E+00  0.00000000000E+00  0.84122000061E+02  0.84122000061E+02  0.00000000000E+00 0. -1.
         21   -1    0    0  501  502 -0.00000000000E+00 -0.00000000000E+00 -0.61002273082E+03  0.61002273082E+03  0.00000000000E+00 0. -1.
      99926    2    1    2    0    0  0.00000000000E+00 -0.71054273576E-14 -0.52590073076E+03  0.69414473088E+03  0.45306216880E+03 0.  0.
         25    1    3    3    0    0  0.21937266841E+00  0.45392635185E+02 -0.12031103340E+03  0.17939563069E+03  0.12509000000E+03 0.  0.
         25    1    3    3    0    0  0.59199636828E+02 -0.93776318023E+02 -0.17996275192E+03  0.24562714630E+03  0.12509000000E+03 0.  0.
         25    1    3    3    0    0 -0.59419009496E+02  0.48383682838E+02 -0.22562694544E+03  0.26912195389E+03  0.12509000000E+03 0.  0.
<mgrwt>
<rscale>  2 0.45306217E+03</rscale>
<asrwt>0</asrwt>
<pdfrwt beam="1">  1       21 0.12370882E-01 0.45306217E+03</pdfrwt>
<pdfrwt beam="2">  1       21 0.89709224E-01 0.45306217E+03</pdfrwt>
<totfact> 0.54041630E+04</totfact>
</mgrwt>
</event>
<event>
 6    0  0.1576925E-007  0.4503871E+03  0.7546771E-02  0.1027607E+00
         21   -1    0    0  502  501  0.00000000000E+00  0.00000000000E+00  0.13781884264E+03  0.13781884264E+03  0.00000000000E+00 0. -1.
         21   -1    0    0  501  502 -0.00000000000E+00 -0.00000000000E+00 -0.36796221302E+03  0.36796221302E+03  0.00000000000E+00 0. -1.
      99926    2    1    2    0    0 -0.71054273576E-14 -0.17763568394E-14 -0.23014337038E+03  0.50578105566E+03  0.45038706168E+03 0.  0.
         25    1    3    3    0    0 -0.43261230720E+02 -0.37008291951E+02 -0.37446423362E+02  0.14244609675E+03  0.12509000000E+03 0.  0.
         25    1    3    3    0    0  0.96702299780E+02  0.42555586260E+02 -0.63409115885E+02  0.17558626593E+03  0.12509000000E+03 0.  0.
         25    1    3    3    0    0 -0.53441069059E+02 -0.55472943098E+01 -0.12928783114E+03  0.18774869298E+03  0.12509000000E+03 0.  0.
<mgrwt>
<rscale>  2 0.45038706E+03</rscale>
<asrwt>0</asrwt>
<pdfrwt beam="1">  1       21 0.20267477E-01 0.45038706E+03</pdfrwt>
<pdfrwt beam="2">  1       21 0.54112089E-01 0.45038706E+03</pdfrwt>
<totfact> 0.67296667E+04</totfact>
</mgrwt>
</event>
<event>
 6    0  0.1576925E-007  0.4524720E+03  0.7546771E-02  0.1026987E+00
         21   -1    0    0  502  501  0.00000000000E+00  0.00000000000E+00  0.48491546799E+03  0.48491546799E+03  0.00000000000E+00 0. -1.
         21   -1    0    0  501  502 -0.00000000000E+00 -0.00000000000E+00 -0.10554980218E+03  0.10554980218E+03  0.00000000000E+00 0. -1.
      99926    2    1    2    0    0  0.00000000000E+00  0.17763568394E-14  0.37936566582E+03  0.59046527017E+03  0.45247201779E+03 0.  0.
         25    1    3    3    0    0 -0.91778943977E+02 -0.11032101179E+02  0.11194963287E+03  0.19163848834E+03  0.12509000000E+03 0.  0.
         25    1    3    3    0    0  0.82061361818E+02  0.51621017488E+02  0.10639610909E+03  0.19069986020E+03  0.12509000000E+03 0.  0.
         25    1    3    3    0    0  0.97175821593E+01 -0.40588916309E+02  0.16101992385E+03  0.20812692163E+03  0.12509000000E+03 0.  0.
<mgrwt>
<rscale>  2 0.45247202E+03</rscale>
<asrwt>0</asrwt>
<pdfrwt beam="1">  1       21 0.71311097E-01 0.45247202E+03</pdfrwt>
<pdfrwt beam="2">  1       21 0.15522030E-01 0.45247202E+03</pdfrwt>
<totfact> 0.60468121E+04</totfact>
</mgrwt>
</event>
<event>
 6    0  0.1576925E-007  0.4604339E+03  0.7546771E-02  0.1024655E+00
         21   -1    0    0  502  501  0.00000000000E+00  0.00000000000E+00  0.66647796266E+02  0.66647796266E+02  0.00000000000E+00 0.  1.
         21   -1    0    0  501  502 -0.00000000000E+00 -0.00000000000E+00 -0.79522261951E+03  0.79522261951E+03  0.00000000000E+00 0.  1.
      99926    2    1    2    0    0 -0.44408920985E-15  0.14210854715E-13 -0.72857482324E+03  0.86187041577E+03  0.46043386118E+03 0.  0.
         25    1    3    3    0    0  0.15476373627E+01  0.83553048705E+02 -0.18980528528E+03  0.24219219960E+03  0.12509000000E+03 0.  0.
         25    1    3    3    0    0 -0.46076638420E+02 -0.97672439646E+02 -0.36381941619E+03  0.39959359075E+03  0.12509000000E+03 0.  0.
         25    1    3    3    0    0  0.44529001057E+02  0.14119390941E+02 -0.17495012177E+03  0.22008462542E+03  0.12509000000E+03 0.  0.
<mgrwt>
<rscale>  2 0.46043386E+03</rscale>
<asrwt>0</asrwt>
<pdfrwt beam="1">  1       21 0.98011467E-02 0.46043386E+03</pdfrwt>
<pdfrwt beam="2">  1       21 0.11694450E+00 0.46043386E+03</pdfrwt>
<totfact> 0.43048618E+04</totfact>
</mgrwt>
</event>
<event>
 6    0  0.2021027E-007  0.4871372E+03  0.7546771E-02  0.1017192E+00
         21   -1    0    0  502  501  0.00000000000E+00  0.00000000000E+00  0.41690458613E+03  0.41690458613E+03  0.00000000000E+00 0.  1.
         21   -1    0    0  501  502 -0.00000000000E+00 -0.00000000000E+00 -0.14230036555E+03  0.14230036555E+03  0.00000000000E+00 0.  1.
      99926    2    1    2    0    0  0.14210854715E-13  0.00000000000E+00  0.27460422059E+03  0.55920495168E+03  0.48713724967E+03 0.  0.
         25    1    3    3    0    0  0.11149615756E+03  0.16495794624E+01  0.86755767230E+02  0.18870131295E+03  0.12509000000E+03 0.  0.
         25    1    3    3    0    0 -0.12849307327E+03 -0.43063768852E+02  0.88217243871E+02  0.20443763911E+03  0.12509000000E+03 0.  0.
         25    1    3    3    0    0  0.16996915712E+02  0.41414189389E+02  0.99631209486E+02  0.16606599962E+03  0.12509000000E+03 0.  0.
<mgrwt>
<rscale>  2 0.48713725E+03</rscale>
<asrwt>0</asrwt>
<pdfrwt beam="1">  1       21 0.61309498E-01 0.48713725E+03</pdfrwt>
<pdfrwt beam="2">  1       21 0.20926524E-01 0.48713725E+03</pdfrwt>
<totfact> 0.47869660E+04</totfact>
</mgrwt>
</event>
<event>
 6    0  0.1576925E-007  0.4595099E+03  0.7546771E-02  0.1024923E+00
         21   -1    0    0  502  501  0.00000000000E+00  0.00000000000E+00  0.22255249999E+03  0.22255249999E+03  0.00000000000E+00 0.  1.
         21   -1    0    0  501  502 -0.00000000000E+00 -0.00000000000E+00 -0.23719047899E+03  0.23719047899E+03  0.00000000000E+00 0.  1.
      99926    2    1    2    0    0  0.00000000000E+00  0.71054273576E-14 -0.14637979006E+02  0.45974297898E+03  0.45950988705E+03 0.  0.
         25    1    3    3    0    0 -0.43787934065E+02 -0.30274725538E+02 -0.32412418609E+02  0.13975698607E+03  0.12509000000E+03 0.  0.
         25    1    3    3    0    0  0.14494857186E+02 -0.80738035425E+02  0.40836861901E+01  0.14964262709E+03  0.12509000000E+03 0.  0.
         25    1    3    3    0    0  0.29293076880E+02  0.11101276096E+03  0.13690753413E+02  0.17034336582E+03  0.12509000000E+03 0.  0.
<mgrwt>
<rscale>  2 0.45950989E+03</rscale>
<asrwt>0</asrwt>
<pdfrwt beam="1">  1       21 0.32728309E-01 0.45950989E+03</pdfrwt>
<pdfrwt beam="2">  1       21 0.34880953E-01 0.45950989E+03</pdfrwt>
<totfact> 0.65799911E+04</totfact>
</mgrwt>
</event>
<event>
 6    0  0.1576925E-007  0.4551541E+03  0.7546771E-02  0.1026196E+00
         21   -1    0    0  502  501  0.00000000000E+00  0.00000000000E+00  0.22803562091E+03  0.22803562091E+03  0.00000000000E+00 0. -1.
         21   -1    0    0  501  502 -0.00000000000E+00 -0.00000000000E+00 -0.22711942458E+03  0.22711942458E+03  0.00000000000E+00 0. -1.
      99926    2    1    2    0    0  0.00000000000E+00  0.00000000000E+00  0.91619632737E+00  0.45515504549E+03  0.45515412337E+03 0.  0.
         25    1    3    3    0    0  0.45947290226E+02  0.49395255633E+02  0.43851916339E+01  0.14218924982E+03  0.12509000000E+03 0.  0.
         25    1    3    3    0    0 -0.60402829943E+02  0.53256866523E+02 -0.18004235543E+02  0.14985478402E+03  0.12509000000E+03 0.  0.
         25    1    3    3    0    0  0.14455539717E+02 -0.10265212216E+03  0.14535240236E+02  0.16311101165E+03  0.12509000000E+03 0.  0.
<mgrwt>
<rscale>  2 0.45515412E+03</rscale>
<asrwt>0</asrwt>
<pdfrwt beam="1">  1       21 0.33534650E-01 0.45515412E+03</pdfrwt>
<pdfrwt beam="2">  1       21 0.33399915E-01 0.45515412E+03</pdfrwt>
<totfact> 0.68450217E+04</totfact>
</mgrwt>
</event>
<event>
 6    0  0.1576925E-007  0.4507057E+03  0.7546771E-02  0.1027512E+00
         21   -1    0    0  502  501  0.00000000000E+00  0.00000000000E+00  0.12765022528E+03  0.12765022528E+03  0.00000000000E+00 0. -1.
         21   -1    0    0  501  502 -0.00000000000E+00 -0.00000000000E+00 -0.39783633654E+03  0.39783633654E+03  0.00000000000E+00 0. -1.
      99926    2    1    2    0    0  0.00000000000E+00 -0.88817841970E-15 -0.27018611127E+03  0.52548656182E+03  0.45070565997E+03 0.  0.
         25    1    3    3    0    0 -0.10621628143E+03  0.63546678936E+01 -0.78524809400E+02  0.18203278286E+03  0.12509000000E+03 0.  0.
         25    1    3    3    0    0  0.61386176496E+02  0.37515798651E+02 -0.84724147081E+02  0.16733614975E+03  0.12509000000E+03 0.  0.
         25    1    3    3    0    0  0.44830104939E+02 -0.43870466545E+02 -0.10693715478E+03  0.17611762921E+03  0.12509000000E+03 0.  0.
<mgrwt>
<rscale>  2 0.45070566E+03</rscale>
<asrwt>0</asrwt>
<pdfrwt beam="1">  1       21 0.18772092E-01 0.45070566E+03</pdfrwt>
<pdfrwt beam="2">  1       21 0.58505344E-01 0.45070566E+03</pdfrwt>
<totfact> 0.65721880E+04</totfact>
</mgrwt>
</event>
<event>
 6    0  0.1576925E-007  0.4565310E+03  0.7546771E-02  0.1025792E+00
         21   -1    0    0  502  501  0.00000000000E+00  0.00000000000E+00  0.64400509252E+03  0.64400509252E+03  0.00000000000E+00 0.  1.
         21   -1    0    0  501  502 -0.00000000000E+00 -0.00000000000E+00 -0.80907954273E+02  0.80907954273E+02  0.00000000000E+00 0.  1.
      99926    2    1    2    0    0 -0.71054273576E-14  0.71054273576E-14  0.56309713825E+03  0.72491304679E+03  0.45653098286E+03 0.  0.
         25    1    3    3    0    0 -0.11891762264E+02  0.33542328861E+02  0.24149904083E+03  0.27429144474E+03  0.12509000000E+03 0.  0.
         25    1    3    3    0    0 -0.34522916493E+02  0.59818295101E+02  0.20687113926E+03  0.25142242651E+03  0.12509000000E+03 0.  0.
         25    1    3    3    0    0  0.46414678757E+02 -0.93360623961E+02  0.11472695816E+03  0.19919917555E+03  0.12509000000E+03 0.  0.
<mgrwt>
<rscale>  2 0.45653098E+03</rscale>
<asrwt>0</asrwt>
<pdfrwt beam="1">  1       21 0.94706629E-01 0.45653098E+03</pdfrwt>
<pdfrwt beam="2">  1       21 0.11898229E-01 0.45653098E+03</pdfrwt>
<totfact> 0.50954868E+04</totfact>
</mgrwt>
</event>
<event>
 6    0  0.1576925E-007  0.4533765E+03  0.7546771E-02  0.1026720E+00
         21   -1    0    0  502  501  0.00000000000E+00  0.00000000000E+00  0.15042399050E+03  0.15042399050E+03  0.00000000000E+00 0. -1.
         21   -1    0    0  501  502 -0.00000000000E+00 -0.00000000000E+00 -0.34161818187E+03  0.34161818187E+03  0.00000000000E+00 0. -1.
      99926    2    1    2    0    0  0.14210854715E-13  0.35527136788E-14 -0.19119419137E+03  0.49204217238E+03  0.45337653290E+03 0.  0.
         25    1    3    3    0    0 -0.16891954018E+01  0.51867100093E+02 -0.10108532006E+03  0.16899348947E+03  0.12509000000E+03 0.  0.
         25    1    3    3    0    0 -0.71102999874E+02  0.20268604393E+02 -0.19547114486E+02  0.14661531537E+03  0.12509000000E+03 0.  0.
         25    1    3    3    0    0  0.72792195275E+02 -0.72135704486E+02 -0.70561756826E+02  0.17643336754E+03  0.12509000000E+03 0.  0.
<mgrwt>
<rscale>  2 0.45337653E+03</rscale>
<asrwt>0</asrwt>
<pdfrwt beam="1">  1       21 0.22121176E-01 0.45337653E+03</pdfrwt>
<pdfrwt beam="2">  1       21 0.50237967E-01 0.45337653E+03</pdfrwt>
<totfact> 0.66688771E+04</totfact>
</mgrwt>
</event>
<event>
 6    0  0.1576925E-007  0.4609306E+03  0.7546771E-02  0.1024512E+00
         21   -1    0    0  502  501  0.00000000000E+00  0.00000000000E+00  0.19599802323E+03  0.19599802323E+03  0.00000000000E+00 0.  1.
         21   -1    0    0  501  502 -0.00000000000E+00 -0.00000000000E+00 -0.27099386927E+03  0.27099386927E+03  0.00000000000E+00 0.  1.
      99926    2    1    2    0    0 -0.71054273576E-14 -0.35527136788E-14 -0.74995846042E+02  0.46699189250E+03  0.46093063549E+03 0.  0.
         25    1    3    3    0    0  0.39225406851E+02 -0.16132774738E+02 -0.12420593124E+03  0.18131056345E+03  0.12509000000E+03 0.  0.
         25    1    3    3    0    0 -0.68471404757E+02  0.43505911178E+02  0.37984144964E+02  0.15385512973E+03  0.12509000000E+03 0.  0.
         25    1    3    3    0    0  0.29245997906E+02 -0.27373136440E+02  0.11225940232E+02  0.13182619932E+03  0.12509000000E+03 0.  0.
<mgrwt>
<rscale>  2 0.46093064E+03</rscale>
<asrwt>0</asrwt>
<pdfrwt beam="1">  1       21 0.28823239E-01 0.46093064E+03</pdfrwt>
<pdfrwt beam="2">  1       21 0.39852039E-01 0.46093064E+03</pdfrwt>
<totfact> 0.64564498E+04</totfact>
</mgrwt>
</event>
<event>
 6    0  0.1576925E-007  0.4630845E+03  0.7546771E-02  0.1023890E+00
         21   -1    0    0  502  501  0.00000000000E+00  0.00000000000E+00  0.10136808085E+03  0.10136808085E+03  0.00000000000E+00 0. -1.
         21   -1    0    0  501  502 -0.00000000000E+00 -0.00000000000E+00 -0.52888256892E+03  0.52888256892E+03  0.00000000000E+00 0. -1.
      99926    2    1    2    0    0  0.00000000000E+00  0.00000000000E+00 -0.42751448808E+03  0.63025064977E+03  0.46308448907E+03 0.  0.
         25    1    3    3    0    0  0.96880527615E+02  0.19608366988E+02 -0.12351797506E+03  0.20167925761E+03  0.12509000000E+03 0.  0.
         25    1    3    3    0    0 -0.30829576621E+01 -0.39187293753E+02 -0.76409925238E+02  0.15176011793E+03  0.12509000000E+03 0.  0.
         25    1    3    3    0    0 -0.93797569953E+02  0.19578926765E+02 -0.22758658778E+03  0.27681127423E+03  0.12509000000E+03 0.  0.
<mgrwt>
<rscale>  2 0.46308449E+03</rscale>
<asrwt>0</asrwt>
<pdfrwt beam="1">  1       21 0.14907071E-01 0.46308449E+03</pdfrwt>
<pdfrwt beam="2">  1       21 0.77776848E-01 0.46308449E+03</pdfrwt>
<totfact> 0.53365487E+04</totfact>
</mgrwt>
</event>
<event>
 6    0  0.1576925E-007  0.4579573E+03  0.7546771E-02  0.1025375E+00
         21   -1    0    0  502  501  0.00000000000E+00  0.00000000000E+00  0.22632112619E+03  0.22632112619E+03  0.00000000000E+00 0.  1.
         21   -1    0    0  501  502 -0.00000000000E+00 -0.00000000000E+00 -0.23166734097E+03  0.23166734097E+03  0.00000000000E+00 0.  1.
      99926    2    1    2    0    0 -0.71054273576E-14  0.00000000000E+00 -0.53462147797E+01  0.45798846716E+03  0.45795726224E+03 0.  0.
         25    1    3    3    0    0  0.38215804667E+02  0.48151065168E+02  0.89146190411E+02  0.16544946107E+03  0.12509000000E+03 0.  0.
         25    1    3    3    0    0  0.11987227956E+02  0.11328489599E+02 -0.66321301044E+02  0.14254140235E+03  0.12509000000E+03 0.  0.
         25    1    3    3    0    0 -0.50203032623E+02 -0.59479554767E+02 -0.28171104146E+02  0.14999760374E+03  0.12509000000E+03 0.  0.
<mgrwt>
<rscale>  2 0.45795726E+03</rscale>
<asrwt>0</asrwt>
<pdfrwt beam="1">  1       21 0.33282519E-01 0.45795726E+03</pdfrwt>
<pdfrwt beam="2">  1       21 0.34068727E-01 0.45795726E+03</pdfrwt>
<totfact> 0.66738697E+04</totfact>
</mgrwt>
</event>
<event>
 6    0  0.1576925E-007  0.4559796E+03  0.7546771E-02  0.1025954E+00
         21   -1    0    0  502  501  0.00000000000E+00  0.00000000000E+00  0.10979366170E+03  0.10979366170E+03  0.00000000000E+00 0.  1.
         21   -1    0    0  501  502 -0.00000000000E+00 -0.00000000000E+00 -0.47342758905E+03  0.47342758905E+03  0.00000000000E+00 0.  1.
      99926    2    1    2    0    0  0.14210854715E-13  0.00000000000E+00 -0.36363392735E+03  0.58322125075E+03  0.45597959846E+03 0.  0.
         25    1    3    3    0    0 -0.10866580587E+03  0.24621267294E+01 -0.66134916796E+02  0.17842548796E+03  0.12509000000E+03 0.  0.
         25    1    3    3    0    0  0.40357020136E+02 -0.93209054855E+01 -0.14657415067E+03  0.19709657049E+03  0.12509000000E+03 0.  0.
         25    1    3    3    0    0  0.68308785736E+02  0.68587787561E+01 -0.15092485988E+03  0.20769919231E+03  0.12509000000E+03 0.  0.
<mgrwt>
<rscale>  2 0.45597960E+03</rscale>
<asrwt>0</asrwt>
<pdfrwt beam="1">  1       21 0.16146127E-01 0.45597960E+03</pdfrwt>
<pdfrwt beam="2">  1       21 0.69621703E-01 0.45597960E+03</pdfrwt>
<totfact> 0.59262861E+04</totfact>
</mgrwt>
</event>
<event>
 6    0  0.1576925E-007  0.4516900E+03  0.7546771E-02  0.1027219E+00
         21   -1    0    0  502  501  0.00000000000E+00  0.00000000000E+00  0.31427333035E+03  0.31427333035E+03  0.00000000000E+00 0. -1.
         21   -1    0    0  501  502 -0.00000000000E+00 -0.00000000000E+00 -0.16229812238E+03  0.16229812238E+03  0.00000000000E+00 0. -1.
      99926    2    1    2    0    0  0.35527136788E-14  0.17763568394E-14  0.15197520797E+03  0.47657145273E+03  0.45169003279E+03 0.  0.
         25    1    3    3    0    0 -0.65995630647E+02 -0.24543718995E+02  0.30467227408E+02  0.14674323648E+03  0.12509000000E+03 0.  0.
         25    1    3    3    0    0  0.48559583025E+02  0.14524267358E+02  0.14809635686E+03  0.20037221978E+03  0.12509000000E+03 0.  0.
         25    1    3    3    0    0  0.17436047622E+02  0.10019451637E+02 -0.26588376299E+02  0.12945599647E+03  0.12509000000E+03 0.  0.
<mgrwt>
<rscale>  2 0.45169003E+03</rscale>
<asrwt>0</asrwt>
<pdfrwt beam="1">  1       21 0.46216666E-01 0.45169003E+03</pdfrwt>
<pdfrwt beam="2">  1       21 0.23867371E-01 0.45169003E+03</pdfrwt>
<totfact> 0.68738709E+04</totfact>
</mgrwt>
</event>
<event>
 6    0  0.1576925E-007  0.4480783E+03  0.7546771E-02  0.1028297E+00
         21   -1    0    0  502  501  0.00000000000E+00  0.00000000000E+00  0.32463869740E+03  0.32463869740E+03  0.00000000000E+00 0.  1.
         21   -1    0    0  501  502 -0.00000000000E+00 -0.00000000000E+00 -0.15461353641E+03  0.15461353641E+03  0.00000000000E+00 0.  1.
      99926    2    1    2    0    0  0.00000000000E+00  0.00000000000E+00  0.17002516100E+03  0.47925223381E+03  0.44807828361E+03 0.  0.
         25    1    3    3    0    0 -0.63873714171E+02 -0.35318914465E+02  0.12240386055E+03  0.18962460352E+03  0.12509000000E+03 0.  0.
         25    1    3    3    0    0 -0.27947865620E+02  0.13223772912E+02  0.17809258832E+02  0.13007931874E+03  0.12509000000E+03 0.  0.
         25    1    3    3    0    0  0.91821579791E+02  0.22095141553E+02  0.29812041614E+02  0.15954831156E+03  0.12509000000E+03 0.  0.
<mgrwt>
<rscale>  2 0.44807828E+03</rscale>
<asrwt>0</asrwt>
<pdfrwt beam="1">  1       21 0.47740985E-01 0.44807828E+03</pdfrwt>
<pdfrwt beam="2">  1       21 0.22737285E-01 0.44807828E+03</pdfrwt>
<totfact> 0.70552104E+04</totfact>
</mgrwt>
</event>
<event>
 6    0  0.1576925E-007  0.4672097E+03  0.7546771E-02  0.1022711E+00
         21   -1    0    0  502  501  0.00000000000E+00  0.00000000000E+00  0.11189757421E+04  0.11189757421E+04  0.00000000000E+00 0. -1.
         21   -1    0    0  501  502 -0.00000000000E+00 -0.00000000000E+00 -0.48768899709E+02  0.48768899709E+02  0.00000000000E+00 0. -1.
      99926    2    1    2    0    0  0.00000000000E+00 -0.71054273576E-14  0.10702068424E+04  0.11677446419E+04  0.46720965635E+03 0.  0.
         25    1    3    3    0    0  0.27528287157E+02  0.28589963564E+02  0.41093174722E+03  0.43137872176E+03  0.12509000000E+03 0.  0.
         25    1    3    3    0    0 -0.34206208994E+02  0.63047166114E+02  0.16924169964E+03  0.22234043916E+03  0.12509000000E+03 0.  0.
         25    1    3    3    0    0  0.66779218376E+01 -0.91637129678E+02  0.49003339557E+03  0.51402548094E+03  0.12509000000E+03 0.  0.
<mgrwt>
<rscale>  2 0.46720966E+03</rscale>
<asrwt>0</asrwt>
<pdfrwt beam="1">  1       21 0.16455524E+00 0.46720966E+03</pdfrwt>
<pdfrwt beam="2">  1       21 0.71718978E-02 0.46720966E+03</pdfrwt>
<totfact> 0.30216528E+04</totfact>
</mgrwt>
</event>
