<event>
 7    0  0.4831799E-002  0.4508317E+03  0.7546771E-02  0.1027474E+00
         21   -1    0    0  502  501  0.00000000000E+00  0.00000000000E+00  0.41723193070E+02  0.41723193070E+02  0.00000000000E+00 0. -1.
         21   -1    0    0  501  502 -0.00000000000E+00 -0.00000000000E+00 -0.12178431314E+04  0.12178431314E+04  0.00000000000E+00 0. -1.
      99926    2    1    2    0    0 -0.35527136788E-14  0.00000000000E+00 -0.11761199383E+04  0.12595663244E+04  0.45083169409E+03 0.  0.
      99925    2    3    3    0    0 -0.30312493867E+02  0.89583564513E+02 -0.89538906271E+03  0.93800545163E+03  0.26303724327E+03 0.  0.
         25    1    4    4    0    0 -0.17709105945E+01  0.12607951555E+02 -0.49034030283E+03  0.50620471871E+03  0.12509000000E+03 0.  0.
         25    1    3    3    0    0  0.30312493867E+02 -0.89583564513E+02 -0.28073087560E+03  0.32156087282E+03  0.12509000000E+03 0.  0.
         25    1    4    4    0    0 -0.28541583273E+02  0.76975612957E+02 -0.40504875988E+03  0.43180073291E+03  0.12509000000E+03 0.  0.
<mgrwt>
<rscale>  2 0.45083169E+03</rscale>
<asrwt>0</asrwt>
<pdfrwt beam="1">  1       21 0.61357635E-02 0.45083169E+03</pdfrwt>
<pdfrwt beam="2">  1       21 0.17909458E+00 0.45083169E+03</pdfrwt>
<totfact> 0.31315696E+04</totfact>
</mgrwt>
</event>
<event>
 7    0  0.4831799E-002  0.4359959E+03  0.7546771E-02  0.1031982E+00
         21   -1    0    0  502  501  0.00000000000E+00  0.00000000000E+00  0.15639412148E+04  0.15639412148E+04  0.00000000000E+00 0. -1.
         21   -1    0    0  501  502 -0.00000000000E+00 -0.00000000000E+00 -0.30386761030E+02  0.30386761030E+02  0.00000000000E+00 0. -1.
      99926    2    1    2    0    0 -0.71054273576E-14  0.00000000000E+00  0.15335544537E+04  0.15943279758E+04  0.43599590804E+03 0.  0.
      99925    2    3    3    0    0  0.62507684350E+02 -0.65059656908E+02  0.10829336238E+04  0.11180438064E+04  0.26293868083E+03 0.  0.
         25    1    4    4    0    0  0.63035032746E+02 -0.60950448277E+02  0.60747163504E+03  0.62638460068E+03  0.12509000000E+03 0.  0.
         25    1    4    4    0    0 -0.52734839632E+00 -0.41092086311E+01  0.47546198877E+03  0.49165920570E+03  0.12509000000E+03 0.  0.
         25    1    3    3    0    0 -0.62507684350E+02  0.65059656908E+02  0.45062082993E+03  0.47628416941E+03  0.12509000000E+03 0.  0.
<mgrwt>
<rscale>  2 0.43599591E+03</rscale>
<asrwt>0</asrwt>
<pdfrwt beam="1">  1       21 0.22999130E+00 0.43599591E+03</pdfrwt>
<pdfrwt beam="2">  1       21 0.44686424E-02 0.43599591E+03</pdfrwt>
<totfact> 0.25057036E+04</totfact>
</mgrwt>
</event>
<event>
 7    0  0.4831799E-002  0.4513281E+03  0.7546771E-02  0.1027327E+00
         21   -1    0    0  502  501  0.00000000000E+00  0.00000000000E+00  0.79434676337E+03  0.79434676337E+03  0.00000000000E+00 0. -1.
         21   -1    0    0  501  502 -0.00000000000E+00 -0.00000000000E+00 -0.64108351907E+02  0.64108351907E+02  0.00000000000E+00 0. -1.
      99926    2    1    2    0    0 -0.71054273576E-14  0.00000000000E+00  0.73023841146E+03  0.85845511527E+03  0.45132809282E+03 0.  0.
      99925    2    3    3    0    0  0.55584087352E+02  0.79021089905E+02  0.36257008176E+03  0.45825337592E+03  0.26306875325E+03 0.  0.
         25    1    3    3    0    0 -0.55584087352E+02 -0.79021089905E+02  0.36766832970E+03  0.40020173936E+03  0.12509000000E+03 0.  0.
         25    1    4    4    0    0  0.59188912721E+01  0.70834502422E+02  0.16315888622E+03  0.21753365317E+03  0.12509000000E+03 0.  0.
         25    1    4    4    0    0  0.49665196080E+02  0.81865874830E+01  0.19941119553E+03  0.24071972275E+03  0.12509000000E+03 0.  0.
<mgrwt>
<rscale>  2 0.45132809E+03</rscale>
<asrwt>0</asrwt>
<pdfrwt beam="1">  1       21 0.11681569E+00 0.45132809E+03</pdfrwt>
<pdfrwt beam="2">  1       21 0.94276993E-02 0.45132809E+03</pdfrwt>
<totfact> 0.46385042E+04</totfact>
</mgrwt>
</event>
<event>
 7    0  0.4831799E-002  0.4495706E+03  0.7546771E-02  0.1027850E+00
         21   -1    0    0  502  501  0.00000000000E+00  0.00000000000E+00  0.88585411846E+02  0.88585411846E+02  0.00000000000E+00 0. -1.
         21   -1    0    0  501  502 -0.00000000000E+00 -0.00000000000E+00 -0.57039222712E+03  0.57039222712E+03  0.00000000000E+00 0. -1.
      99926    2    1    2    0    0  0.00000000000E+00  0.00000000000E+00 -0.48180681528E+03  0.65897763897E+03  0.44957059670E+03 0.  0.
      99925    2    3    3    0    0 -0.91958672177E+01 -0.95125172482E+01 -0.14772787368E+03  0.30200243075E+03  0.26307202733E+03 0.  0.
         25    1    4    4    0    0  0.17540544779E+02  0.27781699338E+02 -0.84751409659E+02  0.15462795048E+03  0.12509000000E+03 0.  0.
         25    1    4    4    0    0 -0.26736411996E+02 -0.37294216586E+02 -0.62976464017E+02  0.14737448028E+03  0.12509000000E+03 0.  0.
         25    1    3    3    0    0  0.91958672177E+01  0.95125172482E+01 -0.33407894160E+03  0.35697520821E+03  0.12509000000E+03 0.  0.
<mgrwt>
<rscale>  2 0.44957060E+03</rscale>
<asrwt>0</asrwt>
<pdfrwt beam="1">  1       21 0.13027267E-01 0.44957060E+03</pdfrwt>
<pdfrwt beam="2">  1       21 0.83881205E-01 0.44957060E+03</pdfrwt>
<totfact> 0.57614233E+04</totfact>
</mgrwt>
</event>
<event>
 7    0  0.4831799E-002  0.4688005E+03  0.7546771E-02  0.1022259E+00
         21   -1    0    0  502  501  0.00000000000E+00  0.00000000000E+00  0.16744946518E+03  0.16744946518E+03  0.00000000000E+00 0. -1.
         21   -1    0    0  501  502 -0.00000000000E+00 -0.00000000000E+00 -0.32811981244E+03  0.32811981244E+03  0.00000000000E+00 0. -1.
      99926    2    1    2    0    0  0.00000000000E+00  0.00000000000E+00 -0.16067034726E+03  0.49556927762E+03  0.46880054227E+03 0.  0.
      99925    2    3    3    0    0 -0.74752179749E+02  0.61171220738E+02 -0.14966992864E+02  0.28061164876E+03  0.26303817198E+03 0.  0.
         25    1    3    3    0    0  0.74752179749E+02 -0.61171220738E+02 -0.14570335439E+03  0.21495762886E+03  0.12509000000E+03 0.  0.
         25    1    4    4    0    0 -0.79315208977E+02  0.33612607184E+02 -0.12824766635E+02  0.15242274265E+03  0.12509000000E+03 0.  0.
         25    1    4    4    0    0  0.45630292284E+01  0.27558613554E+02 -0.21422262292E+01  0.12818890611E+03  0.12509000000E+03 0.  0.
<mgrwt>
<rscale>  2 0.46880054E+03</rscale>
<asrwt>0</asrwt>
<pdfrwt beam="1">  1       21 0.24624922E-01 0.46880054E+03</pdfrwt>
<pdfrwt beam="2">  1       21 0.48252913E-01 0.46880054E+03</pdfrwt>
<totfact> 0.58864942E+04</totfact>
</mgrwt>
</event>
<event>
 7    0  0.4831799E-002  0.4548257E+03  0.7546771E-02  0.1026293E+00
         21   -1    0    0  502  501  0.00000000000E+00  0.00000000000E+00  0.47904080160E+03  0.47904080160E+03  0.00000000000E+00 0.  1.
         21   -1    0    0  501  502 -0.00000000000E+00 -0.00000000000E+00 -0.10795867484E+03  0.10795867484E+03  0.00000000000E+00 0.  1.
      99926    2    1    2    0    0  0.00000000000E+00  0.00000000000E+00  0.37108212676E+03  0.58699947645E+03  0.45482572547E+03 0.  0.
      99925    2    3    3    0    0 -0.15481079168E+02  0.15940664934E+02  0.90450380620E+02  0.27894841956E+03  0.26293950028E+03 0.  0.
         25    1    4    4    0    0  0.34467742568E+01 -0.14514804762E+02  0.10937133093E+02  0.12645034120E+03  0.12509000000E+03 0.  0.
         25    1    3    3    0    0  0.15481079168E+02 -0.15940664934E+02  0.28063174614E+03  0.30805105689E+03  0.12509000000E+03 0.  0.
         25    1    4    4    0    0 -0.18927853424E+02  0.30455469695E+02  0.79513247527E+02  0.15249807835E+03  0.12509000000E+03 0.  0.
<mgrwt>
<rscale>  2 0.45482573E+03</rscale>
<asrwt>0</asrwt>
<pdfrwt beam="1">  1       21 0.70447176E-01 0.45482573E+03</pdfrwt>
<pdfrwt beam="2">  1       21 0.15876276E-01 0.45482573E+03</pdfrwt>
<totfact> 0.59567715E+04</totfact>
</mgrwt>
</event>
<event>
 7    0  0.4831799E-002  0.4544356E+03  0.7546771E-02  0.1026407E+00
         21   -1    0    0  502  501  0.00000000000E+00  0.00000000000E+00  0.96076959525E+02  0.96076959525E+02  0.00000000000E+00 0.  1.
         21   -1    0    0  501  502 -0.00000000000E+00 -0.00000000000E+00 -0.53736023180E+03  0.53736023180E+03  0.00000000000E+00 0.  1.
      99926    2    1    2    0    0  0.00000000000E+00  0.00000000000E+00 -0.44128327227E+03  0.63343719133E+03  0.45443563787E+03 0.  0.
      99925    2    3    3    0    0  0.92917895827E+02 -0.18508847898E+02 -0.19282835025E+03  0.33957724306E+03  0.26297075604E+03 0.  0.
         25    1    3    3    0    0 -0.92917895827E+02  0.18508847898E+02 -0.24845492202E+03  0.29385994826E+03  0.12509000000E+03 0.  0.
         25    1    4    4    0    0  0.29553616701E+02  0.94396329652E+01 -0.13109960732E+03  0.18383997952E+03  0.12509000000E+03 0.  0.
         25    1    4    4    0    0  0.63364279126E+02 -0.27948480863E+02 -0.61728742931E+02  0.15573726354E+03  0.12509000000E+03 0.  0.
<mgrwt>
<rscale>  2 0.45443564E+03</rscale>
<asrwt>0</asrwt>
<pdfrwt beam="1">  1       21 0.14128965E-01 0.45443564E+03</pdfrwt>
<pdfrwt beam="2">  1       21 0.79023562E-01 0.45443564E+03</pdfrwt>
<totfact> 0.56919036E+04</totfact>
</mgrwt>
</event>
<event>
 6    0  0.4831799E-002  0.4588933E+03  0.7546771E-02  0.1025103E+00
         21   -1    0    0  502  501  0.00000000000E+00  0.00000000000E+00  0.26102375897E+03  0.26102375897E+03  0.00000000000E+00 0.  1.
         21   -1    0    0  501  502 -0.00000000000E+00 -0.00000000000E+00 -0.20168954713E+03  0.20168954713E+03  0.00000000000E+00 0.  1.
      99926    2    1    2    0    0  0.00000000000E+00  0.14210854715E-13  0.59334211840E+02  0.46271330611E+03  0.45889329365E+03 0.  0.
         25    1    3    3    0    0  0.56528411124E+02 -0.75034187040E+02 -0.27562906506E+02  0.15884839440E+03  0.12509000000E+03 0.  0.
         25    1    3    3    0    0 -0.28982899118E+02  0.62927611567E+02  0.10007374777E+03  0.17453411079E+03  0.12509000000E+03 0.  0.
         25    1    3    3    0    0 -0.27545512007E+02  0.12106575473E+02 -0.13176629420E+02  0.12933080091E+03  0.12509000000E+03 0.  0.
<mgrwt>
<rscale>  2 0.45889329E+03</rscale>
<asrwt>0</asrwt>
<pdfrwt beam="1">  1       21 0.38385847E-01 0.45889329E+03</pdfrwt>
<pdfrwt beam="2">  1       21 0.29660228E-01 0.45889329E+03</pdfrwt>
<totfact> 0.65912874E+04</totfact>
</mgrwt>
</event>
<event>
 7    0  0.4831799E-002  0.4628694E+03  0.7546771E-02  0.1023952E+00
         21   -1    0    0  502  501  0.00000000000E+00  0.00000000000E+00  0.17573432692E+04  0.17573432692E+04  0.00000000000E+00 0.  1.
         21   -1    0    0  501  502 -0.00000000000E+00 -0.00000000000E+00 -0.30478970461E+02  0.30478970461E+02  0.00000000000E+00 0.  1.
      99926    2    1    2    0    0  0.14210854715E-13  0.14210854715E-13  0.17268642987E+04  0.17878222396E+04  0.46286937073E+03 0.  0.
      99925    2    3    3    0    0  0.90741299100E+02  0.73652540874E+02  0.96793986616E+03  0.10098296416E+04  0.26303923748E+03 0.  0.
         25    1    4    4    0    0  0.50930439842E+02  0.49008491342E+02  0.36472651494E+03  0.39200597027E+03  0.12509000000E+03 0.  0.
         25    1    3    3    0    0 -0.90741299100E+02 -0.73652540874E+02  0.75892443254E+03  0.77799259800E+03  0.12509000000E+03 0.  0.
         25    1    4    4    0    0  0.39810859258E+02  0.24644049532E+02  0.60321335123E+03  0.61782367136E+03  0.12509000000E+03 0.  0.
<mgrwt>
<rscale>  2 0.46286937E+03</rscale>
<asrwt>0</asrwt>
<pdfrwt beam="1">  1       21 0.25843276E+00 0.46286937E+03</pdfrwt>
<pdfrwt beam="2">  1       21 0.44822027E-02 0.46286937E+03</pdfrwt>
<totfact> 0.16465481E+04</totfact>
</mgrwt>
</event>
<event>
 7    0  0.4831799E-002  0.4599479E+03  0.7546771E-02  0.1024796E+00
         21   -1    0    0  502  501  0.00000000000E+00  0.00000000000E+00  0.52669745773E+02  0.52669745773E+02  0.00000000000E+00 0.  1.
         21   -1    0    0  501  502 -0.00000000000E+00 -0.00000000000E+00 -0.10041442592E+04  0.10041442592E+04  0.00000000000E+00 0.  1.
      99926    2    1    2    0    0 -0.14210854715E-13  0.35527136788E-14 -0.95147451338E+03  0.10568140049E+04  0.45994792248E+03 0.  0.
      99925    2    3    3    0    0 -0.11437982025E+03  0.25038309295E+02 -0.56721156025E+03  0.63608227869E+03  0.26298678858E+03 0.  0.
         25    1    4    4    0    0 -0.18482477302E+02  0.36178359023E+01 -0.29169988043E+03  0.31794813893E+03  0.12509000000E+03 0.  0.
         25    1    3    3    0    0  0.11437982025E+03 -0.25038309295E+02 -0.38426295313E+03  0.42073172624E+03  0.12509000000E+03 0.  0.
         25    1    4    4    0    0 -0.95897342952E+02  0.21420473393E+02 -0.27551167982E+03  0.31813413976E+03  0.12509000000E+03 0.  0.
<mgrwt>
<rscale>  2 0.45994792E+03</rscale>
<asrwt>0</asrwt>
<pdfrwt beam="1">  1       21 0.77455513E-02 0.45994792E+03</pdfrwt>
<pdfrwt beam="2">  1       21 0.14766827E+00 0.45994792E+03</pdfrwt>
<totfact> 0.35632314E+04</totfact>
</mgrwt>
</event>
<event>
 7    0  0.4831799E-002  0.4034427E+03  0.7546771E-02  0.1042594E+00
         21   -1    0    0  502  501  0.00000000000E+00  0.00000000000E+00  0.16392958668E+03  0.16392958668E+03  0.00000000000E+00 0. -1.
         21   -1    0    0  501  502 -0.00000000000E+00 -0.00000000000E+00 -0.24822554354E+03  0.24822554354E+03  0.00000000000E+00 0. -1.
      99926    2    1    2    0    0  0.00000000000E+00 -0.17763568394E-14 -0.84295956867E+02  0.41215513022E+03  0.40344273822E+03 0.  0.
      99925    2    3    3    0    0  0.22923703672E+02  0.10276856021E+02 -0.95757561493E+01  0.26429801522E+03  0.26292705412E+03 0.  0.
         25    1    3    3    0    0 -0.22923703672E+02 -0.10276856021E+02 -0.74720200718E+02  0.14785711500E+03  0.12509000000E+03 0.  0.
         25    1    4    4    0    0  0.74415869279E+01  0.36516172595E+02  0.20399959433E+02  0.13210781401E+03  0.12509000000E+03 0.  0.
         25    1    4    4    0    0  0.15482116744E+02 -0.26239316575E+02 -0.29975715582E+02  0.13219020122E+03  0.12509000000E+03 0.  0.
<mgrwt>
<rscale>  2 0.40344274E+03</rscale>
<asrwt>0</asrwt>
<pdfrwt beam="1">  1       21 0.24107292E-01 0.40344274E+03</pdfrwt>
<pdfrwt beam="2">  1       21 0.36503756E-01 0.40344274E+03</pdfrwt>
<totfact> 0.11082705E+05</totfact>
</mgrwt>
</event>
<event>
 7    0  0.4831799E-002  0.4501340E+03  0.7546771E-02  0.1027682E+00
         21   -1    0    0  502  501  0.00000000000E+00  0.00000000000E+00  0.30740580435E+03  0.30740580435E+03  0.00000000000E+00 0. -1.
         21   -1    0    0  501  502 -0.00000000000E+00 -0.00000000000E+00 -0.16478272049E+03  0.16478272049E+03  0.00000000000E+00 0. -1.
      99926    2    1    2    0    0 -0.71054273576E-14  0.00000000000E+00  0.14262308386E+03  0.47218852484E+03  0.45013404553E+03 0.  0.
      99925    2    3    3    0    0 -0.53011198926E+02 -0.94353345193E+02  0.82023110229E+02  0.29602778613E+03  0.26304356785E+03 0.  0.
         25    1    4    4    0    0 -0.67654254376E+01 -0.12456233061E+02  0.19021932205E+02  0.12731956145E+03  0.12509000000E+03 0.  0.
         25    1    4    4    0    0 -0.46245773488E+02 -0.81897112132E+02  0.63001178024E+02  0.16870822468E+03  0.12509000000E+03 0.  0.
         25    1    3    3    0    0  0.53011198926E+02  0.94353345193E+02  0.60599973634E+02  0.17616073872E+03  0.12509000000E+03 0.  0.
<mgrwt>
<rscale>  2 0.45013405E+03</rscale>
<asrwt>0</asrwt>
<pdfrwt beam="1">  1       21 0.45206736E-01 0.45013405E+03</pdfrwt>
<pdfrwt beam="2">  1       21 0.24232753E-01 0.45013405E+03</pdfrwt>
<totfact> 0.69935077E+04</totfact>
</mgrwt>
</event>
<event>
 7    0  0.4831799E-002  0.4649962E+03  0.7546771E-02  0.1023342E+00
         21   -1    0    0  502  501  0.00000000000E+00  0.00000000000E+00  0.11395043184E+04  0.11395043184E+04  0.00000000000E+00 0.  1.
         21   -1    0    0  501  502 -0.00000000000E+00 -0.00000000000E+00 -0.47437623405E+02  0.47437623405E+02  0.00000000000E+00 0.  1.
      99926    2    1    2    0    0  0.00000000000E+00  0.00000000000E+00  0.10920666950E+04  0.11869419418E+04  0.46499624395E+03 0.  0.
      99925    2    3    3    0    0  0.84457396391E+02 -0.16415285569E+01  0.90699314839E+03  0.94812093733E+03  0.26298477932E+03 0.  0.
         25    1    3    3    0    0 -0.84457396391E+02  0.16415285569E+01  0.18507354657E+03  0.23882100443E+03  0.12509000000E+03 0.  0.
         25    1    4    4    0    0  0.49323262432E+02  0.53143255479E+01  0.59604310047E+03  0.61104493451E+03  0.12509000000E+03 0.  0.
         25    1    4    4    0    0  0.35134133958E+02 -0.69558541048E+01  0.31095004792E+03  0.33707600282E+03  0.12509000000E+03 0.  0.
<mgrwt>
<rscale>  2 0.46499624E+03</rscale>
<asrwt>0</asrwt>
<pdfrwt beam="1">  1       21 0.16757415E+00 0.46499624E+03</pdfrwt>
<pdfrwt beam="2">  1       21 0.69761218E-02 0.46499624E+03</pdfrwt>
<totfact> 0.30154765E+04</totfact>
</mgrwt>
</event>
<event>
 7    0  0.4831799E-002  0.4559319E+03  0.7546771E-02  0.1025968E+00
         21   -1    0    0  502  501  0.00000000000E+00  0.00000000000E+00  0.64749191220E+03  0.64749191220E+03  0.00000000000E+00 0. -1.
         21   -1    0    0  501  502 -0.00000000000E+00 -0.00000000000E+00 -0.80261180789E+02  0.80261180789E+02  0.00000000000E+00 0. -1.
      99926    2    1    2    0    0  0.00000000000E+00  0.00000000000E+00  0.56723073142E+03  0.72775309299E+03  0.45593186081E+03 0.  0.
      99925    2    3    3    0    0  0.86642791645E+02  0.64505840046E+02  0.29848184074E+03  0.41225118954E+03  0.26304307115E+03 0.  0.
         25    1    4    4    0    0  0.47352513730E+01  0.41473156100E+02  0.15799372523E+03  0.20579594407E+03  0.12509000000E+03 0.  0.
         25    1    4    4    0    0  0.81907540272E+02  0.23032683946E+02  0.14048811551E+03  0.20645524547E+03  0.12509000000E+03 0.  0.
         25    1    3    3    0    0 -0.86642791645E+02 -0.64505840046E+02  0.26874889068E+03  0.31550190346E+03  0.12509000000E+03 0.  0.
<mgrwt>
<rscale>  2 0.45593186E+03</rscale>
<asrwt>0</asrwt>
<pdfrwt beam="1">  1       21 0.95219396E-01 0.45593186E+03</pdfrwt>
<pdfrwt beam="2">  1       21 0.11803115E-01 0.45593186E+03</pdfrwt>
<totfact> 0.51046845E+04</totfact>
</mgrwt>
</event>
<event>
 7    0  0.4831799E-002  0.3934110E+03  0.7546771E-02  0.1046085E+00
         21   -1    0    0  502  501  0.00000000000E+00  0.00000000000E+00  0.41071618124E+03  0.41071618124E+03  0.00000000000E+00 0.  1.
         21   -1    0    0  501  502 -0.00000000000E+00 -0.00000000000E+00 -0.94208758570E+02  0.94208758570E+02  0.00000000000E+00 0.  1.
      99926    2    1    2    0    0 -0.17763568394E-14  0.00000000000E+00  0.31650742267E+03  0.50492493981E+03  0.39341103980E+03 0.  0.
      99925    2    3    3    0    0 -0.76753096389E+01 -0.17000871135E+02  0.18222226626E+03  0.32045827255E+03  0.26294602132E+03 0.  0.
         25    1    4    4    0    0  0.16210508816E+01 -0.10113310263E+02  0.42366771529E+02  0.13246644209E+03  0.12509000000E+03 0.  0.
         25    1    3    3    0    0  0.76753096389E+01  0.17000871135E+02  0.13428515641E+03  0.18446666726E+03  0.12509000000E+03 0.  0.
         25    1    4    4    0    0 -0.92963605205E+01 -0.68875608717E+01  0.13985549473E+03  0.18799183046E+03  0.12509000000E+03 0.  0.
<mgrwt>
<rscale>  2 0.39341104E+03</rscale>
<asrwt>0</asrwt>
<pdfrwt beam="1">  1       21 0.60399438E-01 0.39341104E+03</pdfrwt>
<pdfrwt beam="2">  1       21 0.13854229E-01 0.39341104E+03</pdfrwt>
<totfact> 0.10927946E+05</totfact>
</mgrwt>
</event>
<event>
 7    0  0.4831799E-002  0.4506958E+03  0.7546771E-02  0.1027515E+00
         21   -1    0    0  502  501  0.00000000000E+00  0.00000000000E+00  0.42051468211E+02  0.42051468211E+02  0.00000000000E+00 0. -1.
         21   -1    0    0  501  502 -0.00000000000E+00 -0.00000000000E+00 -0.12076078942E+04  0.12076078942E+04  0.00000000000E+00 0. -1.
      99926    2    1    2    0    0  0.35527136788E-14  0.00000000000E+00 -0.11655564260E+04  0.12496593624E+04  0.45069583968E+03 0.  0.
      99925    2    3    3    0    0 -0.28007354135E+02  0.78208454047E+02 -0.54695253275E+03  0.61309101651E+03  0.26423956418E+03 0.  0.
         25    1    3    3    0    0  0.28007354135E+02 -0.78208454047E+02 -0.61860389328E+03  0.63656834594E+03  0.12509000000E+03 0.  0.
         25    1    4    4    0    0 -0.53380992026E+02  0.26548477939E+02 -0.29648310777E+03  0.32726761723E+03  0.12509000000E+03 0.  0.
         25    1    4    4    0    0  0.25373637891E+02  0.51659976108E+02 -0.25046942497E+03  0.28582339928E+03  0.12509000000E+03 0.  0.
<mgrwt>
<rscale>  2 0.45069584E+03</rscale>
<asrwt>0</asrwt>
<pdfrwt beam="1">  1       21 0.61840384E-02 0.45069584E+03</pdfrwt>
<pdfrwt beam="2">  1       21 0.17758943E+00 0.45069584E+03</pdfrwt>
<totfact> 0.31659979E+04</totfact>
</mgrwt>
</event>
<event>
 7    0  0.4831799E-002  0.4517425E+03  0.7546771E-02  0.1027204E+00
         21   -1    0    0  502  501  0.00000000000E+00  0.00000000000E+00  0.84789182900E+02  0.84789182900E+02  0.00000000000E+00 0.  1.
         21   -1    0    0  501  502 -0.00000000000E+00 -0.00000000000E+00 -0.60170210158E+03  0.60170210158E+03  0.00000000000E+00 0.  1.
      99926    2    1    2    0    0  0.00000000000E+00  0.00000000000E+00 -0.51691291868E+03  0.68649128448E+03  0.45174253527E+03 0.  0.
      99925    2    3    3    0    0  0.28341443603E+02 -0.88666316578E+02 -0.23664318049E+03  0.36576774720E+03  0.26290891369E+03 0.  0.
         25    1    4    4    0    0 -0.16284039949E+02 -0.17679118995E+02 -0.93630099184E+02  0.15808802857E+03  0.12509000000E+03 0.  0.
         25    1    3    3    0    0 -0.28341443603E+02  0.88666316578E+02 -0.28026973820E+03  0.32072353729E+03  0.12509000000E+03 0.  0.
         25    1    4    4    0    0  0.44625483551E+02 -0.70987197583E+02 -0.14301308130E+03  0.20767971862E+03  0.12509000000E+03 0.  0.
<mgrwt>
<rscale>  2 0.45174254E+03</rscale>
<asrwt>0</asrwt>
<pdfrwt beam="1">  1       21 0.12468997E-01 0.45174254E+03</pdfrwt>
<pdfrwt beam="2">  1       21 0.88485604E-01 0.45174254E+03</pdfrwt>
<totfact> 0.55040724E+04</totfact>
</mgrwt>
</event>
<event>
 7    0  0.4831799E-002  0.4561693E+03  0.7546771E-02  0.1025898E+00
         21   -1    0    0  502  501  0.00000000000E+00  0.00000000000E+00  0.76981921711E+03  0.76981921711E+03  0.00000000000E+00 0. -1.
         21   -1    0    0  501  502 -0.00000000000E+00 -0.00000000000E+00 -0.67577687930E+02  0.67577687930E+02  0.00000000000E+00 0. -1.
      99926    2    1    2    0    0  0.00000000000E+00  0.00000000000E+00  0.70224152918E+03  0.83739690504E+03  0.45616927918E+03 0.  0.
      99925    2    3    3    0    0 -0.26570008852E+02  0.10105151175E+03  0.52644135341E+03  0.59766667478E+03  0.26295927853E+03 0.  0.
         25    1    3    3    0    0  0.26570008852E+02 -0.10105151175E+03  0.17580017576E+03  0.23973023025E+03  0.12509000000E+03 0.  0.
         25    1    4    4    0    0 -0.46533519189E+02  0.54736409154E+02  0.22285311492E+03  0.26546649850E+03  0.12509000000E+03 0.  0.
         25    1    4    4    0    0  0.19963510337E+02  0.46315102598E+02  0.30358823849E+03  0.33220017629E+03  0.12509000000E+03 0.  0.
<mgrwt>
<rscale>  2 0.45616928E+03</rscale>
<asrwt>0</asrwt>
<pdfrwt beam="1">  1       21 0.11320870E+00 0.45616928E+03</pdfrwt>
<pdfrwt beam="2">  1       21 0.99378958E-02 0.45616928E+03</pdfrwt>
<totfact> 0.45588871E+04</totfact>
</mgrwt>
</event>
<event>
 7    0  0.4831799E-002  0.4473913E+03  0.7546771E-02  0.1028503E+00
         21   -1    0    0  502  501  0.00000000000E+00  0.00000000000E+00  0.38641138890E+03  0.38641138890E+03  0.00000000000E+00 0.  1.
         21   -1    0    0  501  502 -0.00000000000E+00 -0.00000000000E+00 -0.12949865328E+03  0.12949865328E+03  0.00000000000E+00 0.  1.
      99926    2    1    2    0    0  0.00000000000E+00 -0.71054273576E-14  0.25691273562E+03  0.51591004218E+03  0.44739134759E+03 0.  0.
      99925    2    3    3    0    0  0.87721095118E+02  0.42751908754E+02  0.11537934877E+03  0.30330260129E+03  0.26297786522E+03 0.  0.
         25    1    4    4    0    0  0.45386274107E+01  0.11208352550E+02  0.37327621205E+02  0.13109952597E+03  0.12509000000E+03 0.  0.
         25    1    4    4    0    0  0.83182467707E+02  0.31543556204E+02  0.78051727565E+02  0.17220307531E+03  0.12509000000E+03 0.  0.
         25    1    3    3    0    0 -0.87721095118E+02 -0.42751908754E+02  0.14153338685E+03  0.21260744090E+03  0.12509000000E+03 0.  0.
<mgrwt>
<rscale>  2 0.44739135E+03</rscale>
<asrwt>0</asrwt>
<pdfrwt beam="1">  1       21 0.56825204E-01 0.44739135E+03</pdfrwt>
<pdfrwt beam="2">  1       21 0.19043920E-01 0.44739135E+03</pdfrwt>
<totfact> 0.68191031E+04</totfact>
</mgrwt>
</event>
<event>
 7    0  0.4831799E-002  0.3987887E+03  0.7546771E-02  0.1044200E+00
         21   -1    0    0  502  501  0.00000000000E+00  0.00000000000E+00  0.19786221189E+03  0.19786221189E+03  0.00000000000E+00 0. -1.
         21   -1    0    0  501  502 -0.00000000000E+00 -0.00000000000E+00 -0.20093831441E+03  0.20093831441E+03  0.00000000000E+00 0. -1.
      99926    2    1    2    0    0  0.00000000000E+00  0.00000000000E+00 -0.30761025185E+01  0.39880052631E+03  0.39878866255E+03 0.  0.
      99925    2    3    3    0    0  0.19036459990E+02  0.32185808577E+02  0.19291311306E+02  0.26633874924E+03  0.26299403334E+03 0.  0.
         25    1    4    4    0    0  0.96672723510E+01 -0.42472906823E+01  0.44720150968E+02  0.13326250649E+03  0.12509000000E+03 0.  0.
         25    1    3    3    0    0 -0.19036459990E+02 -0.32185808577E+02 -0.22367413824E+02  0.13246177707E+03  0.12509000000E+03 0.  0.
         25    1    4    4    0    0  0.93691876387E+01  0.36433099259E+02 -0.25428839662E+02  0.13307624275E+03  0.12509000000E+03 0.  0.
<mgrwt>
<rscale>  2 0.39878866E+03</rscale>
<asrwt>0</asrwt>
<pdfrwt beam="1">  1       21 0.29097384E-01 0.39878866E+03</pdfrwt>
<pdfrwt beam="2">  1       21 0.29549752E-01 0.39878866E+03</pdfrwt>
<totfact> 0.11729989E+05</totfact>
</mgrwt>
</event>
<event>
 7    0  0.4831799E-002  0.4463654E+03  0.7546771E-02  0.1028811E+00
         21   -1    0    0  502  501  0.00000000000E+00  0.00000000000E+00  0.14972433907E+04  0.14972433907E+04  0.00000000000E+00 0. -1.
         21   -1    0    0  501  502 -0.00000000000E+00 -0.00000000000E+00 -0.33268149982E+02  0.33268149982E+02  0.00000000000E+00 0. -1.
      99926    2    1    2    0    0  0.00000000000E+00  0.00000000000E+00  0.14639752407E+04  0.15305115407E+04  0.44636540045E+03 0.  0.
      99925    2    3    3    0    0  0.38237386521E+02 -0.68097130357E+02  0.68901143608E+03  0.74164163791E+03  0.26305178796E+03 0.  0.
         25    1    4    4    0    0  0.54137711262E+02 -0.21127931626E+02  0.39237872762E+03  0.41591568288E+03  0.12509000000E+03 0.  0.
         25    1    3    3    0    0 -0.38237386521E+02  0.68097130357E+02  0.77496380464E+03  0.78886990277E+03  0.12509000000E+03 0.  0.
         25    1    4    4    0    0 -0.15900324741E+02 -0.46969198730E+02  0.29663270846E+03  0.32572595503E+03  0.12509000000E+03 0.  0.
<mgrwt>
<rscale>  2 0.44636540E+03</rscale>
<asrwt>0</asrwt>
<pdfrwt beam="1">  1       21 0.22018281E+00 0.44636540E+03</pdfrwt>
<pdfrwt beam="2">  1       21 0.48923760E-02 0.44636540E+03</pdfrwt>
<totfact> 0.24653524E+04</totfact>
</mgrwt>
</event>
<event>
 7    0  0.4831799E-002  0.4531858E+03  0.7546771E-02  0.1026776E+00
         21   -1    0    0  502  501  0.00000000000E+00  0.00000000000E+00  0.25818931868E+03  0.25818931868E+03  0.00000000000E+00 0. -1.
         21   -1    0    0  501  502 -0.00000000000E+00 -0.00000000000E+00 -0.19886318561E+03  0.19886318561E+03  0.00000000000E+00 0. -1.
      99926    2    1    2    0    0  0.00000000000E+00  0.00000000000E+00  0.59326133062E+02  0.45705250429E+03  0.45318583563E+03 0.  0.
      99925    2    3    3    0    0  0.10487916734E+03 -0.31415608686E+02  0.16014883793E+02  0.28526789315E+03  0.26293480969E+03 0.  0.
         25    1    4    4    0    0  0.63248139411E+02 -0.48690961723E+02 -0.13723631194E+02  0.14902007598E+03  0.12509000000E+03 0.  0.
         25    1    3    3    0    0 -0.10487916734E+03  0.31415608686E+02  0.43311249268E+02  0.17178461114E+03  0.12509000000E+03 0.  0.
         25    1    4    4    0    0  0.41631027931E+02  0.17275353037E+02  0.29738514987E+02  0.13624781717E+03  0.12509000000E+03 0.  0.
<mgrwt>
<rscale>  2 0.45318584E+03</rscale>
<asrwt>0</asrwt>
<pdfrwt beam="1">  1       21 0.37969017E-01 0.45318584E+03</pdfrwt>
<pdfrwt beam="2">  1       21 0.29244586E-01 0.45318584E+03</pdfrwt>
<totfact> 0.69394452E+04</totfact>
</mgrwt>
</event>
<event>
 7    0  0.4831799E-002  0.4608335E+03  0.7546771E-02  0.1024540E+00
         21   -1    0    0  502  501  0.00000000000E+00  0.00000000000E+00  0.82597652470E+02  0.82597652470E+02  0.00000000000E+00 0. -1.
         21   -1    0    0  501  502 -0.00000000000E+00 -0.00000000000E+00 -0.64277718375E+03  0.64277718375E+03  0.00000000000E+00 0. -1.
      99926    2    1    2    0    0  0.00000000000E+00  0.71054273576E-14 -0.56017953127E+03  0.72537483622E+03  0.46083353367E+03 0.  0.
      99925    2    3    3    0    0  0.10943530922E+03 -0.45646444175E+02 -0.36265970441E+03  0.46322740656E+03  0.26267448338E+03 0.  0.
         25    1    4    4    0    0  0.62391065632E+02 -0.37592507426E+02 -0.24705276844E+03  0.28633620131E+03  0.12509000000E+03 0.  0.
         25    1    3    3    0    0 -0.10943530922E+03  0.45646444175E+02 -0.19751982687E+03  0.26214742966E+03  0.12509000000E+03 0.  0.
         25    1    4    4    0    0  0.47044243584E+02 -0.80539367491E+01 -0.11560693596E+03  0.17689120525E+03  0.12509000000E+03 0.  0.
<mgrwt>
<rscale>  2 0.46083353E+03</rscale>
<asrwt>0</asrwt>
<pdfrwt beam="1">  1       21 0.12146714E-01 0.46083353E+03</pdfrwt>
<pdfrwt beam="2">  1       21 0.94526054E-01 0.46083353E+03</pdfrwt>
<totfact> 0.49248255E+04</totfact>
</mgrwt>
</event>
<event>
 7    0  0.4831799E-002  0.4597039E+03  0.7546771E-02  0.1024867E+00
         21   -1    0    0  502  501  0.00000000000E+00  0.00000000000E+00  0.83837282455E+03  0.83837282455E+03  0.00000000000E+00 0.  1.
         21   -1    0    0  501  502 -0.00000000000E+00 -0.00000000000E+00 -0.63017219020E+02  0.63017219020E+02  0.00000000000E+00 0.  1.
      99926    2    1    2    0    0 -0.14210854715E-13  0.14210854715E-13  0.77535560553E+03  0.90139004357E+03  0.45970392169E+03 0.  0.
      99925    2    3    3    0    0  0.75101786058E+02 -0.71393218046E+02  0.59471132680E+03  0.65845562157E+03  0.26295431829E+03 0.  0.
         25    1    4    4    0    0  0.44380436414E+02  0.50467330749E+01  0.27489904913E+03  0.30530654753E+03  0.12509000000E+03 0.  0.
         25    1    4    4    0    0  0.30721349644E+02 -0.76439951121E+02  0.31981227766E+03  0.35314907404E+03  0.12509000000E+03 0.  0.
         25    1    3    3    0    0 -0.75101786058E+02  0.71393218046E+02  0.18064427873E+03  0.24293442199E+03  0.12509000000E+03 0.  0.
<mgrwt>
<rscale>  2 0.45970392E+03</rscale>
<asrwt>0</asrwt>
<pdfrwt beam="1">  1       21 0.12329011E+00 0.45970392E+03</pdfrwt>
<pdfrwt beam="2">  1       21 0.92672386E-02 0.45970392E+03</pdfrwt>
<totfact> 0.41619547E+04</totfact>
</mgrwt>
</event>
<event>
 7    0  0.4831799E-002  0.4570348E+03  0.7546771E-02  0.1025645E+00
         21   -1    0    0  502  501  0.00000000000E+00  0.00000000000E+00  0.66439080277E+03  0.66439080277E+03  0.00000000000E+00 0.  1.
         21   -1    0    0  501  502 -0.00000000000E+00 -0.00000000000E+00 -0.78598623538E+02  0.78598623538E+02  0.00000000000E+00 0.  1.
      99926    2    1    2    0    0  0.00000000000E+00  0.00000000000E+00  0.58579217923E+03  0.74298942631E+03  0.45703480213E+03 0.  0.
      99925    2    3    3    0    0 -0.35280331537E+02  0.81683507284E+02  0.48639987834E+03  0.56011451077E+03  0.26310934300E+03 0.  0.
         25    1    3    3    0    0  0.35280331537E+02 -0.81683507284E+02  0.99392300897E+02  0.18287491554E+03  0.12509000000E+03 0.  0.
         25    1    4    4    0    0 -0.18415970755E+02 -0.33931575741E+00  0.20130862953E+03  0.23772239175E+03  0.12509000000E+03 0.  0.
         25    1    4    4    0    0 -0.16864360783E+02  0.82022823041E+02  0.28509124880E+03  0.32239211902E+03  0.12509000000E+03 0.  0.
<mgrwt>
<rscale>  2 0.45703480E+03</rscale>
<asrwt>0</asrwt>
<pdfrwt beam="1">  1       21 0.97704527E-01 0.45703480E+03</pdfrwt>
<pdfrwt beam="2">  1       21 0.11558621E-01 0.45703480E+03</pdfrwt>
<totfact> 0.49828455E+04</totfact>
</mgrwt>
</event>
<event>
 7    0  0.4831799E-002  0.4622812E+03  0.7546771E-02  0.1024122E+00
         21   -1    0    0  502  501  0.00000000000E+00  0.00000000000E+00  0.28914053635E+03  0.28914053635E+03  0.00000000000E+00 0.  1.
         21   -1    0    0  501  502 -0.00000000000E+00 -0.00000000000E+00 -0.18477511302E+03  0.18477511302E+03  0.00000000000E+00 0.  1.
      99926    2    1    2    0    0 -0.71054273576E-14  0.00000000000E+00  0.10436542333E+03  0.47391564937E+03  0.46228119270E+03 0.  0.
      99925    2    3    3    0    0 -0.53290693300E+02  0.21534010942E+02  0.17305682475E+03  0.32006628034E+03  0.26304020149E+03 0.  0.
         25    1    3    3    0    0  0.53290693300E+02 -0.21534010942E+02 -0.68691401427E+02  0.15384936903E+03  0.12509000000E+03 0.  0.
         25    1    4    4    0    0 -0.12281856857E+02 -0.26448055550E+02  0.71347502676E+02  0.14692963584E+03  0.12509000000E+03 0.  0.
         25    1    4    4    0    0 -0.41008836443E+02  0.47982066493E+02  0.10170932208E+03  0.17313664450E+03  0.12509000000E+03 0.  0.
<mgrwt>
<rscale>  2 0.46228119E+03</rscale>
<asrwt>0</asrwt>
<pdfrwt beam="1">  1       21 0.42520667E-01 0.46228119E+03</pdfrwt>
<pdfrwt beam="2">  1       21 0.27172811E-01 0.46228119E+03</pdfrwt>
<totfact> 0.63403743E+04</totfact>
</mgrwt>
</event>
<event>
 7    0  0.4831799E-002  0.4509398E+03  0.7546771E-02  0.1027442E+00
         21   -1    0    0  502  501  0.00000000000E+00  0.00000000000E+00  0.72292662779E+02  0.72292662779E+02  0.00000000000E+00 0. -1.
         21   -1    0    0  501  502 -0.00000000000E+00 -0.00000000000E+00 -0.70320647015E+03  0.70320647015E+03  0.00000000000E+00 0. -1.
      99926    2    1    2    0    0  0.00000000000E+00  0.00000000000E+00 -0.63091380737E+03  0.77549913293E+03  0.45093976631E+03 0.  0.
      99925    2    3    3    0    0  0.42349283414E+02 -0.66927569083E+02 -0.26911874522E+03  0.38458234331E+03  0.26307017780E+03 0.  0.
         25    1    4    4    0    0  0.45362650360E+01 -0.67790379211E+02 -0.11889688317E+03  0.18547261292E+03  0.12509000000E+03 0.  0.
         25    1    3    3    0    0 -0.42349283414E+02  0.66927569083E+02 -0.36179506215E+03  0.39091678962E+03  0.12509000000E+03 0.  0.
         25    1    4    4    0    0  0.37813018378E+02  0.86281012794E+00 -0.15022186205E+03  0.19910973039E+03  0.12509000000E+03 0.  0.
<mgrwt>
<rscale>  2 0.45093977E+03</rscale>
<asrwt>0</asrwt>
<pdfrwt beam="1">  1       21 0.10631274E-01 0.45093977E+03</pdfrwt>
<pdfrwt beam="2">  1       21 0.10341272E+00 0.45093977E+03</pdfrwt>
<totfact> 0.50565162E+04</totfact>
</mgrwt>
</event>
<event>
 7    0  0.4831799E-002  0.4567682E+03  0.7546771E-02  0.1025723E+00
         21   -1    0    0  502  501  0.00000000000E+00  0.00000000000E+00  0.20116189037E+03  0.20116189037E+03  0.00000000000E+00 0.  1.
         21   -1    0    0  501  502 -0.00000000000E+00 -0.00000000000E+00 -0.25929013697E+03  0.25929013697E+03  0.00000000000E+00 0.  1.
      99926    2    1    2    0    0  0.00000000000E+00  0.00000000000E+00 -0.58128246603E+02  0.46045202734E+03  0.45676818675E+03 0.  0.
      99925    2    3    3    0    0  0.79457804528E+02 -0.80297182485E+02 -0.57175641197E+02  0.29190056407E+03  0.26301274711E+03 0.  0.
         25    1    4    4    0    0  0.25507345938E+02 -0.62641780765E+02 -0.60387824091E+02  0.15449535525E+03  0.12509000000E+03 0.  0.
         25    1    4    4    0    0  0.53950458590E+02 -0.17655401719E+02  0.32121828936E+01  0.13740520882E+03  0.12509000000E+03 0.  0.
         25    1    3    3    0    0 -0.79457804528E+02  0.80297182485E+02 -0.95260540605E+00  0.16855146328E+03  0.12509000000E+03 0.  0.
<mgrwt>
<rscale>  2 0.45676819E+03</rscale>
<asrwt>0</asrwt>
<pdfrwt beam="1">  1       21 0.29582631E-01 0.45676819E+03</pdfrwt>
<pdfrwt beam="2">  1       21 0.38130903E-01 0.45676819E+03</pdfrwt>
<totfact> 0.67195082E+04</totfact>
</mgrwt>
</event>
<event>
 7    0  0.4831799E-002  0.4540464E+03  0.7546771E-02  0.1026522E+00
         21   -1    0    0  502  501  0.00000000000E+00  0.00000000000E+00  0.31910024262E+04  0.31910024262E+04  0.00000000000E+00 0. -1.
         21   -1    0    0  501  502 -0.00000000000E+00 -0.00000000000E+00 -0.16151517129E+02  0.16151517129E+02  0.00000000000E+00 0. -1.
      99926    2    1    2    0    0  0.00000000000E+00 -0.44408920985E-15  0.31748509091E+04  0.32071539434E+04  0.45404638682E+03 0.  0.
      99925    2    3    3    0    0  0.45872147413E+02 -0.34111161378E+01  0.27230548375E+04  0.27361092661E+04  0.26296459461E+03 0.  0.
         25    1    4    4    0    0 -0.14999932561E+02 -0.63075801009E+00  0.14544878505E+04  0.14599341804E+04  0.12509000000E+03 0.  0.
         25    1    4    4    0    0  0.60872079974E+02 -0.27803581277E+01  0.12685669870E+04  0.12761750856E+04  0.12509000000E+03 0.  0.
         25    1    3    3    0    0 -0.45872147413E+02  0.34111161378E+01  0.45179607157E+03  0.47104467730E+03  0.12509000000E+03 0.  0.
<mgrwt>
<rscale>  2 0.45404639E+03</rscale>
<asrwt>0</asrwt>
<pdfrwt beam="1">  1       21 0.46926462E+00 0.45404639E+03</pdfrwt>
<pdfrwt beam="2">  1       21 0.23752253E-02 0.45404639E+03</pdfrwt>
<totfact> 0.22668211E+03</totfact>
</mgrwt>
</event>
<event>
 7    0  0.4831799E-002  0.4845961E+03  0.7546771E-02  0.1017880E+00
         21   -1    0    0  502  501  0.00000000000E+00  0.00000000000E+00  0.96253312486E+02  0.96253312486E+02  0.00000000000E+00 0. -1.
         21   -1    0    0  501  502 -0.00000000000E+00 -0.00000000000E+00 -0.60993581710E+03  0.60993581710E+03  0.00000000000E+00 0. -1.
      99926    2    1    2    0    0  0.35527136788E-14  0.00000000000E+00 -0.51368250461E+03  0.70618912958E+03  0.48459609078E+03 0.  0.
      99925    2    3    3    0    0 -0.24707386388E+02 -0.78232054042E+01 -0.51455723856E+03  0.57843964526E+03  0.26296694464E+03 0.  0.
         25    1    4    4    0    0 -0.50708676998E+02 -0.15956183477E+02 -0.27876081609E+03  0.31013073114E+03  0.12509000000E+03 0.  0.
         25    1    3    3    0    0  0.24707386388E+02  0.78232054042E+01  0.87473394496E+00  0.12774948432E+03  0.12509000000E+03 0.  0.
         25    1    4    4    0    0  0.26001290609E+02  0.81329780728E+01 -0.23579642247E+03  0.26830891412E+03  0.12509000000E+03 0.  0.
<mgrwt>
<rscale>  2 0.48459609E+03</rscale>
<asrwt>0</asrwt>
<pdfrwt beam="1">  1       21 0.14154898E-01 0.48459609E+03</pdfrwt>
<pdfrwt beam="2">  1       21 0.89696447E-01 0.48459609E+03</pdfrwt>
<totfact> 0.41912953E+04</totfact>
</mgrwt>
</event>
<event>
 7    0  0.4831799E-002  0.4555195E+03  0.7546771E-02  0.1026089E+00
         21   -1    0    0  502  501  0.00000000000E+00  0.00000000000E+00  0.55515157018E+02  0.55515157018E+02  0.00000000000E+00 0.  1.
         21   -1    0    0  501  502 -0.00000000000E+00 -0.00000000000E+00 -0.93442051757E+03  0.93442051757E+03  0.00000000000E+00 0.  1.
      99926    2    1    2    0    0  0.00000000000E+00  0.00000000000E+00 -0.87890536055E+03  0.98993567459E+03  0.45551949137E+03 0.  0.
      99925    2    3    3    0    0  0.61681161956E+01  0.91594946971E+02 -0.40718764764E+03  0.49335457472E+03  0.26300052479E+03 0.  0.
         25    1    3    3    0    0 -0.61681161956E+01 -0.91594946971E+02 -0.47171771292E+03  0.49658109987E+03  0.12509000000E+03 0.  0.
         25    1    4    4    0    0 -0.10119609513E+02  0.53550382757E+01 -0.19156534746E+03  0.22907613010E+03  0.12509000000E+03 0.  0.
         25    1    4    4    0    0  0.16287725709E+02  0.86239908696E+02 -0.21562230017E+03  0.26427844462E+03  0.12509000000E+03 0.  0.
<mgrwt>
<rscale>  2 0.45551949E+03</rscale>
<asrwt>0</asrwt>
<pdfrwt beam="1">  1       21 0.81639935E-02 0.45551949E+03</pdfrwt>
<pdfrwt beam="2">  1       21 0.13741479E+00 0.45551949E+03</pdfrwt>
<totfact> 0.39400369E+04</totfact>
</mgrwt>
</event>
<event>
 7    0  0.4831799E-002  0.4642815E+03  0.7546771E-02  0.1023547E+00
         21   -1    0    0  502  501  0.00000000000E+00  0.00000000000E+00  0.50098273216E+02  0.50098273216E+02  0.00000000000E+00 0.  1.
         21   -1    0    0  501  502 -0.00000000000E+00 -0.00000000000E+00 -0.10756721746E+04  0.10756721746E+04  0.00000000000E+00 0.  1.
      99926    2    1    2    0    0  0.00000000000E+00  0.00000000000E+00 -0.10255739014E+04  0.11257704478E+04  0.46428145987E+03 0.  0.
      99925    2    3    3    0    0 -0.51167500692E+02  0.53068492767E+02 -0.40531977469E+03  0.48874841693E+03  0.26297626746E+03 0.  0.
         25    1    4    4    0    0 -0.35642208684E+01  0.26150155306E+02 -0.25774983819E+03  0.28771343639E+03  0.12509000000E+03 0.  0.
         25    1    4    4    0    0 -0.47603279823E+02  0.26918337462E+02 -0.14756993649E+03  0.20103498053E+03  0.12509000000E+03 0.  0.
         25    1    3    3    0    0  0.51167500692E+02 -0.53068492767E+02 -0.62025412671E+03  0.63702203090E+03  0.12509000000E+03 0.  0.
<mgrwt>
<rscale>  2 0.46428146E+03</rscale>
<asrwt>0</asrwt>
<pdfrwt beam="1">  1       21 0.73673935E-02 0.46428146E+03</pdfrwt>
<pdfrwt beam="2">  1       21 0.15818708E+00 0.46428146E+03</pdfrwt>
<totfact> 0.32207453E+04</totfact>
</mgrwt>
</event>
<event>
 7    0  0.4831799E-002  0.4554279E+03  0.7546771E-02  0.1026116E+00
         21   -1    0    0  502  501  0.00000000000E+00  0.00000000000E+00  0.32854686054E+02  0.32854686054E+02  0.00000000000E+00 0.  1.
         21   -1    0    0  501  502 -0.00000000000E+00 -0.00000000000E+00 -0.15782724773E+04  0.15782724773E+04  0.00000000000E+00 0.  1.
      99926    2    1    2    0    0  0.00000000000E+00  0.00000000000E+00 -0.15454177912E+04  0.16111271633E+04  0.45542791635E+03 0.  0.
      99925    2    3    3    0    0  0.45695634531E+02 -0.45823016485E+02 -0.63435733950E+03  0.68924512389E+03  0.26165199554E+03 0.  0.
         25    1    4    4    0    0  0.33483869821E+02  0.10799290750E+02 -0.26883252889E+03  0.29859040659E+03  0.12509000000E+03 0.  0.
         25    1    3    3    0    0 -0.45695634531E+02  0.45823016485E+02 -0.91106045173E+03  0.92188203945E+03  0.12509000000E+03 0.  0.
         25    1    4    4    0    0  0.12211764710E+02 -0.56622307234E+02 -0.36552481062E+03  0.39065471730E+03  0.12509000000E+03 0.  0.
<mgrwt>
<rscale>  2 0.45542792E+03</rscale>
<asrwt>0</asrwt>
<pdfrwt beam="1">  1       21 0.48315707E-02 0.45542792E+03</pdfrwt>
<pdfrwt beam="2">  1       21 0.23209893E+00 0.45542792E+03</pdfrwt>
<totfact> 0.21109271E+04</totfact>
</mgrwt>
</event>
<event>
 7    0  0.4831799E-002  0.4309270E+03  0.7546771E-02  0.1033568E+00
         21   -1    0    0  502  501  0.00000000000E+00  0.00000000000E+00  0.17641096188E+03  0.17641096188E+03  0.00000000000E+00 0.  1.
         21   -1    0    0  501  502 -0.00000000000E+00 -0.00000000000E+00 -0.26316124842E+03  0.26316124842E+03  0.00000000000E+00 0.  1.
      99926    2    1    2    0    0  0.00000000000E+00 -0.71054273576E-14 -0.86750286545E+02  0.43957221030E+03  0.43092704238E+03 0.  0.
      99925    2    3    3    0    0  0.47849547849E+02  0.45186773967E+02 -0.11670106758E+03  0.29508698214E+03  0.26291778959E+03 0.  0.
         25    1    4    4    0    0  0.21753721304E+02 -0.13679103202E+02 -0.35071179612E+02  0.13243050251E+03  0.12509000000E+03 0.  0.
         25    1    3    3    0    0 -0.47849547849E+02 -0.45186773967E+02  0.29950781031E+02  0.14448522816E+03  0.12509000000E+03 0.  0.
         25    1    4    4    0    0  0.26095826545E+02  0.58865877169E+02 -0.81629887964E+02  0.16265647963E+03  0.12509000000E+03 0.  0.
<mgrwt>
<rscale>  2 0.43092704E+03</rscale>
<asrwt>0</asrwt>
<pdfrwt beam="1">  1       21 0.25942789E-01 0.43092704E+03</pdfrwt>
<pdfrwt beam="2">  1       21 0.38700183E-01 0.43092704E+03</pdfrwt>
<totfact> 0.84843143E+04</totfact>
</mgrwt>
</event>
<event>
 7    0  0.4831799E-002  0.4831615E+03  0.7546771E-02  0.1018270E+00
         21   -1    0    0  502  501  0.00000000000E+00  0.00000000000E+00  0.42626942229E+03  0.42626942229E+03  0.00000000000E+00 0.  1.
         21   -1    0    0  501  502 -0.00000000000E+00 -0.00000000000E+00 -0.13691164730E+03  0.13691164730E+03  0.00000000000E+00 0.  1.
      99926    2    1    2    0    0  0.00000000000E+00  0.00000000000E+00  0.28935777499E+03  0.56318106959E+03  0.48316145872E+03 0.  0.
      99925    2    3    3    0    0 -0.12873028660E+02 -0.12070997623E+03  0.10166301490E+03  0.30702985586E+03  0.26305009136E+03 0.  0.
         25    1    4    4    0    0 -0.17266957211E+02 -0.27247674015E+02  0.19874188022E+02  0.13070223793E+03  0.12509000000E+03 0.  0.
         25    1    4    4    0    0  0.43939285511E+01 -0.93462302212E+02  0.81788826879E+02  0.17632761793E+03  0.12509000000E+03 0.  0.
         25    1    3    3    0    0  0.12873028660E+02  0.12070997623E+03  0.18769476009E+03  0.25615121373E+03  0.12509000000E+03 0.  0.
<mgrwt>
<rscale>  2 0.48316146E+03</rscale>
<asrwt>0</asrwt>
<pdfrwt beam="1">  1       21 0.62686679E-01 0.48316146E+03</pdfrwt>
<pdfrwt beam="2">  1       21 0.20134066E-01 0.48316146E+03</pdfrwt>
<totfact> 0.49108415E+04</totfact>
</mgrwt>
</event>
<event>
 7    0  0.4831799E-002  0.4479781E+03  0.7546771E-02  0.1028327E+00
         21   -1    0    0  502  501  0.00000000000E+00  0.00000000000E+00  0.45393750934E+02  0.45393750934E+02  0.00000000000E+00 0.  1.
         21   -1    0    0  501  502 -0.00000000000E+00 -0.00000000000E+00 -0.11052424360E+04  0.11052424360E+04  0.00000000000E+00 0.  1.
      99926    2    1    2    0    0  0.00000000000E+00  0.00000000000E+00 -0.10598486851E+04  0.11506361870E+04  0.44797812385E+03 0.  0.
      99925    2    3    3    0    0  0.18269810090E+02  0.53158157595E+02 -0.90514971775E+03  0.94390241063E+03  0.26171773645E+03 0.  0.
         25    1    4    4    0    0 -0.14067579924E+02  0.25454051377E+02 -0.55458491449E+03  0.56926069688E+03  0.12509000000E+03 0.  0.
         25    1    3    3    0    0 -0.18269810090E+02 -0.53158157595E+02 -0.15469896735E+03  0.20673377634E+03  0.12509000000E+03 0.  0.
         25    1    4    4    0    0  0.32337390014E+02  0.27704106218E+02 -0.35056480326E+03  0.37464171375E+03  0.12509000000E+03 0.  0.
<mgrwt>
<rscale>  2 0.44797812E+03</rscale>
<asrwt>0</asrwt>
<pdfrwt beam="1">  1       21 0.66755520E-02 0.44797812E+03</pdfrwt>
<pdfrwt beam="2">  1       21 0.16253564E+00 0.44797812E+03</pdfrwt>
<totfact> 0.35673787E+04</totfact>
</mgrwt>
</event>
<event>
 7    0  0.4831799E-002  0.4480144E+03  0.7546771E-02  0.1028316E+00
         21   -1    0    0  502  501  0.00000000000E+00  0.00000000000E+00  0.26168788421E+03  0.26168788421E+03  0.00000000000E+00 0.  1.
         21   -1    0    0  501  502 -0.00000000000E+00 -0.00000000000E+00 -0.19175219949E+03  0.19175219949E+03  0.00000000000E+00 0.  1.
      99926    2    1    2    0    0  0.00000000000E+00  0.00000000000E+00  0.69935684715E+02  0.45344008370E+03  0.44801440770E+03 0.  0.
      99925    2    3    3    0    0 -0.10139073689E+03 -0.32936023665E+02  0.42469041106E+02  0.28680639025E+03  0.26284866911E+03 0.  0.
         25    1    4    4    0    0 -0.76820031502E+02 -0.35013558817E+02  0.50283747975E+02  0.15906989015E+03  0.12509000000E+03 0.  0.
         25    1    3    3    0    0  0.10139073689E+03  0.32936023665E+02  0.27466643609E+02  0.16663369345E+03  0.12509000000E+03 0.  0.
         25    1    4    4    0    0 -0.24570705386E+02  0.20775351526E+01 -0.78147068684E+01  0.12773650010E+03  0.12509000000E+03 0.  0.
<mgrwt>
<rscale>  2 0.44801441E+03</rscale>
<asrwt>0</asrwt>
<pdfrwt beam="1">  1       21 0.38483512E-01 0.44801441E+03</pdfrwt>
<pdfrwt beam="2">  1       21 0.28198853E-01 0.44801441E+03</pdfrwt>
<totfact> 0.72623382E+04</totfact>
</mgrwt>
</event>
<event>
 7    0  0.4831799E-002  0.4599247E+03  0.7546771E-02  0.1024803E+00
         21   -1    0    0  502  501  0.00000000000E+00  0.00000000000E+00  0.38787895785E+02  0.38787895785E+02  0.00000000000E+00 0.  1.
         21   -1    0    0  501  502 -0.00000000000E+00 -0.00000000000E+00 -0.13633813502E+04  0.13633813502E+04  0.00000000000E+00 0.  1.
      99926    2    1    2    0    0 -0.14210854715E-13  0.00000000000E+00 -0.13245934545E+04  0.14021692460E+04  0.45992474918E+03 0.  0.
      99925    2    3    3    0    0 -0.10796116574E+03  0.17399941905E+02 -0.69854694685E+03  0.75445008692E+03  0.26318952375E+03 0.  0.
         25    1    4    4    0    0 -0.88724955257E+02 -0.13673090873E+02 -0.40479859721E+03  0.43309177261E+03  0.12509000000E+03 0.  0.
         25    1    3    3    0    0  0.10796116574E+03 -0.17399941905E+02 -0.62604650761E+03  0.64771915911E+03  0.12509000000E+03 0.  0.
         25    1    4    4    0    0 -0.19236210484E+02  0.31073032777E+02 -0.29374834964E+03  0.32135831431E+03  0.12509000000E+03 0.  0.
<mgrwt>
<rscale>  2 0.45992475E+03</rscale>
<asrwt>0</asrwt>
<pdfrwt beam="1">  1       21 0.57041027E-02 0.45992475E+03</pdfrwt>
<pdfrwt beam="2">  1       21 0.20049725E+00 0.45992475E+03</pdfrwt>
<totfact> 0.25292362E+04</totfact>
</mgrwt>
</event>
<event>
 7    0  0.4831799E-002  0.4562642E+03  0.7546771E-02  0.1025870E+00
         21   -1    0    0  502  501  0.00000000000E+00  0.00000000000E+00  0.31422347482E+03  0.31422347482E+03  0.00000000000E+00 0.  1.
         21   -1    0    0  501  502 -0.00000000000E+00 -0.00000000000E+00 -0.16562816097E+03  0.16562816097E+03  0.00000000000E+00 0.  1.
      99926    2    1    2    0    0 -0.13322676296E-14  0.00000000000E+00  0.14859531385E+03  0.47985163578E+03  0.45626420533E+03 0.  0.
      99925    2    3    3    0    0 -0.32193688643E+01  0.45861608107E+02  0.20388314547E+03  0.33556752765E+03  0.26253300207E+03 0.  0.
         25    1    4    4    0    0 -0.40405927552E+02  0.14200272697E+02  0.10336188856E+03  0.16782572756E+03  0.12509000000E+03 0.  0.
         25    1    4    4    0    0  0.37186558687E+02  0.31661335410E+02  0.10052125691E+03  0.16774180009E+03  0.12509000000E+03 0.  0.
         25    1    3    3    0    0  0.32193688643E+01 -0.45861608107E+02 -0.55287831615E+02  0.14428410813E+03  0.12509000000E+03 0.  0.
<mgrwt>
<rscale>  2 0.45626421E+03</rscale>
<asrwt>0</asrwt>
<pdfrwt beam="1">  1       21 0.46209334E-01 0.45626421E+03</pdfrwt>
<pdfrwt beam="2">  1       21 0.24357083E-01 0.45626421E+03</pdfrwt>
<totfact> 0.66045685E+04</totfact>
</mgrwt>
</event>
<event>
 7    0  0.4831799E-002  0.4525908E+03  0.7546771E-02  0.1026952E+00
         21   -1    0    0  502  501  0.00000000000E+00  0.00000000000E+00  0.46128982546E+03  0.46128982546E+03  0.00000000000E+00 0.  1.
         21   -1    0    0  501  502 -0.00000000000E+00 -0.00000000000E+00 -0.11101393812E+03  0.11101393812E+03  0.00000000000E+00 0.  1.
      99926    2    1    2    0    0  0.00000000000E+00  0.00000000000E+00  0.35027588734E+03  0.57230376357E+03  0.45259076499E+03 0.  0.
      99925    2    3    3    0    0 -0.41476054917E+02  0.99007221522E+02  0.18180160730E+03  0.33660526087E+03  0.26216137050E+03 0.  0.
         25    1    3    3    0    0  0.41476054917E+02 -0.99007221522E+02  0.16847428004E+03  0.23569850271E+03  0.12509000000E+03 0.  0.
         25    1    4    4    0    0  0.38145497687E+01  0.15673850422E+02  0.86955903145E+02  0.15319614084E+03  0.12509000000E+03 0.  0.
         25    1    4    4    0    0 -0.45290604685E+02  0.83333371099E+02  0.94845704153E+02  0.18340912002E+03  0.12509000000E+03 0.  0.
<mgrwt>
<rscale>  2 0.45259076E+03</rscale>
<asrwt>0</asrwt>
<pdfrwt beam="1">  1       21 0.67836738E-01 0.45259076E+03</pdfrwt>
<pdfrwt beam="2">  1       21 0.16325579E-01 0.45259076E+03</pdfrwt>
<totfact> 0.61581068E+04</totfact>
</mgrwt>
</event>
<event>
 7    0  0.4831799E-002  0.4552814E+03  0.7546771E-02  0.1026159E+00
         21   -1    0    0  502  501  0.00000000000E+00  0.00000000000E+00  0.52565051655E+02  0.52565051655E+02  0.00000000000E+00 0.  1.
         21   -1    0    0  501  502 -0.00000000000E+00 -0.00000000000E+00 -0.98583175346E+03  0.98583175346E+03  0.00000000000E+00 0.  1.
      99926    2    1    2    0    0  0.00000000000E+00  0.00000000000E+00 -0.93326670181E+03  0.10383968051E+04  0.45528143842E+03 0.  0.
      99925    2    3    3    0    0  0.30478814606E+02 -0.10019017199E+03 -0.48700981114E+03  0.56325498495E+03  0.26288893704E+03 0.  0.
         25    1    3    3    0    0 -0.30478814606E+02  0.10019017199E+03 -0.44625689067E+03  0.47514182017E+03  0.12509000000E+03 0.  0.
         25    1    4    4    0    0  0.48568844479E+02 -0.42410574350E+02 -0.28773682109E+03  0.32030856339E+03  0.12509000000E+03 0.  0.
         25    1    4    4    0    0 -0.18090029873E+02 -0.57779597642E+02 -0.19927299005E+03  0.24294642156E+03  0.12509000000E+03 0.  0.
<mgrwt>
<rscale>  2 0.45528144E+03</rscale>
<asrwt>0</asrwt>
<pdfrwt beam="1">  1       21 0.77301545E-02 0.45528144E+03</pdfrwt>
<pdfrwt beam="2">  1       21 0.14497526E+00 0.45528144E+03</pdfrwt>
<totfact> 0.37623325E+04</totfact>
</mgrwt>
</event>
<event>
 7    0  0.4831799E-002  0.4555914E+03  0.7546771E-02  0.1026068E+00
         21   -1    0    0  502  501  0.00000000000E+00  0.00000000000E+00  0.31805398291E+03  0.31805398291E+03  0.00000000000E+00 0.  1.
         21   -1    0    0  501  502 -0.00000000000E+00 -0.00000000000E+00 -0.16315119826E+03  0.16315119826E+03  0.00000000000E+00 0.  1.
      99926    2    1    2    0    0  0.00000000000E+00  0.00000000000E+00  0.15490278465E+03  0.48120518117E+03  0.45559143286E+03 0.  0.
      99925    2    3    3    0    0  0.42119122088E+02 -0.82837138588E+02  0.16660832591E+03  0.32493445528E+03  0.26303622183E+03 0.  0.
         25    1    4    4    0    0  0.29452507607E+02 -0.83258569571E+02  0.96129047448E+02  0.18079751512E+03  0.12509000000E+03 0.  0.
         25    1    4    4    0    0  0.12666614481E+02  0.42143098298E+00  0.70479278458E+02  0.14413694016E+03  0.12509000000E+03 0.  0.
         25    1    3    3    0    0 -0.42119122088E+02  0.82837138588E+02 -0.11705541254E+02  0.15627072589E+03  0.12509000000E+03 0.  0.
<mgrwt>
<rscale>  2 0.45559143E+03</rscale>
<asrwt>0</asrwt>
<pdfrwt beam="1">  1       21 0.46772645E-01 0.45559143E+03</pdfrwt>
<pdfrwt beam="2">  1       21 0.23992823E-01 0.45559143E+03</pdfrwt>
<totfact> 0.66300674E+04</totfact>
</mgrwt>
</event>
<event>
 7    0  0.4831799E-002  0.4569638E+03  0.7546771E-02  0.1025665E+00
         21   -1    0    0  502  501  0.00000000000E+00  0.00000000000E+00  0.41601211699E+03  0.41601211699E+03  0.00000000000E+00 0.  1.
         21   -1    0    0  501  502 -0.00000000000E+00 -0.00000000000E+00 -0.12548668866E+03  0.12548668866E+03  0.00000000000E+00 0.  1.
      99926    2    1    2    0    0 -0.71054273576E-14  0.71054273576E-14  0.29052542834E+03  0.54149880565E+03  0.45696381915E+03 0.  0.
      99925    2    3    3    0    0 -0.56600435956E+02 -0.56204913651E+02  0.28074494403E+03  0.39281872076E+03  0.26291866064E+03 0.  0.
         25    1    3    3    0    0  0.56600435956E+02  0.56204913651E+02  0.97804843048E+01  0.14868008489E+03  0.12509000000E+03 0.  0.
         25    1    4    4    0    0 -0.32468325394E+02 -0.39975177308E+02  0.19885500460E+03  0.24050577521E+03  0.12509000000E+03 0.  0.
         25    1    4    4    0    0 -0.24132110562E+02 -0.16229736344E+02  0.81889939429E+02  0.15231294555E+03  0.12509000000E+03 0.  0.
<mgrwt>
<rscale>  2 0.45696382E+03</rscale>
<asrwt>0</asrwt>
<pdfrwt beam="1">  1       21 0.61178252E-01 0.45696382E+03</pdfrwt>
<pdfrwt beam="2">  1       21 0.18453925E-01 0.45696382E+03</pdfrwt>
<totfact> 0.61470894E+04</totfact>
</mgrwt>
</event>
<event>
 7    0  0.4831799E-002  0.4490289E+03  0.7546771E-02  0.1028012E+00
         21   -1    0    0  502  501  0.00000000000E+00  0.00000000000E+00  0.16461902827E+04  0.16461902827E+04  0.00000000000E+00 0. -1.
         21   -1    0    0  501  502 -0.00000000000E+00 -0.00000000000E+00 -0.30620237013E+02  0.30620237013E+02  0.00000000000E+00 0. -1.
      99926    2    1    2    0    0  0.00000000000E+00 -0.53290705182E-14  0.16155700457E+04  0.16768105197E+04  0.44902889273E+03 0.  0.
      99925    2    3    3    0    0 -0.94093119306E+02 -0.25691539335E+01  0.12157005633E+04  0.12473885516E+04  0.26304034560E+03 0.  0.
         25    1    4    4    0    0 -0.64684942996E+02  0.33500824676E+02  0.68887485726E+03  0.70391940176E+03  0.12509000000E+03 0.  0.
         25    1    3    3    0    0  0.94093119306E+02  0.25691539335E+01  0.39986948243E+03  0.42942196815E+03  0.12509000000E+03 0.  0.
         25    1    4    4    0    0 -0.29408176310E+02 -0.36069978609E+02  0.52682570604E+03  0.54346914984E+03  0.12509000000E+03 0.  0.
<mgrwt>
<rscale>  2 0.44902889E+03</rscale>
<asrwt>0</asrwt>
<pdfrwt beam="1">  1       21 0.24208675E+00 0.44902889E+03</pdfrwt>
<pdfrwt beam="2">  1       21 0.45029772E-02 0.44902889E+03</pdfrwt>
<totfact> 0.20691265E+04</totfact>
</mgrwt>
</event>
<event>
 7    0  0.4831799E-002  0.4541403E+03  0.7546771E-02  0.1026495E+00
         21   -1    0    0  502  501  0.00000000000E+00  0.00000000000E+00  0.45817209180E+03  0.45817209180E+03  0.00000000000E+00 0. -1.
         21   -1    0    0  501  502 -0.00000000000E+00 -0.00000000000E+00 -0.11253599772E+03  0.11253599772E+03  0.00000000000E+00 0. -1.
      99926    2    1    2    0    0  0.00000000000E+00  0.00000000000E+00  0.34563609408E+03  0.57070808952E+03  0.45414030201E+03 0.  0.
      99925    2    3    3    0    0  0.72298989897E+02  0.34634551659E+02  0.31664269069E+03  0.41933166583E+03  0.26296341246E+03 0.  0.
         25    1    3    3    0    0 -0.72298989897E+02 -0.34634551659E+02  0.28993403390E+02  0.15137642369E+03  0.12509000000E+03 0.  0.
         25    1    4    4    0    0  0.81478519300E+01  0.13404504893E+01  0.18754481035E+03  0.22558534590E+03  0.12509000000E+03 0.  0.
         25    1    4    4    0    0  0.64151137967E+02  0.33294101169E+02  0.12909788034E+03  0.19374631992E+03  0.12509000000E+03 0.  0.
<mgrwt>
<rscale>  2 0.45414030E+03</rscale>
<asrwt>0</asrwt>
<pdfrwt beam="1">  1       21 0.67378248E-01 0.45414030E+03</pdfrwt>
<pdfrwt beam="2">  1       21 0.16549412E-01 0.45414030E+03</pdfrwt>
<totfact> 0.60931659E+04</totfact>
</mgrwt>
</event>
<event>
 7    0  0.4831799E-002  0.4436327E+03  0.7546771E-02  0.1029638E+00
         21   -1    0    0  502  501  0.00000000000E+00  0.00000000000E+00  0.89902059427E+02  0.89902059427E+02  0.00000000000E+00 0. -1.
         21   -1    0    0  501  502 -0.00000000000E+00 -0.00000000000E+00 -0.54729003713E+03  0.54729003713E+03  0.00000000000E+00 0. -1.
      99926    2    1    2    0    0  0.00000000000E+00  0.00000000000E+00 -0.45738797771E+03  0.63719209656E+03  0.44363273749E+03 0.  0.
      99925    2    3    3    0    0  0.18920331047E+02  0.30439983598E+02 -0.42818670297E+03  0.50383245471E+03  0.26309450448E+03 0.  0.
         25    1    3    3    0    0 -0.18920331047E+02 -0.30439983598E+02 -0.29201274735E+02  0.13335964185E+03  0.12509000000E+03 0.  0.
         25    1    4    4    0    0 -0.28339292228E+02  0.17551279737E+02 -0.18147753049E+03  0.22291874097E+03  0.12509000000E+03 0.  0.
         25    1    4    4    0    0  0.47259623276E+02  0.12888703860E+02 -0.24670917248E+03  0.28091371374E+03  0.12509000000E+03 0.  0.
<mgrwt>
<rscale>  2 0.44363274E+03</rscale>
<asrwt>0</asrwt>
<pdfrwt beam="1">  1       21 0.13220891E-01 0.44363274E+03</pdfrwt>
<pdfrwt beam="2">  1       21 0.80483830E-01 0.44363274E+03</pdfrwt>
<totfact> 0.61805962E+04</totfact>
</mgrwt>
</event>
<event>
 7    0  0.4831799E-002  0.4537677E+03  0.7546771E-02  0.1026604E+00
         21   -1    0    0  502  501  0.00000000000E+00  0.00000000000E+00  0.30163149610E+03  0.30163149610E+03  0.00000000000E+00 0. -1.
         21   -1    0    0  501  502 -0.00000000000E+00 -0.00000000000E+00 -0.17065948626E+03  0.17065948626E+03  0.00000000000E+00 0. -1.
      99926    2    1    2    0    0  0.00000000000E+00  0.00000000000E+00  0.13097200984E+03  0.47229098236E+03  0.45376767697E+03 0.  0.
      99925    2    3    3    0    0  0.43648601295E+02  0.10176742933E+03  0.64701659895E+02  0.29256597729E+03  0.26295766999E+03 0.  0.
         25    1    4    4    0    0  0.37886570424E+02  0.23273473596E+02  0.40645453655E+01  0.13281971021E+03  0.12509000000E+03 0.  0.
         25    1    3    3    0    0 -0.43648601295E+02 -0.10176742933E+03  0.66270349942E+02  0.17972500507E+03  0.12509000000E+03 0.  0.
         25    1    4    4    0    0  0.57620308703E+01  0.78493955735E+02  0.60637114529E+02  0.15974626708E+03  0.12509000000E+03 0.  0.
<mgrwt>
<rscale>  2 0.45376768E+03</rscale>
<asrwt>0</asrwt>
<pdfrwt beam="1">  1       21 0.44357573E-01 0.45376768E+03</pdfrwt>
<pdfrwt beam="2">  1       21 0.25096983E-01 0.45376768E+03</pdfrwt>
<totfact> 0.67927524E+04</totfact>
</mgrwt>
</event>
<event>
 7    0  0.4831799E-002  0.4583556E+03  0.7546771E-02  0.1025259E+00
         21   -1    0    0  502  501  0.00000000000E+00  0.00000000000E+00  0.33993702273E+03  0.33993702273E+03  0.00000000000E+00 0.  1.
         21   -1    0    0  501  502 -0.00000000000E+00 -0.00000000000E+00 -0.15450644139E+03  0.15450644139E+03  0.00000000000E+00 0.  1.
      99926    2    1    2    0    0  0.00000000000E+00 -0.14210854715E-13  0.18543058134E+03  0.49444346412E+03  0.45835558109E+03 0.  0.
      99925    2    3    3    0    0 -0.52577963613E+02  0.97135127043E+02  0.77000219860E+02  0.29543510612E+03  0.26296994678E+03 0.  0.
         25    1    3    3    0    0  0.52577963613E+02 -0.97135127043E+02  0.10843036148E+03  0.19900835800E+03  0.12509000000E+03 0.  0.
         25    1    4    4    0    0 -0.38019145252E+02  0.11808639407E+02  0.52381182410E+02  0.14133717042E+03  0.12509000000E+03 0.  0.
         25    1    4    4    0    0 -0.14558818361E+02  0.85326487636E+02  0.24619037450E+02  0.15409793571E+03  0.12509000000E+03 0.  0.
<mgrwt>
<rscale>  2 0.45835558E+03</rscale>
<asrwt>0</asrwt>
<pdfrwt beam="1">  1       21 0.49990739E-01 0.45835558E+03</pdfrwt>
<pdfrwt beam="2">  1       21 0.22721536E-01 0.45835558E+03</pdfrwt>
<totfact> 0.63942411E+04</totfact>
</mgrwt>
</event>
<event>
 7    0  0.4831799E-002  0.4476486E+03  0.7546771E-02  0.1028426E+00
         21   -1    0    0  502  501  0.00000000000E+00  0.00000000000E+00  0.95190394762E+02  0.95190394762E+02  0.00000000000E+00 0. -1.
         21   -1    0    0  501  502 -0.00000000000E+00 -0.00000000000E+00 -0.52628538983E+03  0.52628538983E+03  0.00000000000E+00 0. -1.
      99926    2    1    2    0    0  0.00000000000E+00  0.00000000000E+00 -0.43109499507E+03  0.62147578460E+03  0.44764858546E+03 0.  0.
      99925    2    3    3    0    0 -0.37431561940E+02  0.71688349262E+02 -0.17673083032E+03  0.32670642109E+03  0.26260799293E+03 0.  0.
         25    1    4    4    0    0 -0.19824926713E+02  0.75689081895E+02 -0.10793287397E+03  0.18280831004E+03  0.12509000000E+03 0.  0.
         25    1    3    3    0    0  0.37431561940E+02 -0.71688349262E+02 -0.25436416476E+03  0.29476936350E+03  0.12509000000E+03 0.  0.
         25    1    4    4    0    0 -0.17606635226E+02 -0.40007326331E+01 -0.68797956343E+02  0.14389811105E+03  0.12509000000E+03 0.  0.
<mgrwt>
<rscale>  2 0.44764859E+03</rscale>
<asrwt>0</asrwt>
<pdfrwt beam="1">  1       21 0.13998587E-01 0.44764859E+03</pdfrwt>
<pdfrwt beam="2">  1       21 0.77394911E-01 0.44764859E+03</pdfrwt>
<totfact> 0.60830226E+04</totfact>
</mgrwt>
</event>
<event>
 7    0  0.4831799E-002  0.4426149E+03  0.7546771E-02  0.1029948E+00
         21   -1    0    0  502  501  0.00000000000E+00  0.00000000000E+00  0.43207372511E+03  0.43207372511E+03  0.00000000000E+00 0. -1.
         21   -1    0    0  501  502 -0.00000000000E+00 -0.00000000000E+00 -0.11335331579E+03  0.11335331579E+03  0.00000000000E+00 0. -1.
      99926    2    1    2    0    0  0.00000000000E+00  0.00000000000E+00  0.31872040932E+03  0.54542704091E+03  0.44261490896E+03 0.  0.
      99925    2    3    3    0    0  0.44490405030E+02  0.31366793575E+02  0.97590012531E+02  0.28560126782E+03  0.26283264971E+03 0.  0.
         25    1    4    4    0    0  0.26524399350E+02  0.51335770225E+02  0.30460037275E+02  0.14111777718E+03  0.12509000000E+03 0.  0.
         25    1    4    4    0    0  0.17966005681E+02 -0.19968976649E+02  0.67129975256E+02  0.14448349064E+03  0.12509000000E+03 0.  0.
         25    1    3    3    0    0 -0.44490405030E+02 -0.31366793575E+02  0.22113039679E+03  0.25982577309E+03  0.12509000000E+03 0.  0.
<mgrwt>
<rscale>  2 0.44261491E+03</rscale>
<asrwt>0</asrwt>
<pdfrwt beam="1">  1       21 0.63540253E-01 0.44261491E+03</pdfrwt>
<pdfrwt beam="2">  1       21 0.16669605E-01 0.44261491E+03</pdfrwt>
<totfact> 0.68654482E+04</totfact>
</mgrwt>
</event>
<event>
 7    0  0.4831799E-002  0.4532839E+03  0.7546771E-02  0.1026747E+00
         21   -1    0    0  502  501  0.00000000000E+00  0.00000000000E+00  0.18142848961E+03  0.18142848961E+03  0.00000000000E+00 0.  1.
         21   -1    0    0  501  502 -0.00000000000E+00 -0.00000000000E+00 -0.28312298810E+03  0.28312298810E+03  0.00000000000E+00 0.  1.
      99926    2    1    2    0    0  0.00000000000E+00  0.00000000000E+00 -0.10169449849E+03  0.46455147771E+03  0.45328391149E+03 0.  0.
      99925    2    3    3    0    0  0.61311540846E+02 -0.88930513803E+02 -0.35654686992E+02  0.28657252915E+03  0.26303006755E+03 0.  0.
         25    1    4    4    0    0  0.38056906044E+01 -0.33515563959E+02 -0.46785254030E+02  0.13774666748E+03  0.12509000000E+03 0.  0.
         25    1    4    4    0    0  0.57505850241E+02 -0.55414949843E+02  0.11130567038E+02  0.14882586167E+03  0.12509000000E+03 0.  0.
         25    1    3    3    0    0 -0.61311540846E+02  0.88930513803E+02 -0.66039811495E+02  0.17797894855E+03  0.12509000000E+03 0.  0.
<mgrwt>
<rscale>  2 0.45328391E+03</rscale>
<asrwt>0</asrwt>
<pdfrwt beam="1">  1       21 0.26680661E-01 0.45328391E+03</pdfrwt>
<pdfrwt beam="2">  1       21 0.41635733E-01 0.45328391E+03</pdfrwt>
<totfact> 0.68774919E+04</totfact>
</mgrwt>
</event>
<event>
 7    0  0.4831799E-002  0.4529513E+03  0.7546771E-02  0.1026846E+00
         21   -1    0    0  502  501  0.00000000000E+00  0.00000000000E+00  0.28938683349E+03  0.28938683349E+03  0.00000000000E+00 0. -1.
         21   -1    0    0  501  502 -0.00000000000E+00 -0.00000000000E+00 -0.17724102886E+03  0.17724102886E+03  0.00000000000E+00 0. -1.
      99926    2    1    2    0    0  0.71054273576E-14  0.00000000000E+00  0.11214580463E+03  0.46662786235E+03  0.45295130028E+03 0.  0.
      99925    2    3    3    0    0  0.39522153807E+02 -0.69093933994E+02  0.15050554652E+03  0.31347777174E+03  0.26321174268E+03 0.  0.
         25    1    3    3    0    0 -0.39522153807E+02  0.69093933994E+02 -0.38359741886E+02  0.15315009061E+03  0.12509000000E+03 0.  0.
         25    1    4    4    0    0  0.48070317999E+02 -0.38328029427E+02  0.44142423744E+02  0.14620483913E+03  0.12509000000E+03 0.  0.
         25    1    4    4    0    0 -0.85481641924E+01 -0.30765904566E+02  0.10636312277E+03  0.16727293260E+03  0.12509000000E+03 0.  0.
<mgrwt>
<rscale>  2 0.45295130E+03</rscale>
<asrwt>0</asrwt>
<pdfrwt beam="1">  1       21 0.42556887E-01 0.45295130E+03</pdfrwt>
<pdfrwt beam="2">  1       21 0.26064857E-01 0.45295130E+03</pdfrwt>
<totfact> 0.68798713E+04</totfact>
</mgrwt>
</event>
<event>
 7    0  0.4831799E-002  0.4511720E+03  0.7546771E-02  0.1027373E+00
         21   -1    0    0  502  501  0.00000000000E+00  0.00000000000E+00  0.70651300652E+02  0.70651300652E+02  0.00000000000E+00 0.  1.
         21   -1    0    0  501  502 -0.00000000000E+00 -0.00000000000E+00 -0.72028453781E+03  0.72028453781E+03  0.00000000000E+00 0.  1.
      99926    2    1    2    0    0  0.00000000000E+00  0.00000000000E+00 -0.64963323716E+03  0.79093583846E+03  0.45117198244E+03 0.  0.
      99925    2    3    3    0    0  0.42777578184E+02 -0.19475549896E+02 -0.23699249350E+03  0.35719731162E+03  0.26308793058E+03 0.  0.
         25    1    3    3    0    0 -0.42777578184E+02  0.19475549896E+02 -0.41264074366E+03  0.43373852684E+03  0.12509000000E+03 0.  0.
         25    1    4    4    0    0 -0.14978919824E+02 -0.25278160790E+02 -0.12861994534E+03  0.18180745829E+03  0.12509000000E+03 0.  0.
         25    1    4    4    0    0  0.57756498008E+02  0.58026108940E+01 -0.10837254816E+03  0.17538985333E+03  0.12509000000E+03 0.  0.
<mgrwt>
<rscale>  2 0.45117198E+03</rscale>
<asrwt>0</asrwt>
<pdfrwt beam="1">  1       21 0.10389898E-01 0.45117198E+03</pdfrwt>
<pdfrwt beam="2">  1       21 0.10592419E+00 0.45117198E+03</pdfrwt>
<totfact> 0.49682293E+04</totfact>
</mgrwt>
</event>
<event>
 7    0  0.4831799E-002  0.4476327E+03  0.7546771E-02  0.1028430E+00
         21   -1    0    0  502  501  0.00000000000E+00  0.00000000000E+00  0.24787813932E+03  0.24787813932E+03  0.00000000000E+00 0. -1.
         21   -1    0    0  501  502 -0.00000000000E+00 -0.00000000000E+00 -0.20209026071E+03  0.20209026071E+03  0.00000000000E+00 0. -1.
      99926    2    1    2    0    0  0.00000000000E+00  0.35527136788E-14  0.45787878610E+02  0.44996840002E+03  0.44763269674E+03 0.  0.
      99925    2    3    3    0    0 -0.60667160141E+02  0.24720914711E+02  0.11277785066E+03  0.29367766965E+03  0.26312753963E+03 0.  0.
         25    1    3    3    0    0  0.60667160141E+02 -0.24720914711E+02 -0.66989972052E+02  0.15629073037E+03  0.12509000000E+03 0.  0.
         25    1    4    4    0    0 -0.61025863593E+02  0.39903882994E+01  0.30546479106E+02  0.14255060404E+03  0.12509000000E+03 0.  0.
         25    1    4    4    0    0  0.35870345224E+00  0.20730526412E+02  0.82231371556E+02  0.15112706562E+03  0.12509000000E+03 0.  0.
<mgrwt>
<rscale>  2 0.44763270E+03</rscale>
<asrwt>0</asrwt>
<pdfrwt beam="1">  1       21 0.36452668E-01 0.44763270E+03</pdfrwt>
<pdfrwt beam="2">  1       21 0.29719156E-01 0.44763270E+03</pdfrwt>
<totfact> 0.73120407E+04</totfact>
</mgrwt>
</event>
<event>
 7    0  0.4831799E-002  0.4511210E+03  0.7546771E-02  0.1027388E+00
         21   -1    0    0  502  501  0.00000000000E+00  0.00000000000E+00  0.25192593998E+03  0.25192593998E+03  0.00000000000E+00 0. -1.
         21   -1    0    0  501  502 -0.00000000000E+00 -0.00000000000E+00 -0.20195433542E+03  0.20195433542E+03  0.00000000000E+00 0. -1.
      99926    2    1    2    0    0  0.00000000000E+00  0.00000000000E+00  0.49971604555E+02  0.45388027540E+03  0.45112098503E+03 0.  0.
      99925    2    3    3    0    0  0.31008683085E+02 -0.90058836735E+02  0.85910561207E+02  0.29260024190E+03  0.26298696647E+03 0.  0.
         25    1    4    4    0    0  0.44803938638E+02 -0.39934132684E+02  0.14587425562E+02  0.13950780966E+03  0.12509000000E+03 0.  0.
         25    1    4    4    0    0 -0.13795255553E+02 -0.50124704051E+02  0.71323135645E+02  0.15309243224E+03  0.12509000000E+03 0.  0.
         25    1    3    3    0    0 -0.31008683085E+02  0.90058836735E+02 -0.35938956652E+02  0.16128003350E+03  0.12509000000E+03 0.  0.
<mgrwt>
<rscale>  2 0.45112099E+03</rscale>
<asrwt>0</asrwt>
<pdfrwt beam="1">  1       21 0.37047932E-01 0.45112099E+03</pdfrwt>
<pdfrwt beam="2">  1       21 0.29699167E-01 0.45112099E+03</pdfrwt>
<totfact> 0.70793565E+04</totfact>
</mgrwt>
</event>
<event>
 7    0  0.4831799E-002  0.4417163E+03  0.7546771E-02  0.1030222E+00
         21   -1    0    0  502  501  0.00000000000E+00  0.00000000000E+00  0.59998029542E+02  0.59998029542E+02  0.00000000000E+00 0. -1.
         21   -1    0    0  501  502 -0.00000000000E+00 -0.00000000000E+00 -0.81299887138E+03  0.81299887138E+03  0.00000000000E+00 0. -1.
      99926    2    1    2    0    0 -0.71054273576E-14  0.00000000000E+00 -0.75300084183E+03  0.87299690092E+03  0.44171633568E+03 0.  0.
      99925    2    3    3    0    0 -0.55035948849E+02 -0.80011489254E+02 -0.52694192957E+03  0.59698796267E+03  0.26324140320E+03 0.  0.
         25    1    3    3    0    0  0.55035948849E+02  0.80011489254E+02 -0.22605891226E+03  0.27600893825E+03  0.12509000000E+03 0.  0.
         25    1    4    4    0    0 -0.47153244372E+02 -0.73105401127E+02 -0.24739331646E+03  0.29054911677E+03  0.12509000000E+03 0.  0.
         25    1    4    4    0    0 -0.78827044769E+01 -0.69060881272E+01 -0.27954861312E+03  0.30643884590E+03  0.12509000000E+03 0.  0.
<mgrwt>
<rscale>  2 0.44171634E+03</rscale>
<asrwt>0</asrwt>
<pdfrwt beam="1">  1       21 0.88232400E-02 0.44171634E+03</pdfrwt>
<pdfrwt beam="2">  1       21 0.11955865E+00 0.44171634E+03</pdfrwt>
<totfact> 0.49360324E+04</totfact>
</mgrwt>
</event>
<event>
 7    0  0.4831799E-002  0.4544579E+03  0.7546771E-02  0.1026401E+00
         21   -1    0    0  502  501  0.00000000000E+00  0.00000000000E+00  0.20986715051E+03  0.20986715051E+03  0.00000000000E+00 0.  1.
         21   -1    0    0  501  502 -0.00000000000E+00 -0.00000000000E+00 -0.24602702828E+03  0.24602702828E+03  0.00000000000E+00 0.  1.
      99926    2    1    2    0    0  0.00000000000E+00  0.17763568394E-14 -0.36159877776E+02  0.45589417879E+03  0.45445788088E+03 0.  0.
      99925    2    3    3    0    0  0.87398446697E+02  0.14665444880E+02  0.46668357850E+02  0.28164840846E+03  0.26323815568E+03 0.  0.
         25    1    4    4    0    0  0.62205198859E+02 -0.12055571391E+02 -0.76150153382E+01  0.14042905727E+03  0.12509000000E+03 0.  0.
         25    1    4    4    0    0  0.25193247838E+02  0.26721016271E+02  0.54283373188E+02  0.14121935119E+03  0.12509000000E+03 0.  0.
         25    1    3    3    0    0 -0.87398446697E+02 -0.14665444880E+02 -0.82828235626E+02  0.17424577032E+03  0.12509000000E+03 0.  0.
<mgrwt>
<rscale>  2 0.45445788E+03</rscale>
<asrwt>0</asrwt>
<pdfrwt beam="1">  1       21 0.30862816E-01 0.45445788E+03</pdfrwt>
<pdfrwt beam="2">  1       21 0.36180445E-01 0.45445788E+03</pdfrwt>
<totfact> 0.68777377E+04</totfact>
</mgrwt>
</event>
<event>
 7    0  0.4831799E-002  0.4559396E+03  0.7546771E-02  0.1025965E+00
         21   -1    0    0  502  501  0.00000000000E+00  0.00000000000E+00  0.64439154492E+03  0.64439154492E+03  0.00000000000E+00 0.  1.
         21   -1    0    0  501  502 -0.00000000000E+00 -0.00000000000E+00 -0.80650094563E+02  0.80650094563E+02  0.00000000000E+00 0.  1.
      99926    2    1    2    0    0  0.00000000000E+00  0.00000000000E+00  0.56374145036E+03  0.72504163949E+03  0.45593964089E+03 0.  0.
      99925    2    3    3    0    0  0.55010593641E+02  0.96452761988E+02  0.39627779200E+03  0.48835432323E+03  0.26291549188E+03 0.  0.
         25    1    4    4    0    0  0.57092917275E+02  0.77226937575E+02  0.24114297269E+03  0.28813372324E+03  0.12509000000E+03 0.  0.
         25    1    4    4    0    0 -0.20823236339E+01  0.19225824413E+02  0.15513481931E+03  0.20022059999E+03  0.12509000000E+03 0.  0.
         25    1    3    3    0    0 -0.55010593641E+02 -0.96452761988E+02  0.16746365836E+03  0.23668731626E+03  0.12509000000E+03 0.  0.
<mgrwt>
<rscale>  2 0.45593964E+03</rscale>
<asrwt>0</asrwt>
<pdfrwt beam="1">  1       21 0.94763460E-01 0.45593964E+03</pdfrwt>
<pdfrwt beam="2">  1       21 0.11860308E-01 0.45593964E+03</pdfrwt>
<totfact> 0.51185102E+04</totfact>
</mgrwt>
</event>
<event>
 7    0  0.4831799E-002  0.4585674E+03  0.7546771E-02  0.1025198E+00
         21   -1    0    0  502  501  0.00000000000E+00  0.00000000000E+00  0.81412586214E+02  0.81412586214E+02  0.00000000000E+00 0.  1.
         21   -1    0    0  501  502 -0.00000000000E+00 -0.00000000000E+00 -0.64573581928E+03  0.64573581928E+03  0.00000000000E+00 0.  1.
      99926    2    1    2    0    0 -0.35527136788E-14  0.14210854715E-13 -0.56432323306E+03  0.72714840549E+03  0.45856743477E+03 0.  0.
      99925    2    3    3    0    0  0.16462234724E+02 -0.11521709588E+03 -0.36288481562E+03  0.46300653362E+03  0.26295185189E+03 0.  0.
         25    1    4    4    0    0 -0.18179918153E+01 -0.31019639935E+02 -0.21707039708E+03  0.25245314129E+03  0.12509000000E+03 0.  0.
         25    1    3    3    0    0 -0.16462234724E+02  0.11521709588E+03 -0.20143841744E+03  0.26414187187E+03  0.12509000000E+03 0.  0.
         25    1    4    4    0    0  0.18280226539E+02 -0.84197455941E+02 -0.14581441854E+03  0.21055339233E+03  0.12509000000E+03 0.  0.
<mgrwt>
<rscale>  2 0.45856743E+03</rscale>
<asrwt>0</asrwt>
<pdfrwt beam="1">  1       21 0.11972439E-01 0.45856743E+03</pdfrwt>
<pdfrwt beam="2">  1       21 0.94961147E-01 0.45856743E+03</pdfrwt>
<totfact> 0.50035106E+04</totfact>
</mgrwt>
</event>
<event>
 7    0  0.4831799E-002  0.4511141E+03  0.7546771E-02  0.1027390E+00
         21   -1    0    0  502  501  0.00000000000E+00  0.00000000000E+00  0.29755204628E+03  0.29755204628E+03  0.00000000000E+00 0.  1.
         21   -1    0    0  501  502 -0.00000000000E+00 -0.00000000000E+00 -0.17098178924E+03  0.17098178924E+03  0.00000000000E+00 0.  1.
      99926    2    1    2    0    0  0.00000000000E+00 -0.35527136788E-14  0.12657025703E+03  0.46853383552E+03  0.45111409318E+03 0.  0.
      99925    2    3    3    0    0  0.45701780872E+02  0.29508108579E+02  0.17710719274E+03  0.32306606858E+03  0.26466081256E+03 0.  0.
         25    1    4    4    0    0  0.29238010589E+02  0.44261297850E+01  0.13805844372E+03  0.18863216552E+03  0.12509000000E+03 0.  0.
         25    1    3    3    0    0 -0.45701780872E+02 -0.29508108579E+02 -0.50536935709E+02  0.14546776694E+03  0.12509000000E+03 0.  0.
         25    1    4    4    0    0  0.16463770283E+02  0.25081978794E+02  0.39048749025E+02  0.13443390306E+03  0.12509000000E+03 0.  0.
<mgrwt>
<rscale>  2 0.45111409E+03</rscale>
<asrwt>0</asrwt>
<pdfrwt beam="1">  1       21 0.43757654E-01 0.45111409E+03</pdfrwt>
<pdfrwt beam="2">  1       21 0.25144381E-01 0.45111409E+03</pdfrwt>
<totfact> 0.69668058E+04</totfact>
</mgrwt>
</event>
<event>
 7    0  0.4831799E-002  0.4553853E+03  0.7546771E-02  0.1026128E+00
         21   -1    0    0  502  501  0.00000000000E+00  0.00000000000E+00  0.14505099557E+03  0.14505099557E+03  0.00000000000E+00 0. -1.
         21   -1    0    0  501  502 -0.00000000000E+00 -0.00000000000E+00 -0.35741879533E+03  0.35741879533E+03  0.00000000000E+00 0. -1.
      99926    2    1    2    0    0  0.00000000000E+00 -0.35527136788E-14 -0.21236779975E+03  0.50246979090E+03  0.45538534056E+03 0.  0.
      99925    2    3    3    0    0 -0.10014711627E+03 -0.14865842714E+02 -0.76962772782E+02  0.29215462833E+03  0.26302209087E+03 0.  0.
         25    1    4    4    0    0 -0.46241815680E+02 -0.45716258866E+02 -0.25233596108E+02  0.14322194076E+03  0.12509000000E+03 0.  0.
         25    1    3    3    0    0  0.10014711627E+03  0.14865842714E+02 -0.13540502697E+03  0.21031516257E+03  0.12509000000E+03 0.  0.
         25    1    4    4    0    0 -0.53905300594E+02  0.30850416152E+02 -0.51729176674E+02  0.14893268758E+03  0.12509000000E+03 0.  0.
<mgrwt>
<rscale>  2 0.45538534E+03</rscale>
<asrwt>0</asrwt>
<pdfrwt beam="1">  1       21 0.21331029E-01 0.45538534E+03</pdfrwt>
<pdfrwt beam="2">  1       21 0.52561587E-01 0.45538534E+03</pdfrwt>
<totfact> 0.64898763E+04</totfact>
</mgrwt>
</event>
<event>
 7    0  0.4831799E-002  0.4554310E+03  0.7546771E-02  0.1026115E+00
         21   -1    0    0  502  501  0.00000000000E+00  0.00000000000E+00  0.12230743413E+04  0.12230743413E+04  0.00000000000E+00 0.  1.
         21   -1    0    0  501  502 -0.00000000000E+00 -0.00000000000E+00 -0.42396722876E+02  0.42396722876E+02  0.00000000000E+00 0.  1.
      99926    2    1    2    0    0  0.00000000000E+00 -0.71054273576E-14  0.11806776185E+04  0.12654710642E+04  0.45543097790E+03 0.  0.
      99925    2    3    3    0    0  0.81276114309E+02  0.44567994285E+02  0.56023582843E+03  0.62579330488E+03  0.26298472218E+03 0.  0.
         25    1    4    4    0    0 -0.25769374732E+00  0.98134171957E+01  0.25864388178E+03  0.28747266869E+03  0.12509000000E+03 0.  0.
         25    1    3    3    0    0 -0.81276114309E+02 -0.44567994285E+02  0.62044179003E+03  0.63967775934E+03  0.12509000000E+03 0.  0.
         25    1    4    4    0    0  0.81533808056E+02  0.34754577090E+02  0.30159194665E+03  0.33832063619E+03  0.12509000000E+03 0.  0.
<mgrwt>
<rscale>  2 0.45543098E+03</rscale>
<asrwt>0</asrwt>
<pdfrwt beam="1">  1       21 0.17986385E+00 0.45543098E+03</pdfrwt>
<pdfrwt beam="2">  1       21 0.62348130E-02 0.45543098E+03</pdfrwt>
<totfact> 0.30033338E+04</totfact>
</mgrwt>
</event>
<event>
 7    0  0.4831799E-002  0.4550074E+03  0.7546771E-02  0.1026239E+00
         21   -1    0    0  502  501  0.00000000000E+00  0.00000000000E+00  0.95794411348E+02  0.95794411348E+02  0.00000000000E+00 0. -1.
         21   -1    0    0  501  502 -0.00000000000E+00 -0.00000000000E+00 -0.54030215933E+03  0.54030215933E+03  0.00000000000E+00 0. -1.
      99926    2    1    2    0    0 -0.88817841970E-15  0.00000000000E+00 -0.44450774798E+03  0.63609657068E+03  0.45500737270E+03 0.  0.
      99925    2    3    3    0    0  0.72452143728E+01 -0.32377507938E+02 -0.12859381207E+03  0.29470248878E+03  0.26308248182E+03 0.  0.
         25    1    4    4    0    0 -0.10901558613E+02 -0.53822806063E+02 -0.58799804356E+02  0.14873017019E+03  0.12509000000E+03 0.  0.
         25    1    3    3    0    0 -0.72452143728E+01  0.32377507938E+02 -0.31591393592E+03  0.34139408190E+03  0.12509000000E+03 0.  0.
         25    1    4    4    0    0  0.18146772986E+02  0.21445298125E+02 -0.69794007712E+02  0.14597231859E+03  0.12509000000E+03 0.  0.
<mgrwt>
<rscale>  2 0.45500737E+03</rscale>
<asrwt>0</asrwt>
<pdfrwt beam="1">  1       21 0.14087413E-01 0.45500737E+03</pdfrwt>
<pdfrwt beam="2">  1       21 0.79456200E-01 0.45500737E+03</pdfrwt>
<totfact> 0.56506370E+04</totfact>
</mgrwt>
</event>
<event>
 7    0  0.4831799E-002  0.4570058E+03  0.7546771E-02  0.1025653E+00
         21   -1    0    0  502  501  0.00000000000E+00  0.00000000000E+00  0.15333376266E+03  0.15333376266E+03  0.00000000000E+00 0. -1.
         21   -1    0    0  501  502 -0.00000000000E+00 -0.00000000000E+00 -0.34052236713E+03  0.34052236713E+03  0.00000000000E+00 0. -1.
      99926    2    1    2    0    0  0.00000000000E+00  0.00000000000E+00 -0.18718860447E+03  0.49385612979E+03  0.45700580225E+03 0.  0.
      99925    2    3    3    0    0  0.93290378449E+02 -0.55110084613E+02 -0.15943793561E+03  0.32605319817E+03  0.26296390739E+03 0.  0.
         25    1    3    3    0    0 -0.93290378449E+02  0.55110084613E+02 -0.27750668862E+02  0.16780293162E+03  0.12509000000E+03 0.  0.
         25    1    4    4    0    0  0.77435993061E+02 -0.52106862942E+01 -0.65721325354E+02  0.16121502715E+03  0.12509000000E+03 0.  0.
         25    1    4    4    0    0  0.15854385388E+02 -0.49899398319E+02 -0.93716610254E+02  0.16483817102E+03  0.12509000000E+03 0.  0.
<mgrwt>
<rscale>  2 0.45700580E+03</rscale>
<asrwt>0</asrwt>
<pdfrwt beam="1">  1       21 0.22549083E-01 0.45700580E+03</pdfrwt>
<pdfrwt beam="2">  1       21 0.50076818E-01 0.45700580E+03</pdfrwt>
<totfact> 0.64668582E+04</totfact>
</mgrwt>
</event>
<event>
 6    0  0.4831799E-002  0.4550290E+03  0.7546771E-02  0.1026233E+00
         21   -1    0    0  502  501  0.00000000000E+00  0.00000000000E+00  0.37442761628E+03  0.37442761628E+03  0.00000000000E+00 0. -1.
         21   -1    0    0  501  502 -0.00000000000E+00 -0.00000000000E+00 -0.13824525695E+03  0.13824525695E+03  0.00000000000E+00 0. -1.
      99926    2    1    2    0    0  0.00000000000E+00  0.00000000000E+00  0.23618235932E+03  0.51267287323E+03  0.45502897500E+03 0.  0.
         25    1    3    3    0    0  0.10280473606E+03  0.24572408499E+02  0.51571927718E+02  0.17169679334E+03  0.12509000000E+03 0.  0.
         25    1    3    3    0    0 -0.69615004785E+02 -0.51436297160E+02  0.76786366653E+02  0.17039834436E+03  0.12509000000E+03 0.  0.
         25    1    3    3    0    0 -0.33189731272E+02  0.26863888660E+02  0.10782406495E+03  0.17057773553E+03  0.12509000000E+03 0.  0.
<mgrwt>
<rscale>  2 0.45502898E+03</rscale>
<asrwt>0</asrwt>
<pdfrwt beam="1">  1       21 0.55062885E-01 0.45502898E+03</pdfrwt>
<pdfrwt beam="2">  1       21 0.20330185E-01 0.45502898E+03</pdfrwt>
<totfact> 0.64374409E+04</totfact>
</mgrwt>
</event>
<event>
 7    0  0.4831799E-002  0.4551405E+03  0.7546771E-02  0.1026200E+00
         21   -1    0    0  502  501  0.00000000000E+00  0.00000000000E+00  0.33841811757E+03  0.33841811757E+03  0.00000000000E+00 0.  1.
         21   -1    0    0  501  502 -0.00000000000E+00 -0.00000000000E+00 -0.15303029895E+03  0.15303029895E+03  0.00000000000E+00 0.  1.
      99926    2    1    2    0    0 -0.14210854715E-13  0.88817841970E-15  0.18538781862E+03  0.49144841652E+03  0.45514053083E+03 0.  0.
      99925    2    3    3    0    0 -0.10301756262E+03  0.75803518179E+01  0.66572538801E+02  0.29036470569E+03  0.26307732598E+03 0.  0.
         25    1    4    4    0    0 -0.90321318288E+02  0.91358820401E+01  0.18155798687E+02  0.15562308956E+03  0.12509000000E+03 0.  0.
         25    1    3    3    0    0  0.10301756262E+03 -0.75803518179E+01  0.11881527982E+03  0.20108371083E+03  0.12509000000E+03 0.  0.
         25    1    4    4    0    0 -0.12696244336E+02 -0.15555302223E+01  0.48416740114E+02  0.13474161613E+03  0.12509000000E+03 0.  0.
<mgrwt>
<rscale>  2 0.45514053E+03</rscale>
<asrwt>0</asrwt>
<pdfrwt beam="1">  1       21 0.49767370E-01 0.45514053E+03</pdfrwt>
<pdfrwt beam="2">  1       21 0.22504456E-01 0.45514053E+03</pdfrwt>
<totfact> 0.65802265E+04</totfact>
</mgrwt>
</event>
<event>
 7    0  0.4831799E-002  0.4575054E+03  0.7546771E-02  0.1025507E+00
         21   -1    0    0  502  501  0.00000000000E+00  0.00000000000E+00  0.19302948286E+03  0.19302948286E+03  0.00000000000E+00 0. -1.
         21   -1    0    0  501  502 -0.00000000000E+00 -0.00000000000E+00 -0.27108711429E+03  0.27108711429E+03  0.00000000000E+00 0. -1.
      99926    2    1    2    0    0 -0.14210854715E-13  0.00000000000E+00 -0.78057631433E+02  0.46411659715E+03  0.45750543377E+03 0.  0.
      99925    2    3    3    0    0  0.87536365452E+02  0.59478287143E+02 -0.95986039050E+02  0.29928572075E+03  0.26297973502E+03 0.  0.
         25    1    4    4    0    0  0.79412844193E+01  0.49458055706E+02 -0.50082429556E+02  0.14375298648E+03  0.12509000000E+03 0.  0.
         25    1    4    4    0    0  0.79595081033E+02  0.10020231436E+02 -0.45903609494E+02  0.15553273426E+03  0.12509000000E+03 0.  0.
         25    1    3    3    0    0 -0.87536365452E+02 -0.59478287143E+02  0.17928407617E+02  0.16483087641E+03  0.12509000000E+03 0.  0.
<mgrwt>
<rscale>  2 0.45750543E+03</rscale>
<asrwt>0</asrwt>
<pdfrwt beam="1">  1       21 0.28386689E-01 0.45750543E+03</pdfrwt>
<pdfrwt beam="2">  1       21 0.39865752E-01 0.45750543E+03</pdfrwt>
<totfact> 0.66540553E+04</totfact>
</mgrwt>
</event>
<event>
 7    0  0.4831799E-002  0.4554084E+03  0.7546771E-02  0.1026121E+00
         21   -1    0    0  502  501  0.00000000000E+00  0.00000000000E+00  0.64649929300E+02  0.64649929300E+02  0.00000000000E+00 0. -1.
         21   -1    0    0  501  502 -0.00000000000E+00 -0.00000000000E+00 -0.80199954125E+03  0.80199954125E+03  0.00000000000E+00 0. -1.
      99926    2    1    2    0    0  0.00000000000E+00  0.00000000000E+00 -0.73734961195E+03  0.86664947055E+03  0.45540844806E+03 0.  0.
      99925    2    3    3    0    0 -0.47665760660E+02  0.39453588172E+02 -0.28223739008E+03  0.39062084436E+03  0.26286515427E+03 0.  0.
         25    1    3    3    0    0  0.47665760660E+02 -0.39453588172E+02 -0.45511222187E+03  0.47602862619E+03  0.12509000000E+03 0.  0.
         25    1    4    4    0    0 -0.26023167386E+02  0.12287581593E+02 -0.83120788476E+02  0.15292077517E+03  0.12509000000E+03 0.  0.
         25    1    4    4    0    0 -0.21642593274E+02  0.27166006578E+02 -0.19911660161E+03  0.23770006919E+03  0.12509000000E+03 0.  0.
<mgrwt>
<rscale>  2 0.45540845E+03</rscale>
<asrwt>0</asrwt>
<pdfrwt beam="1">  1       21 0.95073428E-02 0.45540845E+03</pdfrwt>
<pdfrwt beam="2">  1       21 0.11794111E+00 0.45540845E+03</pdfrwt>
<totfact> 0.44560503E+04</totfact>
</mgrwt>
</event>
<event>
 7    0  0.4831799E-002  0.4564163E+03  0.7546771E-02  0.1025826E+00
         21   -1    0    0  502  501  0.00000000000E+00  0.00000000000E+00  0.20230943664E+03  0.20230943664E+03  0.00000000000E+00 0.  1.
         21   -1    0    0  501  502 -0.00000000000E+00 -0.00000000000E+00 -0.25742224159E+03  0.25742224159E+03  0.00000000000E+00 0.  1.
      99926    2    1    2    0    0  0.00000000000E+00 -0.71054273576E-14 -0.55112804950E+02  0.45973167824E+03  0.45641625158E+03 0.  0.
      99925    2    3    3    0    0 -0.72121952351E+02  0.60644916570E+02  0.30406391648E+02  0.28129282876E+03  0.26329019150E+03 0.  0.
         25    1    4    4    0    0 -0.42644156246E+02  0.20410716429E+02 -0.24339856963E+02  0.13592298608E+03  0.12509000000E+03 0.  0.
         25    1    4    4    0    0 -0.29477796105E+02  0.40234200141E+02  0.54746248611E+02  0.14536984268E+03  0.12509000000E+03 0.  0.
         25    1    3    3    0    0  0.72121952351E+02 -0.60644916570E+02 -0.85519196598E+02  0.17843884948E+03  0.12509000000E+03 0.  0.
<mgrwt>
<rscale>  2 0.45641625E+03</rscale>
<asrwt>0</asrwt>
<pdfrwt beam="1">  1       21 0.29751388E-01 0.45641625E+03</pdfrwt>
<pdfrwt beam="2">  1       21 0.37856212E-01 0.45641625E+03</pdfrwt>
<totfact> 0.67435204E+04</totfact>
</mgrwt>
</event>
<event>
 7    0  0.4831799E-002  0.4594698E+03  0.7546771E-02  0.1024935E+00
         21   -1    0    0  502  501  0.00000000000E+00  0.00000000000E+00  0.10963210693E+03  0.10963210693E+03  0.00000000000E+00 0. -1.
         21   -1    0    0  501  502 -0.00000000000E+00 -0.00000000000E+00 -0.48141122543E+03  0.48141122543E+03  0.00000000000E+00 0. -1.
      99926    2    1    2    0    0  0.00000000000E+00  0.00000000000E+00 -0.37177911849E+03  0.59104333236E+03  0.45946981161E+03 0.  0.
      99925    2    3    3    0    0  0.29467827497E+02  0.74881988159E+02 -0.12324204681E+03  0.30139898301E+03  0.26301536049E+03 0.  0.
         25    1    4    4    0    0  0.24040186143E+02  0.57286965445E+02 -0.26414692375E+02  0.14214419099E+03  0.12509000000E+03 0.  0.
         25    1    4    4    0    0  0.54276413544E+01  0.17595022713E+02 -0.96827354431E+02  0.15925479202E+03  0.12509000000E+03 0.  0.
         25    1    3    3    0    0 -0.29467827497E+02 -0.74881988159E+02 -0.24853707169E+03  0.28964434935E+03  0.12509000000E+03 0.  0.
<mgrwt>
<rscale>  2 0.45946981E+03</rscale>
<asrwt>0</asrwt>
<pdfrwt beam="1">  1       21 0.16122369E-01 0.45946981E+03</pdfrwt>
<pdfrwt beam="2">  1       21 0.70795767E-01 0.45946981E+03</pdfrwt>
<totfact> 0.57185856E+04</totfact>
</mgrwt>
</event>
<event>
 7    0  0.4831799E-002  0.4476363E+03  0.7546771E-02  0.1028429E+00
         21   -1    0    0  502  501  0.00000000000E+00  0.00000000000E+00  0.76155870424E+02  0.76155870424E+02  0.00000000000E+00 0. -1.
         21   -1    0    0  501  502 -0.00000000000E+00 -0.00000000000E+00 -0.65778982438E+03  0.65778982438E+03  0.00000000000E+00 0. -1.
      99926    2    1    2    0    0  0.00000000000E+00  0.00000000000E+00 -0.58163395396E+03  0.73394569481E+03  0.44763626587E+03 0.  0.
      99925    2    3    3    0    0 -0.36512514509E+02  0.95826384235E+02 -0.32492609022E+03  0.43052800410E+03  0.26317587004E+03 0.  0.
         25    1    4    4    0    0  0.21728666751E+02  0.55714721352E+02 -0.15374156393E+03  0.20702715212E+03  0.12509000000E+03 0.  0.
         25    1    3    3    0    0  0.36512514509E+02 -0.95826384235E+02 -0.25670786373E+03  0.30341769071E+03  0.12509000000E+03 0.  0.
         25    1    4    4    0    0 -0.58241181259E+02  0.40111662884E+02 -0.17118452629E+03  0.22350085198E+03  0.12509000000E+03 0.  0.
<mgrwt>
<rscale>  2 0.44763627E+03</rscale>
<asrwt>0</asrwt>
<pdfrwt beam="1">  1       21 0.11199393E-01 0.44763627E+03</pdfrwt>
<pdfrwt beam="2">  1       21 0.96733798E-01 0.44763627E+03</pdfrwt>
<totfact> 0.54167122E+04</totfact>
</mgrwt>
</event>
<event>
 7    0  0.4831799E-002  0.4488391E+03  0.7546771E-02  0.1028069E+00
         21   -1    0    0  502  501  0.00000000000E+00  0.00000000000E+00  0.40847718903E+03  0.40847718903E+03  0.00000000000E+00 0.  1.
         21   -1    0    0  501  502 -0.00000000000E+00 -0.00000000000E+00 -0.12329731052E+03  0.12329731052E+03  0.00000000000E+00 0.  1.
      99926    2    1    2    0    0  0.00000000000E+00  0.71054273576E-14  0.28517987851E+03  0.53177449954E+03  0.44883911957E+03 0.  0.
      99925    2    3    3    0    0 -0.42608030451E+02 -0.49398210827E+02  0.79192381155E+02  0.28210675101E+03  0.26278728706E+03 0.  0.
         25    1    4    4    0    0 -0.26351451765E+02  0.14010086469E+02  0.49742011470E+02  0.13788566763E+03  0.12509000000E+03 0.  0.
         25    1    4    4    0    0 -0.16256578686E+02 -0.63408297296E+02  0.29450369685E+02  0.14422108338E+03  0.12509000000E+03 0.  0.
         25    1    3    3    0    0  0.42608030451E+02  0.49398210827E+02  0.20598749735E+03  0.24966774853E+03  0.12509000000E+03 0.  0.
<mgrwt>
<rscale>  2 0.44883912E+03</rscale>
<asrwt>0</asrwt>
<pdfrwt beam="1">  1       21 0.60070174E-01 0.44883912E+03</pdfrwt>
<pdfrwt beam="2">  1       21 0.18131958E-01 0.44883912E+03</pdfrwt>
<totfact> 0.66259786E+04</totfact>
</mgrwt>
</event>
<event>
 7    0  0.4831799E-002  0.4602566E+03  0.7546771E-02  0.1024707E+00
         21   -1    0    0  502  501  0.00000000000E+00  0.00000000000E+00  0.28314065381E+03  0.28314065381E+03  0.00000000000E+00 0.  1.
         21   -1    0    0  501  502 -0.00000000000E+00 -0.00000000000E+00 -0.18704144483E+03  0.18704144483E+03  0.00000000000E+00 0.  1.
      99926    2    1    2    0    0  0.00000000000E+00  0.00000000000E+00  0.96099208978E+02  0.47018209863E+03  0.46025661093E+03 0.  0.
      99925    2    3    3    0    0  0.89280923232E+02  0.64143074643E+02  0.16241602278E+02  0.28549273043E+03  0.26297698038E+03 0.  0.
         25    1    4    4    0    0  0.76448833831E+02  0.14383142536E+02 -0.10353258559E+02  0.14766853777E+03  0.12509000000E+03 0.  0.
         25    1    4    4    0    0  0.12832089401E+02  0.49759932107E+02  0.26594860837E+02  0.13782419267E+03  0.12509000000E+03 0.  0.
         25    1    3    3    0    0 -0.89280923232E+02 -0.64143074643E+02  0.79857606699E+02  0.18468936820E+03  0.12509000000E+03 0.  0.
<mgrwt>
<rscale>  2 0.46025661E+03</rscale>
<asrwt>0</asrwt>
<pdfrwt beam="1">  1       21 0.41638331E-01 0.46025661E+03</pdfrwt>
<pdfrwt beam="2">  1       21 0.27506095E-01 0.46025661E+03</pdfrwt>
<totfact> 0.64682037E+04</totfact>
</mgrwt>
</event>
<event>
 7    0  0.4831799E-002  0.4553442E+03  0.7546771E-02  0.1026140E+00
         21   -1    0    0  502  501  0.00000000000E+00  0.00000000000E+00  0.56365365065E+02  0.56365365065E+02  0.00000000000E+00 0. -1.
         21   -1    0    0  501  502 -0.00000000000E+00 -0.00000000000E+00 -0.91961769929E+03  0.91961769929E+03  0.00000000000E+00 0. -1.
      99926    2    1    2    0    0  0.00000000000E+00  0.14210854715E-13 -0.86325233422E+03  0.97598306435E+03  0.45534420976E+03 0.  0.
      99925    2    3    3    0    0 -0.28120094265E+02 -0.10891676063E+03 -0.57451186711E+03  0.64180920856E+03  0.26306192103E+03 0.  0.
         25    1    3    3    0    0  0.28120094265E+02  0.10891676063E+03 -0.28874046711E+03  0.33417385579E+03  0.12509000000E+03 0.  0.
         25    1    4    4    0    0  0.36675308385E+01 -0.25647193687E+02 -0.20366276575E+03  0.24041060621E+03  0.12509000000E+03 0.  0.
         25    1    4    4    0    0 -0.31787625103E+02 -0.83269566939E+02 -0.37084910136E+03  0.40139860235E+03  0.12509000000E+03 0.  0.
<mgrwt>
<rscale>  2 0.45534421E+03</rscale>
<asrwt>0</asrwt>
<pdfrwt beam="1">  1       21 0.82890242E-02 0.45534421E+03</pdfrwt>
<pdfrwt beam="2">  1       21 0.13523790E+00 0.45534421E+03</pdfrwt>
<totfact> 0.39998414E+04</totfact>
</mgrwt>
</event>
<event>
 7    0  0.4831799E-002  0.4709063E+03  0.7546771E-02  0.1021665E+00
         21   -1    0    0  502  501  0.00000000000E+00  0.00000000000E+00  0.28477473681E+03  0.28477473681E+03  0.00000000000E+00 0.  1.
         21   -1    0    0  501  502 -0.00000000000E+00 -0.00000000000E+00 -0.19467380744E+03  0.19467380744E+03  0.00000000000E+00 0.  1.
      99926    2    1    2    0    0  0.35527136788E-14  0.00000000000E+00  0.90100929375E+02  0.47944854425E+03  0.47090628485E+03 0.  0.
      99925    2    3    3    0    0  0.22428463507E+02  0.17537732080E+02 -0.70922225172E+02  0.27356854905E+03  0.26267695176E+03 0.  0.
         25    1    4    4    0    0 -0.13890137692E+02 -0.85707853624E+01 -0.75372638658E+01  0.12637528530E+03  0.12509000000E+03 0.  0.
         25    1    4    4    0    0  0.36318601199E+02  0.26108517442E+02 -0.63384961306E+02  0.14719326376E+03  0.12509000000E+03 0.  0.
         25    1    3    3    0    0 -0.22428463507E+02 -0.17537732080E+02  0.16102315455E+03  0.20587999520E+03  0.12509000000E+03 0.  0.
<mgrwt>
<rscale>  2 0.47090628E+03</rscale>
<asrwt>0</asrwt>
<pdfrwt beam="1">  1       21 0.41878638E-01 0.47090628E+03</pdfrwt>
<pdfrwt beam="2">  1       21 0.28628501E-01 0.47090628E+03</pdfrwt>
<totfact> 0.58938541E+04</totfact>
</mgrwt>
</event>
<event>
 7    0  0.4831799E-002  0.4540424E+03  0.7546771E-02  0.1026523E+00
         21   -1    0    0  502  501  0.00000000000E+00  0.00000000000E+00  0.78314364683E+03  0.78314364683E+03  0.00000000000E+00 0. -1.
         21   -1    0    0  501  502 -0.00000000000E+00 -0.00000000000E+00 -0.65809937301E+02  0.65809937301E+02  0.00000000000E+00 0. -1.
      99926    2    1    2    0    0  0.35527136788E-14  0.00000000000E+00  0.71733370953E+03  0.84895358414E+03  0.45404243985E+03 0.  0.
      99925    2    3    3    0    0 -0.16105837264E+02 -0.10700039129E+03  0.39565629371E+03  0.48724603696E+03  0.26297588493E+03 0.  0.
         25    1    4    4    0    0  0.22312987060E+02 -0.61140522562E+02  0.15533478771E+03  0.20979141371E+03  0.12509000000E+03 0.  0.
         25    1    4    4    0    0 -0.38418824324E+02 -0.45859868730E+02  0.24032150600E+03  0.27745462326E+03  0.12509000000E+03 0.  0.
         25    1    3    3    0    0  0.16105837264E+02  0.10700039129E+03  0.32167741582E+03  0.36170754717E+03  0.12509000000E+03 0.  0.
<mgrwt>
<rscale>  2 0.45404244E+03</rscale>
<asrwt>0</asrwt>
<pdfrwt beam="1">  1       21 0.11516818E+00 0.45404244E+03</pdfrwt>
<pdfrwt beam="2">  1       21 0.96779324E-02 0.45404244E+03</pdfrwt>
<totfact> 0.45829513E+04</totfact>
</mgrwt>
</event>
<event>
 7    0  0.4831799E-002  0.4429951E+03  0.7546771E-02  0.1029832E+00
         21   -1    0    0  502  501  0.00000000000E+00  0.00000000000E+00  0.16888910069E+03  0.16888910069E+03  0.00000000000E+00 0. -1.
         21   -1    0    0  501  502 -0.00000000000E+00 -0.00000000000E+00 -0.29049333537E+03  0.29049333537E+03  0.00000000000E+00 0. -1.
      99926    2    1    2    0    0  0.00000000000E+00  0.00000000000E+00 -0.12160423468E+03  0.45938243607E+03  0.44299507071E+03 0.  0.
      99925    2    3    3    0    0 -0.46201965458E+02 -0.71210389810E+02 -0.13505257569E+03  0.30761317961E+03  0.26302305762E+03 0.  0.
         25    1    3    3    0    0  0.46201965458E+02  0.71210389810E+02  0.13448341012E+02  0.15176925646E+03  0.12509000000E+03 0.  0.
         25    1    4    4    0    0 -0.17123160759E+02 -0.40848514632E+02 -0.23391801232E+02  0.13474601384E+03  0.12509000000E+03 0.  0.
         25    1    4    4    0    0 -0.29078804698E+02 -0.30361875178E+02 -0.11166077446E+03  0.17286716577E+03  0.12509000000E+03 0.  0.
<mgrwt>
<rscale>  2 0.44299507E+03</rscale>
<asrwt>0</asrwt>
<pdfrwt beam="1">  1       21 0.24836632E-01 0.44299507E+03</pdfrwt>
<pdfrwt beam="2">  1       21 0.42719608E-01 0.44299507E+03</pdfrwt>
<totfact> 0.75138202E+04</totfact>
</mgrwt>
</event>
<event>
 7    0  0.4831799E-002  0.4521253E+03  0.7546771E-02  0.1027090E+00
         21   -1    0    0  502  501  0.00000000000E+00  0.00000000000E+00  0.15189603550E+04  0.15189603550E+04  0.00000000000E+00 0.  1.
         21   -1    0    0  501  502 -0.00000000000E+00 -0.00000000000E+00 -0.33644277810E+02  0.33644277810E+02  0.00000000000E+00 0.  1.
      99926    2    1    2    0    0  0.00000000000E+00  0.00000000000E+00  0.14853160772E+04  0.15526046328E+04  0.45212531079E+03 0.  0.
      99925    2    3    3    0    0 -0.14699576855E+02  0.10548612470E+03  0.10368532268E+04  0.10749961777E+04  0.26307559405E+03 0.  0.
         25    1    4    4    0    0  0.27144932401E+02  0.34021355920E+02  0.53879396261E+03  0.55483397720E+03  0.12509000000E+03 0.  0.
         25    1    3    3    0    0  0.14699576855E+02 -0.10548612470E+03  0.44846285040E+03  0.47760845507E+03  0.12509000000E+03 0.  0.
         25    1    4    4    0    0 -0.41844509256E+02  0.71464768782E+02  0.49805926416E+03  0.52016220052E+03  0.12509000000E+03 0.  0.
<mgrwt>
<rscale>  2 0.45212531E+03</rscale>
<asrwt>0</asrwt>
<pdfrwt beam="1">  1       21 0.22337648E+00 0.45212531E+03</pdfrwt>
<pdfrwt beam="2">  1       21 0.49476889E-02 0.45212531E+03</pdfrwt>
<totfact> 0.23028711E+04</totfact>
</mgrwt>
</event>
<event>
 7    0  0.5155597E-002  0.4167744E+03  0.7546771E-02  0.1038121E+00
         21   -1    0    0  502  501  0.00000000000E+00  0.00000000000E+00  0.22471744105E+03  0.22471744105E+03  0.00000000000E+00 0.  1.
         21   -1    0    0  501  502 -0.00000000000E+00 -0.00000000000E+00 -0.19324371807E+03  0.19324371807E+03  0.00000000000E+00 0.  1.
      99926    2    1    2    0    0  0.00000000000E+00  0.00000000000E+00  0.31473722974E+02  0.41796115912E+03  0.41677444175E+03 0.  0.
      99925    2    3    3    0    0 -0.67361184559E+02 -0.19216098611E+02  0.31557599416E+02  0.27459344042E+03  0.26362641713E+03 0.  0.
         25    1    4    4    0    0 -0.65577485183E+02 -0.23246803354E+01 -0.10211334487E+02  0.14162482181E+03  0.12509000000E+03 0.  0.
         25    1    3    3    0    0  0.67361184559E+02  0.19216098611E+02 -0.83876441798E-01  0.14336771870E+03  0.12509000000E+03 0.  0.
         25    1    4    4    0    0 -0.17836993755E+01 -0.16891418275E+02  0.41768933903E+02  0.13296861861E+03  0.12509000000E+03 0.  0.
<mgrwt>
<rscale>  2 0.41677444E+03</rscale>
<asrwt>0</asrwt>
<pdfrwt beam="1">  1       21 0.33046683E-01 0.41677444E+03</pdfrwt>
<pdfrwt beam="2">  1       21 0.28418194E-01 0.41677444E+03</pdfrwt>
<totfact> 0.97997036E+04</totfact>
</mgrwt>
</event>
<event>
 7    0  0.4831799E-002  0.4894190E+03  0.7546771E-02  0.1016578E+00
         21   -1    0    0  502  501  0.00000000000E+00  0.00000000000E+00  0.19263696120E+03  0.19263696120E+03  0.00000000000E+00 0.  1.
         21   -1    0    0  501  502 -0.00000000000E+00 -0.00000000000E+00 -0.31085801124E+03  0.31085801124E+03  0.00000000000E+00 0.  1.
      99926    2    1    2    0    0  0.00000000000E+00  0.88817841970E-15 -0.11822105004E+03  0.50349497244E+03  0.48941901331E+03 0.  0.
      99925    2    3    3    0    0  0.14111096500E+03 -0.48477582948E+01 -0.95840173398E+02  0.31353651134E+03  0.26302851538E+03 0.  0.
         25    1    3    3    0    0 -0.14111096500E+03  0.48477582948E+01 -0.22380876645E+02  0.18995846110E+03  0.12509000000E+03 0.  0.
         25    1    4    4    0    0  0.73346656983E+02 -0.12144038372E+02 -0.89722180185E+02  0.17095258839E+03  0.12509000000E+03 0.  0.
         25    1    4    4    0    0  0.67764308014E+02  0.72962800769E+01 -0.61179932127E+01  0.14258392295E+03  0.12509000000E+03 0.  0.
<mgrwt>
<rscale>  2 0.48941901E+03</rscale>
<asrwt>0</asrwt>
<pdfrwt beam="1">  1       21 0.28328965E-01 0.48941901E+03</pdfrwt>
<pdfrwt beam="2">  1       21 0.45714413E-01 0.48941901E+03</pdfrwt>
<totfact> 0.49923326E+04</totfact>
</mgrwt>
</event>
<event>
 7    0  0.4831799E-002  0.4508209E+03  0.7546771E-02  0.1027478E+00
         21   -1    0    0  502  501  0.00000000000E+00  0.00000000000E+00  0.16090583535E+03  0.16090583535E+03  0.00000000000E+00 0.  1.
         21   -1    0    0  501  502 -0.00000000000E+00 -0.00000000000E+00 -0.31577388892E+03  0.31577388892E+03  0.00000000000E+00 0.  1.
      99926    2    1    2    0    0 -0.14210854715E-13  0.00000000000E+00 -0.15486805357E+03  0.47667972427E+03  0.45082085745E+03 0.  0.
      99925    2    3    3    0    0  0.94900694732E+02  0.48947012193E+01 -0.40836309703E+02  0.28256417448E+03  0.26295400462E+03 0.  0.
         25    1    3    3    0    0 -0.94900694732E+02 -0.48947012193E+01 -0.11403174387E+03  0.19411554979E+03  0.12509000000E+03 0.  0.
         25    1    4    4    0    0  0.70367132257E+02  0.10548252685E+02  0.12104609527E+02  0.14441893438E+03  0.12509000000E+03 0.  0.
         25    1    4    4    0    0  0.24533562475E+02 -0.56535514654E+01 -0.52940919230E+02  0.13814524009E+03  0.12509000000E+03 0.  0.
<mgrwt>
<rscale>  2 0.45082086E+03</rscale>
<asrwt>0</asrwt>
<pdfrwt beam="1">  1       21 0.23662623E-01 0.45082086E+03</pdfrwt>
<pdfrwt beam="2">  1       21 0.46437336E-01 0.45082086E+03</pdfrwt>
<totfact> 0.69210000E+04</totfact>
</mgrwt>
</event>
<event>
 7    0  0.4831799E-002  0.4617175E+03  0.7546771E-02  0.1024284E+00
         21   -1    0    0  502  501  0.00000000000E+00  0.00000000000E+00  0.59846817101E+02  0.59846817101E+02  0.00000000000E+00 0.  1.
         21   -1    0    0  501  502 -0.00000000000E+00 -0.00000000000E+00 -0.89053630322E+03  0.89053630322E+03  0.00000000000E+00 0.  1.
      99926    2    1    2    0    0  0.00000000000E+00  0.00000000000E+00 -0.83068948612E+03  0.95038312032E+03  0.46171750351E+03 0.  0.
      99925    2    3    3    0    0 -0.96603484056E+02  0.52760272741E+02 -0.61520255691E+03  0.67799001418E+03  0.26283149315E+03 0.  0.
         25    1    4    4    0    0 -0.49600042059E+02  0.66989543300E+02 -0.31068266166E+03  0.34513618680E+03  0.12509000000E+03 0.  0.
         25    1    3    3    0    0  0.96603484056E+02 -0.52760272741E+02 -0.21548692922E+03  0.27239310614E+03  0.12509000000E+03 0.  0.
         25    1    4    4    0    0 -0.47003441997E+02 -0.14229270559E+02 -0.30451989525E+03  0.33285382738E+03  0.12509000000E+03 0.  0.
<mgrwt>
<rscale>  2 0.46171750E+03</rscale>
<asrwt>0</asrwt>
<pdfrwt beam="1">  1       21 0.88010029E-02 0.46171750E+03</pdfrwt>
<pdfrwt beam="2">  1       21 0.13096122E+00 0.46171750E+03</pdfrwt>
<totfact> 0.39034136E+04</totfact>
</mgrwt>
</event>
<event>
 7    0  0.4831799E-002  0.4549142E+03  0.7546771E-02  0.1026267E+00
         21   -1    0    0  502  501  0.00000000000E+00  0.00000000000E+00  0.13770757634E+03  0.13770757634E+03  0.00000000000E+00 0. -1.
         21   -1    0    0  501  502 -0.00000000000E+00 -0.00000000000E+00 -0.37569993237E+03  0.37569993237E+03  0.00000000000E+00 0. -1.
      99926    2    1    2    0    0  0.00000000000E+00  0.00000000000E+00 -0.23799235603E+03  0.51340750870E+03  0.45491417703E+03 0.  0.
      99925    2    3    3    0    0 -0.82539567391E+02 -0.65047401634E+02 -0.10185745495E+03  0.30074777101E+03  0.26273624796E+03 0.  0.
         25    1    3    3    0    0  0.82539567391E+02  0.65047401634E+02 -0.13613490108E+03  0.21265973769E+03  0.12509000000E+03 0.  0.
         25    1    4    4    0    0 -0.51346317090E+02 -0.12148759490E+02 -0.15108397883E+02  0.13660090930E+03  0.12509000000E+03 0.  0.
         25    1    4    4    0    0 -0.31193250301E+02 -0.52898642143E+02 -0.86749057071E+02  0.16414686171E+03  0.12509000000E+03 0.  0.
<mgrwt>
<rscale>  2 0.45491418E+03</rscale>
<asrwt>0</asrwt>
<pdfrwt beam="1">  1       21 0.20251114E-01 0.45491418E+03</pdfrwt>
<pdfrwt beam="2">  1       21 0.55249990E-01 0.45491418E+03</pdfrwt>
<totfact> 0.64382476E+04</totfact>
</mgrwt>
</event>
<event>
 7    0  0.4831799E-002  0.4544548E+03  0.7546771E-02  0.1026402E+00
         21   -1    0    0  502  501  0.00000000000E+00  0.00000000000E+00  0.46456135927E+02  0.46456135927E+02  0.00000000000E+00 0.  1.
         21   -1    0    0  501  502 -0.00000000000E+00 -0.00000000000E+00 -0.11114204063E+04  0.11114204063E+04  0.00000000000E+00 0.  1.
      99926    2    1    2    0    0  0.35527136788E-14  0.00000000000E+00 -0.10649642704E+04  0.11578765422E+04  0.45445482710E+03 0.  0.
      99925    2    3    3    0    0 -0.91336927468E+01 -0.11137944467E+03 -0.70680324828E+03  0.76238238186E+03  0.26299669076E+03 0.  0.
         25    1    4    4    0    0  0.30934881808E+02 -0.38460842918E+02 -0.36652110255E+03  0.39041187234E+03  0.12509000000E+03 0.  0.
         25    1    3    3    0    0  0.91336927468E+01  0.11137944467E+03 -0.35816102211E+03  0.39549416038E+03  0.12509000000E+03 0.  0.
         25    1    4    4    0    0 -0.40068574554E+02 -0.72918601757E+02 -0.34028214573E+03  0.37197050952E+03  0.12509000000E+03 0.  0.
<mgrwt>
<rscale>  2 0.45445483E+03</rscale>
<asrwt>0</asrwt>
<pdfrwt beam="1">  1       21 0.68317847E-02 0.45445483E+03</pdfrwt>
<pdfrwt beam="2">  1       21 0.16344418E+00 0.45445483E+03</pdfrwt>
<totfact> 0.33663263E+04</totfact>
</mgrwt>
</event>
<event>
 7    0  0.4831799E-002  0.4546474E+03  0.7546771E-02  0.1026345E+00
         21   -1    0    0  502  501  0.00000000000E+00  0.00000000000E+00  0.35130408209E+02  0.35130408209E+02  0.00000000000E+00 0. -1.
         21   -1    0    0  501  502 -0.00000000000E+00 -0.00000000000E+00 -0.14709781443E+04  0.14709781443E+04  0.00000000000E+00 0. -1.
      99926    2    1    2    0    0  0.14210854715E-13  0.00000000000E+00 -0.14358477360E+04  0.15061085525E+04  0.45464739161E+03 0.  0.
      99925    2    3    3    0    0 -0.10458434504E+03 -0.33708612419E+02 -0.81769141177E+03  0.86592193504E+03  0.26292089482E+03 0.  0.
         25    1    3    3    0    0  0.10458434504E+03  0.33708612419E+02 -0.61815632428E+03  0.64018661743E+03  0.12509000000E+03 0.  0.
         25    1    4    4    0    0 -0.53745656090E+02  0.23741924924E+02 -0.39189153820E+03  0.41554633961E+03  0.12509000000E+03 0.  0.
         25    1    4    4    0    0 -0.50838688950E+02 -0.57450537343E+02 -0.42579987356E+03  0.45037559543E+03  0.12509000000E+03 0.  0.
<mgrwt>
<rscale>  2 0.45464739E+03</rscale>
<asrwt>0</asrwt>
<pdfrwt beam="1">  1       21 0.51662358E-02 0.45464739E+03</pdfrwt>
<pdfrwt beam="2">  1       21 0.21632034E+00 0.45464739E+03</pdfrwt>
<totfact> 0.23694625E+04</totfact>
</mgrwt>
</event>
<event>
 7    0  0.4831799E-002  0.4859014E+03  0.7546771E-02  0.1017526E+00
         21   -1    0    0  502  501  0.00000000000E+00  0.00000000000E+00  0.18964216541E+03  0.18964216541E+03  0.00000000000E+00 0.  1.
         21   -1    0    0  501  502 -0.00000000000E+00 -0.00000000000E+00 -0.31124431166E+03  0.31124431166E+03  0.00000000000E+00 0.  1.
      99926    2    1    2    0    0  0.00000000000E+00  0.00000000000E+00 -0.12160214625E+03  0.50088647707E+03  0.48590141072E+03 0.  0.
      99925    2    3    3    0    0 -0.10777593380E+03  0.37279487096E+02  0.95760076956E+01  0.28673552975E+03  0.26290711675E+03 0.  0.
         25    1    4    4    0    0 -0.61599813413E+02 -0.88400810601E+01 -0.23857692420E+02  0.14173701575E+03  0.12509000000E+03 0.  0.
         25    1    4    4    0    0 -0.46176120382E+02  0.46119568156E+02  0.33433700116E+02  0.14499851401E+03  0.12509000000E+03 0.  0.
         25    1    3    3    0    0  0.10777593380E+03 -0.37279487096E+02 -0.13117815394E+03  0.21415094731E+03  0.12509000000E+03 0.  0.
<mgrwt>
<rscale>  2 0.48590141E+03</rscale>
<asrwt>0</asrwt>
<pdfrwt beam="1">  1       21 0.27888554E-01 0.48590141E+03</pdfrwt>
<pdfrwt beam="2">  1       21 0.45771222E-01 0.48590141E+03</pdfrwt>
<totfact> 0.51394625E+04</totfact>
</mgrwt>
</event>
<event>
 7    0  0.4831799E-002  0.4537740E+03  0.7546771E-02  0.1026603E+00
         21   -1    0    0  502  501  0.00000000000E+00  0.00000000000E+00  0.13007717199E+03  0.13007717199E+03  0.00000000000E+00 0. -1.
         21   -1    0    0  501  502 -0.00000000000E+00 -0.00000000000E+00 -0.39574746945E+03  0.39574746945E+03  0.00000000000E+00 0. -1.
      99926    2    1    2    0    0  0.35527136788E-14  0.00000000000E+00 -0.26567029746E+03  0.52582464143E+03  0.45377400387E+03 0.  0.
      99925    2    3    3    0    0 -0.29321630451E+02  0.20348402988E+02 -0.29035341683E+03  0.39342154480E+03  0.26306195037E+03 0.  0.
         25    1    4    4    0    0 -0.53051139028E+02  0.34209309902E+00 -0.16340096007E+03  0.21251334601E+03  0.12509000000E+03 0.  0.
         25    1    4    4    0    0  0.23729508576E+02  0.20006309889E+02 -0.12695245676E+03  0.18090819879E+03  0.12509000000E+03 0.  0.
         25    1    3    3    0    0  0.29321630451E+02 -0.20348402988E+02  0.24683119372E+02  0.13240309663E+03  0.12509000000E+03 0.  0.
<mgrwt>
<rscale>  2 0.45377400E+03</rscale>
<asrwt>0</asrwt>
<pdfrwt beam="1">  1       21 0.19128996E-01 0.45377400E+03</pdfrwt>
<pdfrwt beam="2">  1       21 0.58198157E-01 0.45377400E+03</pdfrwt>
<totfact> 0.64110851E+04</totfact>
</mgrwt>
</event>
<event>
 7    0  0.4831799E-002  0.4888865E+03  0.7546771E-02  0.1016721E+00
         21   -1    0    0  502  501  0.00000000000E+00  0.00000000000E+00  0.18834735082E+04  0.18834735082E+04  0.00000000000E+00 0.  1.
         21   -1    0    0  501  502 -0.00000000000E+00 -0.00000000000E+00 -0.31724630819E+02  0.31724630819E+02  0.00000000000E+00 0.  1.
      99926    2    1    2    0    0  0.00000000000E+00  0.71054273576E-14  0.18517488774E+04  0.19151981390E+04  0.48888649687E+03 0.  0.
      99925    2    3    3    0    0 -0.10693778870E+03  0.47152685603E+02  0.81252518868E+03  0.86196860579E+03  0.26293274561E+03 0.  0.
         25    1    4    4    0    0 -0.28003078565E+02  0.21806446534E+02  0.28029649030E+03  0.30898757919E+03  0.12509000000E+03 0.  0.
         25    1    4    4    0    0 -0.78934710134E+02  0.25346239069E+02  0.53222869838E+03  0.55298102660E+03  0.12509000000E+03 0.  0.
         25    1    3    3    0    0  0.10693778870E+03 -0.47152685603E+02  0.10392236887E+04  0.10532295332E+04  0.12509000000E+03 0.  0.
<mgrwt>
<rscale>  2 0.48888650E+03</rscale>
<asrwt>0</asrwt>
<pdfrwt beam="1">  1       21 0.27698132E+00 0.48888650E+03</pdfrwt>
<pdfrwt beam="2">  1       21 0.46653882E-02 0.48888650E+03</pdfrwt>
<totfact> 0.11738949E+04</totfact>
</mgrwt>
</event>
<event>
 7    0  0.4831799E-002  0.4447023E+03  0.7546771E-02  0.1029314E+00
         21   -1    0    0  502  501  0.00000000000E+00  0.00000000000E+00  0.23565347911E+03  0.23565347911E+03  0.00000000000E+00 0. -1.
         21   -1    0    0  501  502 -0.00000000000E+00 -0.00000000000E+00 -0.20979968396E+03  0.20979968396E+03  0.00000000000E+00 0. -1.
      99926    2    1    2    0    0  0.00000000000E+00  0.00000000000E+00  0.25853795154E+02  0.44545316306E+03  0.44470226192E+03 0.  0.
      99925    2    3    3    0    0 -0.23610812708E+02 -0.64847457304E+02 -0.60356762052E+02  0.27859264806E+03  0.26307463129E+03 0.  0.
         25    1    4    4    0    0  0.12971445721E+02 -0.12141452014E+02 -0.19537927779E+01  0.12636058985E+03  0.12509000000E+03 0.  0.
         25    1    3    3    0    0  0.23610812708E+02  0.64847457304E+02  0.86210557205E+02  0.16686051501E+03  0.12509000000E+03 0.  0.
         25    1    4    4    0    0 -0.36582258429E+02 -0.52706005290E+02 -0.58402969274E+02  0.15223205820E+03  0.12509000000E+03 0.  0.
<mgrwt>
<rscale>  2 0.44470226E+03</rscale>
<asrwt>0</asrwt>
<pdfrwt beam="1">  1       21 0.34654924E-01 0.44470226E+03</pdfrwt>
<pdfrwt beam="2">  1       21 0.30852895E-01 0.44470226E+03</pdfrwt>
<totfact> 0.75245991E+04</totfact>
</mgrwt>
</event>
<event>
 7    0  0.4831799E-002  0.4497027E+03  0.7546771E-02  0.1027811E+00
         21   -1    0    0  502  501  0.00000000000E+00  0.00000000000E+00  0.18027079525E+03  0.18027079525E+03  0.00000000000E+00 0. -1.
         21   -1    0    0  501  502 -0.00000000000E+00 -0.00000000000E+00 -0.28045658756E+03  0.28045658756E+03  0.00000000000E+00 0. -1.
      99926    2    1    2    0    0  0.14210854715E-13 -0.14210854715E-13 -0.10018579231E+03  0.46072738281E+03  0.44970271101E+03 0.  0.
      99925    2    3    3    0    0  0.59364859030E+02 -0.88078793164E+02 -0.83973539631E+02  0.29582618351E+03  0.26301999011E+03 0.  0.
         25    1    3    3    0    0 -0.59364859030E+02  0.88078793164E+02 -0.16212252684E+02  0.16490119930E+03  0.12509000000E+03 0.  0.
         25    1    4    4    0    0 -0.62103368681E+01 -0.19948304086E+02 -0.39490858893E+02  0.13282898462E+03  0.12509000000E+03 0.  0.
         25    1    4    4    0    0  0.65575195898E+02 -0.68130489078E+02 -0.44482680738E+02  0.16299719889E+03  0.12509000000E+03 0.  0.
<mgrwt>
<rscale>  2 0.44970271E+03</rscale>
<asrwt>0</asrwt>
<pdfrwt beam="1">  1       21 0.26510412E-01 0.44970271E+03</pdfrwt>
<pdfrwt beam="2">  1       21 0.41243615E-01 0.44970271E+03</pdfrwt>
<totfact> 0.71071712E+04</totfact>
</mgrwt>
</event>
<event>
 7    0  0.4831799E-002  0.4444930E+03  0.7546771E-02  0.1029377E+00
         21   -1    0    0  502  501  0.00000000000E+00  0.00000000000E+00  0.13133037206E+03  0.13133037206E+03  0.00000000000E+00 0.  1.
         21   -1    0    0  501  502 -0.00000000000E+00 -0.00000000000E+00 -0.37610119517E+03  0.37610119517E+03  0.00000000000E+00 0.  1.
      99926    2    1    2    0    0  0.00000000000E+00  0.71054273576E-14 -0.24477082311E+03  0.50743156723E+03  0.44449301409E+03 0.  0.
      99925    2    3    3    0    0  0.35270645233E+02  0.61880927131E+02 -0.70697917410E+02  0.28155073104E+03  0.26305769531E+03 0.  0.
         25    1    4    4    0    0  0.30775597016E+02  0.69877336950E+02 -0.29154063675E+02  0.14942371672E+03  0.12509000000E+03 0.  0.
         25    1    4    4    0    0  0.44950482177E+01 -0.79964098186E+01 -0.41543853735E+02  0.13212701431E+03  0.12509000000E+03 0.  0.
         25    1    3    3    0    0 -0.35270645233E+02 -0.61880927131E+02 -0.17407290570E+03  0.22588083619E+03  0.12509000000E+03 0.  0.
<mgrwt>
<rscale>  2 0.44449301E+03</rscale>
<asrwt>0</asrwt>
<pdfrwt beam="1">  1       21 0.19313290E-01 0.44449301E+03</pdfrwt>
<pdfrwt beam="2">  1       21 0.55308999E-01 0.44449301E+03</pdfrwt>
<totfact> 0.70444439E+04</totfact>
</mgrwt>
</event>
<event>
 7    0  0.4831799E-002  0.4703414E+03  0.7546771E-02  0.1021824E+00
         21   -1    0    0  502  501  0.00000000000E+00  0.00000000000E+00  0.27826522245E+03  0.27826522245E+03  0.00000000000E+00 0. -1.
         21   -1    0    0  501  502 -0.00000000000E+00 -0.00000000000E+00 -0.19875015694E+03  0.19875015694E+03  0.00000000000E+00 0. -1.
      99926    2    1    2    0    0 -0.44408920985E-15  0.14210854715E-13  0.79515065503E+02  0.47701537939E+03  0.47034139360E+03 0.  0.
      99925    2    3    3    0    0  0.33692341985E+01 -0.11700665558E+03  0.99354834027E+02  0.30455369175E+03  0.26302026333E+03 0.  0.
         25    1    3    3    0    0 -0.33692341985E+01  0.11700665558E+03 -0.19839768523E+02  0.17246168764E+03  0.12509000000E+03 0.  0.
         25    1    4    4    0    0 -0.32435707374E+01 -0.10198269480E+03  0.48827253884E+02  0.16864933920E+03  0.12509000000E+03 0.  0.
         25    1    4    4    0    0  0.66128049359E+01 -0.15023960777E+02  0.50527580142E+02  0.13590435255E+03  0.12509000000E+03 0.  0.
<mgrwt>
<rscale>  2 0.47034139E+03</rscale>
<asrwt>0</asrwt>
<pdfrwt beam="1">  1       21 0.40921356E-01 0.47034139E+03</pdfrwt>
<pdfrwt beam="2">  1       21 0.29227964E-01 0.47034139E+03</pdfrwt>
<totfact> 0.59352158E+04</totfact>
</mgrwt>
</event>
<event>
 7    0  0.4831799E-002  0.4548282E+03  0.7546771E-02  0.1026292E+00
         21   -1    0    0  502  501  0.00000000000E+00  0.00000000000E+00  0.36167780366E+02  0.36167780366E+02  0.00000000000E+00 0.  1.
         21   -1    0    0  501  502 -0.00000000000E+00 -0.00000000000E+00 -0.14299236527E+04  0.14299236527E+04  0.00000000000E+00 0.  1.
      99926    2    1    2    0    0  0.00000000000E+00  0.35527136788E-14 -0.13937558723E+04  0.14660914331E+04  0.45482816364E+03 0.  0.
      99925    2    3    3    0    0  0.58941882699E+02  0.16055928180E+02 -0.57019293411E+03  0.63084574485E+03  0.26289624060E+03 0.  0.
         25    1    4    4    0    0  0.68022685501E+01  0.33030758208E+02 -0.33025757024E+03  0.35476030309E+03  0.12509000000E+03 0.  0.
         25    1    3    3    0    0 -0.58941882699E+02 -0.16055928180E+02 -0.82356293824E+03  0.83524568823E+03  0.12509000000E+03 0.  0.
         25    1    4    4    0    0  0.52139614149E+02 -0.16974830028E+02 -0.23993536386E+03  0.27608544176E+03  0.12509000000E+03 0.  0.
<mgrwt>
<rscale>  2 0.45482816E+03</rscale>
<asrwt>0</asrwt>
<pdfrwt beam="1">  1       21 0.53187920E-02 0.45482816E+03</pdfrwt>
<pdfrwt beam="2">  1       21 0.21028286E+00 0.45482816E+03</pdfrwt>
<totfact> 0.24655405E+04</totfact>
</mgrwt>
</event>
<event>
 7    0  0.4831799E-002  0.4553500E+03  0.7546771E-02  0.1026139E+00
         21   -1    0    0  502  501  0.00000000000E+00  0.00000000000E+00  0.15776119535E+03  0.15776119535E+03  0.00000000000E+00 0. -1.
         21   -1    0    0  501  502 -0.00000000000E+00 -0.00000000000E+00 -0.32857197823E+03  0.32857197823E+03  0.00000000000E+00 0. -1.
      99926    2    1    2    0    0  0.00000000000E+00 -0.88817841970E-15 -0.17081078288E+03  0.48633317358E+03  0.45535001062E+03 0.  0.
      99925    2    3    3    0    0  0.10670076731E+03  0.72757126795E+01 -0.67235416679E+02  0.29187661204E+03  0.26312233972E+03 0.  0.
         25    1    4    4    0    0  0.90518877530E+02  0.48861165936E+01 -0.14565889514E+02  0.15516834265E+03  0.12509000000E+03 0.  0.
         25    1    4    4    0    0  0.16181889783E+02  0.23895960859E+01 -0.52669527165E+02  0.13670826938E+03  0.12509000000E+03 0.  0.
         25    1    3    3    0    0 -0.10670076731E+03 -0.72757126795E+01 -0.10357536621E+03  0.19445656154E+03  0.12509000000E+03 0.  0.
<mgrwt>
<rscale>  2 0.45535001E+03</rscale>
<asrwt>0</asrwt>
<pdfrwt beam="1">  1       21 0.23200176E-01 0.45535001E+03</pdfrwt>
<pdfrwt beam="2">  1       21 0.48319408E-01 0.45535001E+03</pdfrwt>
<totfact> 0.66058168E+04</totfact>
</mgrwt>
</event>
<event>
 7    0  0.4831799E-002  0.4558113E+03  0.7546771E-02  0.1026003E+00
         21   -1    0    0  502  501  0.00000000000E+00  0.00000000000E+00  0.71107897480E+02  0.71107897480E+02  0.00000000000E+00 0. -1.
         21   -1    0    0  501  502 -0.00000000000E+00 -0.00000000000E+00 -0.73045310347E+03  0.73045310347E+03  0.00000000000E+00 0. -1.
      99926    2    1    2    0    0  0.00000000000E+00  0.00000000000E+00 -0.65934520599E+03  0.80156100095E+03  0.45581129602E+03 0.  0.
      99925    2    3    3    0    0 -0.35437285418E+02 -0.10828204057E+03 -0.40947690680E+03  0.49979540227E+03  0.26295114644E+03 0.  0.
         25    1    3    3    0    0  0.35437285418E+02  0.10828204057E+03 -0.24986829919E+03  0.30176559868E+03  0.12509000000E+03 0.  0.
         25    1    4    4    0    0 -0.51555386101E+02 -0.80392188803E+02 -0.22178457442E+03  0.27194993548E+03  0.12509000000E+03 0.  0.
         25    1    4    4    0    0  0.16118100683E+02 -0.27889851772E+02 -0.18769233238E+03  0.22784546679E+03  0.12509000000E+03 0.  0.
<mgrwt>
<rscale>  2 0.45581130E+03</rscale>
<asrwt>0</asrwt>
<pdfrwt beam="1">  1       21 0.10457043E-01 0.45581130E+03</pdfrwt>
<pdfrwt beam="2">  1       21 0.10741958E+00 0.45581130E+03</pdfrwt>
<totfact> 0.47386969E+04</totfact>
</mgrwt>
</event>
<event>
 7    0  0.4831799E-002  0.4546773E+03  0.7546771E-02  0.1026336E+00
         21   -1    0    0  502  501  0.00000000000E+00  0.00000000000E+00  0.24938559092E+03  0.24938559092E+03  0.00000000000E+00 0.  1.
         21   -1    0    0  501  502 -0.00000000000E+00 -0.00000000000E+00 -0.20724073028E+03  0.20724073028E+03  0.00000000000E+00 0.  1.
      99926    2    1    2    0    0 -0.14210854715E-13  0.71054273576E-14  0.42144860636E+02  0.45662632120E+03  0.45467725690E+03 0.  0.
      99925    2    3    3    0    0 -0.73159790787E+02  0.60569936736E+02 -0.34561420666E+02  0.28183377584E+03  0.26308689283E+03 0.  0.
         25    1    3    3    0    0  0.73159790787E+02 -0.60569936736E+02  0.76706281301E+02  0.17479254537E+03  0.12509000000E+03 0.  0.
         25    1    4    4    0    0  0.20651895690E+01  0.21187444190E+02 -0.30930617276E+02  0.13060392025E+03  0.12509000000E+03 0.  0.
         25    1    4    4    0    0 -0.75224980356E+02  0.39382492546E+02 -0.36308033895E+01  0.15122985559E+03  0.12509000000E+03 0.  0.
<mgrwt>
<rscale>  2 0.45467726E+03</rscale>
<asrwt>0</asrwt>
<pdfrwt beam="1">  1       21 0.36674352E-01 0.45467726E+03</pdfrwt>
<pdfrwt beam="2">  1       21 0.30476578E-01 0.45467726E+03</pdfrwt>
<totfact> 0.68603312E+04</totfact>
</mgrwt>
</event>
<event>
 7    0  0.4831799E-002  0.4551117E+03  0.7546771E-02  0.1026209E+00
         21   -1    0    0  502  501  0.00000000000E+00  0.00000000000E+00  0.21932836477E+03  0.21932836477E+03  0.00000000000E+00 0. -1.
         21   -1    0    0  501  502 -0.00000000000E+00 -0.00000000000E+00 -0.23609194646E+03  0.23609194646E+03  0.00000000000E+00 0. -1.
      99926    2    1    2    0    0  0.00000000000E+00  0.00000000000E+00 -0.16763581692E+02  0.45542031123E+03  0.45511168103E+03 0.  0.
      99925    2    3    3    0    0  0.74835463639E+02  0.80657026932E+02 -0.37611857349E+02  0.28752730569E+03  0.26296653226E+03 0.  0.
         25    1    4    4    0    0  0.51864049829E+02  0.67593073741E+02 -0.49220432090E+02  0.15915043926E+03  0.12509000000E+03 0.  0.
         25    1    3    3    0    0 -0.74835463639E+02 -0.80657026932E+02  0.20848275657E+02  0.16789300554E+03  0.12509000000E+03 0.  0.
         25    1    4    4    0    0  0.22971413810E+02  0.13063953191E+02  0.11608574740E+02  0.12837686642E+03  0.12509000000E+03 0.  0.
<mgrwt>
<rscale>  2 0.45511168E+03</rscale>
<asrwt>0</asrwt>
<pdfrwt beam="1">  1       21 0.32254171E-01 0.45511168E+03</pdfrwt>
<pdfrwt beam="2">  1       21 0.34719404E-01 0.45511168E+03</pdfrwt>
<totfact> 0.68454009E+04</totfact>
</mgrwt>
</event>
<event>
 7    0  0.4831799E-002  0.4547263E+03  0.7546771E-02  0.1026322E+00
         21   -1    0    0  502  501  0.00000000000E+00  0.00000000000E+00  0.34825882131E+02  0.34825882131E+02  0.00000000000E+00 0. -1.
         21   -1    0    0  501  502 -0.00000000000E+00 -0.00000000000E+00 -0.14843558640E+04  0.14843558640E+04  0.00000000000E+00 0. -1.
      99926    2    1    2    0    0  0.35527136788E-14 -0.14210854715E-13 -0.14495299819E+04  0.15191817461E+04  0.45472630168E+03 0.  0.
      99925    2    3    3    0    0 -0.20596416041E+02  0.84305718995E+02 -0.11535593390E+04  0.11863487607E+04  0.26304480031E+03 0.  0.
         25    1    4    4    0    0 -0.22077896886E+01  0.83544789706E+02 -0.64376736657E+03  0.66111159163E+03  0.12509000000E+03 0.  0.
         25    1    4    4    0    0 -0.18388626352E+02  0.76092928929E+00 -0.50979197239E+03  0.52523716910E+03  0.12509000000E+03 0.  0.
         25    1    3    3    0    0  0.20596416041E+02 -0.84305718995E+02 -0.29597064291E+03  0.33283298540E+03  0.12509000000E+03 0.  0.
<mgrwt>
<rscale>  2 0.45472630E+03</rscale>
<asrwt>0</asrwt>
<pdfrwt beam="1">  1       21 0.51214528E-02 0.45472630E+03</pdfrwt>
<pdfrwt beam="2">  1       21 0.21828765E+00 0.45472630E+03</pdfrwt>
<totfact> 0.23362515E+04</totfact>
</mgrwt>
</event>
<event>
 7    0  0.4831799E-002  0.4554639E+03  0.7546771E-02  0.1026105E+00
         21   -1    0    0  502  501  0.00000000000E+00  0.00000000000E+00  0.36515232245E+03  0.36515232245E+03  0.00000000000E+00 0.  1.
         21   -1    0    0  501  502 -0.00000000000E+00 -0.00000000000E+00 -0.14202796250E+03  0.14202796250E+03  0.00000000000E+00 0.  1.
      99926    2    1    2    0    0  0.00000000000E+00  0.00000000000E+00  0.22312435996E+03  0.50718028495E+03  0.45546389696E+03 0.  0.
      99925    2    3    3    0    0  0.80121959357E+02 -0.76774083657E+02  0.11329608312E+03  0.30712142665E+03  0.26300908722E+03 0.  0.
         25    1    4    4    0    0  0.17138162604E+02 -0.56109022721E+02  0.86591069750E+02  0.16305661749E+03  0.12509000000E+03 0.  0.
         25    1    4    4    0    0  0.62983796754E+02 -0.20665060935E+02  0.26705013367E+02  0.14406480915E+03  0.12509000000E+03 0.  0.
         25    1    3    3    0    0 -0.80121959357E+02  0.76774083657E+02  0.10982827684E+03  0.20005885830E+03  0.12509000000E+03 0.  0.
<mgrwt>
<rscale>  2 0.45546390E+03</rscale>
<asrwt>0</asrwt>
<pdfrwt beam="1">  1       21 0.53698871E-01 0.45546390E+03</pdfrwt>
<pdfrwt beam="2">  1       21 0.20886465E-01 0.45546390E+03</pdfrwt>
<totfact> 0.64531186E+04</totfact>
</mgrwt>
</event>
<event>
 7    0  0.4831799E-002  0.4748629E+03  0.7546771E-02  0.1020557E+00
         21   -1    0    0  502  501  0.00000000000E+00  0.00000000000E+00  0.11439044170E+04  0.11439044170E+04  0.00000000000E+00 0.  1.
         21   -1    0    0  501  502 -0.00000000000E+00 -0.00000000000E+00 -0.49281827368E+02  0.49281827368E+02  0.00000000000E+00 0.  1.
      99926    2    1    2    0    0  0.00000000000E+00  0.00000000000E+00  0.10946225896E+04  0.11931862444E+04  0.47486292760E+03 0.  0.
      99925    2    3    3    0    0  0.11085950721E+03  0.68434421853E+02  0.70890422148E+03  0.76727631485E+03  0.26304875530E+03 0.  0.
         25    1    3    3    0    0 -0.11085950721E+03 -0.68434421853E+02  0.38571836814E+03  0.42590992951E+03  0.12509000000E+03 0.  0.
         25    1    4    4    0    0  0.94091262601E+02  0.57273433794E+02  0.41547095050E+03  0.44765726926E+03  0.12509000000E+03 0.  0.
         25    1    4    4    0    0  0.16768244605E+02  0.11160988059E+02  0.29343327098E+03  0.31961904558E+03  0.12509000000E+03 0.  0.
<mgrwt>
<rscale>  2 0.47486293E+03</rscale>
<asrwt>0</asrwt>
<pdfrwt beam="1">  1       21 0.16822122E+00 0.47486293E+03</pdfrwt>
<pdfrwt beam="2">  1       21 0.72473283E-02 0.47486293E+03</pdfrwt>
<totfact> 0.27812976E+04</totfact>
</mgrwt>
</event>
<event>
 7    0  0.4831799E-002  0.4496714E+03  0.7546771E-02  0.1027820E+00
         21   -1    0    0  502  501  0.00000000000E+00  0.00000000000E+00  0.10634843792E+03  0.10634843792E+03  0.00000000000E+00 0.  1.
         21   -1    0    0  501  502 -0.00000000000E+00 -0.00000000000E+00 -0.47533467636E+03  0.47533467636E+03  0.00000000000E+00 0.  1.
      99926    2    1    2    0    0  0.00000000000E+00  0.35527136788E-14 -0.36898623845E+03  0.58168311428E+03  0.44967143702E+03 0.  0.
      99925    2    3    3    0    0 -0.15640997683E+02  0.30724083186E+02 -0.36587072135E+03  0.45189164829E+03  0.26297541132E+03 0.  0.
         25    1    3    3    0    0  0.15640997683E+02 -0.30724083186E+02 -0.31155170985E+01  0.12979146599E+03  0.12509000000E+03 0.  0.
         25    1    4    4    0    0 -0.33320548421E+02  0.41822381700E+02 -0.15914389559E+03  0.20936489238E+03  0.12509000000E+03 0.  0.
         25    1    4    4    0    0  0.17679550738E+02 -0.11098298514E+02 -0.20672682576E+03  0.24252675591E+03  0.12509000000E+03 0.  0.
<mgrwt>
<rscale>  2 0.44967144E+03</rscale>
<asrwt>0</asrwt>
<pdfrwt beam="1">  1       21 0.15639476E-01 0.44967144E+03</pdfrwt>
<pdfrwt beam="2">  1       21 0.69902158E-01 0.44967144E+03</pdfrwt>
<totfact> 0.62407694E+04</totfact>
</mgrwt>
</event>
<event>
 7    0  0.4831799E-002  0.4568020E+03  0.7546771E-02  0.1025713E+00
         21   -1    0    0  502  501  0.00000000000E+00  0.00000000000E+00  0.70481196260E+03  0.70481196260E+03  0.00000000000E+00 0. -1.
         21   -1    0    0  501  502 -0.00000000000E+00 -0.00000000000E+00 -0.74015522727E+02  0.74015522727E+02  0.00000000000E+00 0. -1.
      99926    2    1    2    0    0  0.00000000000E+00  0.00000000000E+00  0.63079643987E+03  0.77882748532E+03  0.45680203956E+03 0.  0.
      99925    2    3    3    0    0 -0.10501085472E+03  0.51858438259E+01  0.31736412606E+03  0.42535684153E+03  0.26297201665E+03 0.  0.
         25    1    4    4    0    0 -0.73915071508E+02  0.36832303219E+02  0.18202257225E+03  0.23579605863E+03  0.12509000000E+03 0.  0.
         25    1    3    3    0    0  0.10501085472E+03 -0.51858438259E+01  0.31343231381E+03  0.35347064379E+03  0.12509000000E+03 0.  0.
         25    1    4    4    0    0 -0.31095783209E+02 -0.31646459394E+02  0.13534155381E+03  0.18956078290E+03  0.12509000000E+03 0.  0.
<mgrwt>
<rscale>  2 0.45680204E+03</rscale>
<asrwt>0</asrwt>
<pdfrwt beam="1">  1       21 0.10364881E+00 0.45680204E+03</pdfrwt>
<pdfrwt beam="2">  1       21 0.10884636E-01 0.45680204E+03</pdfrwt>
<totfact> 0.48121700E+04</totfact>
</mgrwt>
</event>
<event>
 7    0  0.4831799E-002  0.4508768E+03  0.7546771E-02  0.1027461E+00
         21   -1    0    0  502  501  0.00000000000E+00  0.00000000000E+00  0.17686305131E+03  0.17686305131E+03  0.00000000000E+00 0.  1.
         21   -1    0    0  501  502 -0.00000000000E+00 -0.00000000000E+00 -0.28735496247E+03  0.28735496247E+03  0.00000000000E+00 0.  1.
      99926    2    1    2    0    0  0.00000000000E+00  0.17763568394E-14 -0.11049191116E+03  0.46421801377E+03  0.45087681453E+03 0.  0.
      99925    2    3    3    0    0 -0.52557065877E+01  0.80422675196E+01 -0.18177362830E+03  0.31992355159E+03  0.26309147914E+03 0.  0.
         25    1    3    3    0    0  0.52557065877E+01 -0.80422675196E+01  0.71281717140E+02  0.14429446218E+03  0.12509000000E+03 0.  0.
         25    1    4    4    0    0 -0.23654090800E+02  0.91750329506E+01 -0.49392586260E+02  0.13686063320E+03  0.12509000000E+03 0.  0.
         25    1    4    4    0    0  0.18398384212E+02 -0.11327654310E+01 -0.13238104204E+03  0.18306291839E+03  0.12509000000E+03 0.  0.
<mgrwt>
<rscale>  2 0.45087681E+03</rscale>
<asrwt>0</asrwt>
<pdfrwt beam="1">  1       21 0.26009272E-01 0.45087681E+03</pdfrwt>
<pdfrwt beam="2">  1       21 0.42258082E-01 0.45087681E+03</pdfrwt>
<totfact> 0.70134229E+04</totfact>
</mgrwt>
</event>
<event>
 7    0  0.4831799E-002  0.4268691E+03  0.7546771E-02  0.1034854E+00
         21   -1    0    0  502  501  0.00000000000E+00  0.00000000000E+00  0.64994399801E+03  0.64994399801E+03  0.00000000000E+00 0.  1.
         21   -1    0    0  501  502 -0.00000000000E+00 -0.00000000000E+00 -0.70089583963E+02  0.70089583963E+02  0.00000000000E+00 0.  1.
      99926    2    1    2    0    0  0.00000000000E+00  0.00000000000E+00  0.57985441405E+03  0.72003358198E+03  0.42686908728E+03 0.  0.
      99925    2    3    3    0    0  0.36267607541E+02 -0.74523090231E+02  0.35095106273E+03  0.44633067246E+03  0.26301214879E+03 0.  0.
         25    1    3    3    0    0 -0.36267607541E+02  0.74523090231E+02  0.22890335132E+03  0.27370290952E+03  0.12509000000E+03 0.  0.
         25    1    4    4    0    0  0.20372036382E+02 -0.63692829809E+01  0.12084475990E+03  0.17523285002E+03  0.12509000000E+03 0.  0.
         25    1    4    4    0    0  0.15895571159E+02 -0.68153807250E+02  0.23010630283E+03  0.27109782244E+03  0.12509000000E+03 0.  0.
<mgrwt>
<rscale>  2 0.42686909E+03</rscale>
<asrwt>0</asrwt>
<pdfrwt beam="1">  1       21 0.95579997E-01 0.42686909E+03</pdfrwt>
<pdfrwt beam="2">  1       21 0.10307292E-01 0.42686909E+03</pdfrwt>
<totfact> 0.65076190E+04</totfact>
</mgrwt>
</event>
<event>
 7    0  0.4831799E-002  0.4547806E+03  0.7546771E-02  0.1026306E+00
         21   -1    0    0  502  501  0.00000000000E+00  0.00000000000E+00  0.79621591345E+03  0.79621591345E+03  0.00000000000E+00 0. -1.
         21   -1    0    0  501  502 -0.00000000000E+00 -0.00000000000E+00 -0.64940110748E+02  0.64940110748E+02  0.00000000000E+00 0. -1.
      99926    2    1    2    0    0  0.00000000000E+00  0.00000000000E+00  0.73127580270E+03  0.86115602419E+03  0.45478060468E+03 0.  0.
      99925    2    3    3    0    0 -0.21760706056E+02  0.78531492359E+02  0.31310700564E+03  0.41713645869E+03  0.26329850847E+03 0.  0.
         25    1    4    4    0    0 -0.34251422500E+02  0.72120320271E+02  0.18981156352E+03  0.24093658561E+03  0.12509000000E+03 0.  0.
         25    1    3    3    0    0  0.21760706056E+02 -0.78531492359E+02  0.41816879706E+03  0.44401956551E+03  0.12509000000E+03 0.  0.
         25    1    4    4    0    0  0.12490716444E+02  0.64111720874E+01  0.12329544212E+03  0.17619987308E+03  0.12509000000E+03 0.  0.
<mgrwt>
<rscale>  2 0.45478060E+03</rscale>
<asrwt>0</asrwt>
<pdfrwt beam="1">  1       21 0.11709057E+00 0.45478060E+03</pdfrwt>
<pdfrwt beam="2">  1       21 0.95500168E-02 0.45478060E+03</pdfrwt>
<totfact> 0.45021766E+04</totfact>
</mgrwt>
</event>
<event>
 7    0  0.4831799E-002  0.4596493E+03  0.7546771E-02  0.1024883E+00
         21   -1    0    0  502  501  0.00000000000E+00  0.00000000000E+00  0.10637207252E+03  0.10637207252E+03  0.00000000000E+00 0.  1.
         21   -1    0    0  501  502 -0.00000000000E+00 -0.00000000000E+00 -0.49655288883E+03  0.49655288883E+03  0.00000000000E+00 0.  1.
      99926    2    1    2    0    0  0.00000000000E+00 -0.17763568394E-14 -0.39018081630E+03  0.60292496135E+03  0.45964925716E+03 0.  0.
      99925    2    3    3    0    0  0.43677496747E+02 -0.12085896808E+02 -0.10237275872E+03  0.28585276337E+03  0.26301678268E+03 0.  0.
         25    1    4    4    0    0  0.26046754564E+02 -0.25146090960E+02 -0.13662836402E+02  0.13093868990E+03  0.12509000000E+03 0.  0.
         25    1    3    3    0    0 -0.43677496747E+02  0.12085896808E+02 -0.28780805759E+03  0.31707219798E+03  0.12509000000E+03 0.  0.
         25    1    4    4    0    0  0.17630742183E+02  0.13060194151E+02 -0.88709922315E+02  0.15491407347E+03  0.12509000000E+03 0.  0.
<mgrwt>
<rscale>  2 0.45964926E+03</rscale>
<asrwt>0</asrwt>
<pdfrwt beam="1">  1       21 0.15642952E-01 0.45964926E+03</pdfrwt>
<pdfrwt beam="2">  1       21 0.73022483E-01 0.45964926E+03</pdfrwt>
<totfact> 0.56398204E+04</totfact>
</mgrwt>
</event>
<event>
 7    0  0.4831799E-002  0.4166828E+03  0.7546771E-02  0.1038151E+00
         21   -1    0    0  502  501  0.00000000000E+00  0.00000000000E+00  0.17531293616E+03  0.17531293616E+03  0.00000000000E+00 0.  1.
         21   -1    0    0  501  502 -0.00000000000E+00 -0.00000000000E+00 -0.24759229300E+03  0.24759229300E+03  0.00000000000E+00 0.  1.
      99926    2    1    2    0    0  0.00000000000E+00  0.00000000000E+00 -0.72279356842E+02  0.42290522915E+03  0.41668276593E+03 0.  0.
      99925    2    3    3    0    0  0.53378595975E+02 -0.47729850165E+02 -0.49816426774E+02  0.27703026752E+03  0.26293854727E+03 0.  0.
         25    1    4    4    0    0  0.25268634024E+02 -0.26235767657E+02  0.16096967247E+02  0.13127619672E+03  0.12509000000E+03 0.  0.
         25    1    3    3    0    0 -0.53378595975E+02  0.47729850165E+02 -0.22462930067E+02  0.14587496164E+03  0.12509000000E+03 0.  0.
         25    1    4    4    0    0  0.28109961952E+02 -0.21494082508E+02 -0.65913394021E+02  0.14575407080E+03  0.12509000000E+03 0.  0.
<mgrwt>
<rscale>  2 0.41668277E+03</rscale>
<asrwt>0</asrwt>
<pdfrwt beam="1">  1       21 0.25781314E-01 0.41668277E+03</pdfrwt>
<pdfrwt beam="2">  1       21 0.36410632E-01 0.41668277E+03</pdfrwt>
<totfact> 0.97531190E+04</totfact>
</mgrwt>
</event>
<event>
 7    0  0.4831799E-002  0.4511897E+03  0.7546771E-02  0.1027368E+00
         21   -1    0    0  502  501  0.00000000000E+00  0.00000000000E+00  0.20160770624E+03  0.20160770624E+03  0.00000000000E+00 0. -1.
         21   -1    0    0  501  502 -0.00000000000E+00 -0.00000000000E+00 -0.25243592899E+03  0.25243592899E+03  0.00000000000E+00 0. -1.
      99926    2    1    2    0    0  0.00000000000E+00  0.00000000000E+00 -0.50828222748E+02  0.45404363523E+03  0.45118966573E+03 0.  0.
      99925    2    3    3    0    0 -0.94459316104E+02 -0.55527637475E+02 -0.31249235011E+02  0.28660192661E+03  0.26297959755E+03 0.  0.
         25    1    4    4    0    0 -0.21794007873E+02 -0.29078147330E+02  0.18028751568E+02  0.13150308519E+03  0.12509000000E+03 0.  0.
         25    1    3    3    0    0  0.94459316104E+02  0.55527637475E+02 -0.19578987737E+02  0.16744170861E+03  0.12509000000E+03 0.  0.
         25    1    4    4    0    0 -0.72665308231E+02 -0.26449490145E+02 -0.49277986579E+02  0.15509884142E+03  0.12509000000E+03 0.  0.
<mgrwt>
<rscale>  2 0.45118967E+03</rscale>
<asrwt>0</asrwt>
<pdfrwt beam="1">  1       21 0.29648192E-01 0.45118967E+03</pdfrwt>
<pdfrwt beam="2">  1       21 0.37122931E-01 0.45118967E+03</pdfrwt>
<totfact> 0.70742106E+04</totfact>
</mgrwt>
</event>
<event>
 7    0  0.4831799E-002  0.4567970E+03  0.7546771E-02  0.1025714E+00
         21   -1    0    0  502  501  0.00000000000E+00  0.00000000000E+00  0.22136699114E+03  0.22136699114E+03  0.00000000000E+00 0. -1.
         21   -1    0    0  501  502 -0.00000000000E+00 -0.00000000000E+00 -0.23565333390E+03  0.23565333390E+03  0.00000000000E+00 0. -1.
      99926    2    1    2    0    0  0.00000000000E+00  0.00000000000E+00 -0.14286342762E+02  0.45702032505E+03  0.45679697669E+03 0.  0.
      99925    2    3    3    0    0 -0.72858003082E+02  0.87275897094E+02  0.73322515869E+01  0.28660834616E+03  0.26299279714E+03 0.  0.
         25    1    4    4    0    0 -0.36377115820E+02  0.59129168787E+02  0.41560758048E+02  0.14897770929E+03  0.12509000000E+03 0.  0.
         25    1    3    3    0    0  0.72858003082E+02 -0.87275897094E+02 -0.21618594349E+02  0.17041197889E+03  0.12509000000E+03 0.  0.
         25    1    4    4    0    0 -0.36480887262E+02  0.28146728307E+02 -0.34228506462E+02  0.13763063687E+03  0.12509000000E+03 0.  0.
<mgrwt>
<rscale>  2 0.45679698E+03</rscale>
<asrwt>0</asrwt>
<pdfrwt beam="1">  1       21 0.32553969E-01 0.45679698E+03</pdfrwt>
<pdfrwt beam="2">  1       21 0.34654902E-01 0.45679698E+03</pdfrwt>
<totfact> 0.67426100E+04</totfact>
</mgrwt>
</event>
<event>
 7    0  0.4831799E-002  0.4570710E+03  0.7546771E-02  0.1025634E+00
         21   -1    0    0  502  501  0.00000000000E+00  0.00000000000E+00  0.75029774932E+03  0.75029774932E+03  0.00000000000E+00 0.  1.
         21   -1    0    0  501  502 -0.00000000000E+00 -0.00000000000E+00 -0.69610323185E+02  0.69610323185E+02  0.00000000000E+00 0.  1.
      99926    2    1    2    0    0 -0.71054273576E-14  0.00000000000E+00  0.68068742613E+03  0.81990807250E+03  0.45707097399E+03 0.  0.
      99925    2    3    3    0    0 -0.35623893787E+02  0.91638735809E+02  0.31809410253E+03  0.42394324309E+03  0.26244484295E+03 0.  0.
         25    1    3    3    0    0  0.35623893787E+02 -0.91638735809E+02  0.36259332360E+03  0.39596482941E+03  0.12509000000E+03 0.  0.
         25    1    4    4    0    0 -0.28126663547E+01  0.46479770031E+02  0.21269285065E+03  0.25110562904E+03  0.12509000000E+03 0.  0.
         25    1    4    4    0    0 -0.32811227432E+02  0.45158965778E+02  0.10540125188E+03  0.17283761406E+03  0.12509000000E+03 0.  0.
<mgrwt>
<rscale>  2 0.45707097E+03</rscale>
<asrwt>0</asrwt>
<pdfrwt beam="1">  1       21 0.11033790E+00 0.45707097E+03</pdfrwt>
<pdfrwt beam="2">  1       21 0.10236813E-01 0.45707097E+03</pdfrwt>
<totfact> 0.46063793E+04</totfact>
</mgrwt>
</event>
<event>
 7    0  0.4831799E-002  0.4551325E+03  0.7546771E-02  0.1026202E+00
         21   -1    0    0  502  501  0.00000000000E+00  0.00000000000E+00  0.18879504639E+04  0.18879504639E+04  0.00000000000E+00 0. -1.
         21   -1    0    0  501  502 -0.00000000000E+00 -0.00000000000E+00 -0.27429958464E+02  0.27429958464E+02  0.00000000000E+00 0. -1.
      99926    2    1    2    0    0  0.00000000000E+00  0.00000000000E+00  0.18605205054E+04  0.19153804223E+04  0.45513252051E+03 0.  0.
      99925    2    3    3    0    0 -0.45413535094E+02  0.50698125620E+02  0.15517547476E+04  0.15753561726E+04  0.26300491393E+03 0.  0.
         25    1    4    4    0    0 -0.17987851004E+02 -0.79813326717E+01  0.87323065211E+03  0.88236417898E+03  0.12509000000E+03 0.  0.
         25    1    3    3    0    0  0.45413535094E+02 -0.50698125620E+02  0.30876575781E+03  0.34002424973E+03  0.12509000000E+03 0.  0.
         25    1    4    4    0    0 -0.27425684090E+02  0.58679458292E+02  0.67852409550E+03  0.69299199364E+03  0.12509000000E+03 0.  0.
<mgrwt>
<rscale>  2 0.45513252E+03</rscale>
<asrwt>0</asrwt>
<pdfrwt beam="1">  1       21 0.27763969E+00 0.45513252E+03</pdfrwt>
<pdfrwt beam="2">  1       21 0.40338187E-02 0.45513252E+03</pdfrwt>
<totfact> 0.15125322E+04</totfact>
</mgrwt>
</event>
<event>
 7    0  0.4831799E-002  0.4626753E+03  0.7546771E-02  0.1024008E+00
         21   -1    0    0  502  501  0.00000000000E+00  0.00000000000E+00  0.37233322951E+03  0.37233322951E+03  0.00000000000E+00 0.  1.
         21   -1    0    0  501  502 -0.00000000000E+00 -0.00000000000E+00 -0.14373441458E+03  0.14373441458E+03  0.00000000000E+00 0.  1.
      99926    2    1    2    0    0  0.00000000000E+00  0.00000000000E+00  0.22859881493E+03  0.51606764409E+03  0.46267525879E+03 0.  0.
      99925    2    3    3    0    0  0.37972319344E+02  0.18346550527E+02  0.26740210460E+03  0.37847514306E+03  0.26450152252E+03 0.  0.
         25    1    4    4    0    0 -0.14052232224E+02 -0.14676821554E+02  0.14846232282E+03  0.19519591112E+03  0.12509000000E+03 0.  0.
         25    1    4    4    0    0  0.52024551568E+02  0.33023372081E+02  0.11893978177E+03  0.18327923193E+03  0.12509000000E+03 0.  0.
         25    1    3    3    0    0 -0.37972319344E+02 -0.18346550527E+02 -0.38803289668E+02  0.13759250104E+03  0.12509000000E+03 0.  0.
<mgrwt>
<rscale>  2 0.46267526E+03</rscale>
<asrwt>0</asrwt>
<pdfrwt beam="1">  1       21 0.54754886E-01 0.46267526E+03</pdfrwt>
<pdfrwt beam="2">  1       21 0.21137414E-01 0.46267526E+03</pdfrwt>
<totfact> 0.60392761E+04</totfact>
</mgrwt>
</event>
<event>
 7    0  0.4831799E-002  0.4479568E+03  0.7546771E-02  0.1028333E+00
         21   -1    0    0  502  501  0.00000000000E+00  0.00000000000E+00  0.24297884342E+02  0.24297884342E+02  0.00000000000E+00 0.  1.
         21   -1    0    0  501  502 -0.00000000000E+00 -0.00000000000E+00 -0.20646377036E+04  0.20646377036E+04  0.00000000000E+00 0.  1.
      99926    2    1    2    0    0  0.00000000000E+00  0.00000000000E+00 -0.20403398192E+04  0.20889355879E+04  0.44795681993E+03 0.  0.
      99925    2    3    3    0    0  0.42583683460E+02 -0.80072149197E+02 -0.15521063396E+04  0.15768375915E+04  0.26297867109E+03 0.  0.
         25    1    3    3    0    0 -0.42583683460E+02  0.80072149197E+02 -0.48823347966E+03  0.51209799642E+03  0.12509000000E+03 0.  0.
         25    1    4    4    0    0  0.45830823630E+02 -0.76631518412E+01 -0.71801001140E+03  0.73030478080E+03  0.12509000000E+03 0.  0.
         25    1    4    4    0    0 -0.32471401701E+01 -0.72408997356E+02 -0.83409632818E+03  0.84653281070E+03  0.12509000000E+03 0.  0.
<mgrwt>
<rscale>  2 0.44795682E+03</rscale>
<asrwt>0</asrwt>
<pdfrwt beam="1">  1       21 0.35732182E-02 0.44795682E+03</pdfrwt>
<pdfrwt beam="2">  1       21 0.30362320E+00 0.44795682E+03</pdfrwt>
<totfact> 0.13008585E+04</totfact>
</mgrwt>
</event>
<event>
 7    0  0.4831799E-002  0.4391882E+03  0.7546771E-02  0.1030996E+00
         21   -1    0    0  502  501  0.00000000000E+00  0.00000000000E+00  0.31530925422E+03  0.31530925422E+03  0.00000000000E+00 0.  1.
         21   -1    0    0  501  502 -0.00000000000E+00 -0.00000000000E+00 -0.15293423257E+03  0.15293423257E+03  0.00000000000E+00 0.  1.
      99926    2    1    2    0    0  0.88817841970E-15  0.00000000000E+00  0.16237502164E+03  0.46824348679E+03  0.43918824582E+03 0.  0.
      99925    2    3    3    0    0  0.70736224795E+01  0.42687868046E+02  0.19705699585E+03  0.33141279707E+03  0.26292716147E+03 0.  0.
         25    1    4    4    0    0 -0.77931478933E+01 -0.17098673606E+02  0.10420841508E+03  0.16389020613E+03  0.12509000000E+03 0.  0.
         25    1    3    3    0    0 -0.70736224795E+01 -0.42687868046E+02 -0.34681974202E+02  0.13683068972E+03  0.12509000000E+03 0.  0.
         25    1    4    4    0    0  0.14866770373E+02  0.59786541652E+02  0.92848580767E+02  0.16752259094E+03  0.12509000000E+03 0.  0.
<mgrwt>
<rscale>  2 0.43918825E+03</rscale>
<asrwt>0</asrwt>
<pdfrwt beam="1">  1       21 0.46369008E-01 0.43918825E+03</pdfrwt>
<pdfrwt beam="2">  1       21 0.22490328E-01 0.43918825E+03</pdfrwt>
<totfact> 0.76755599E+04</totfact>
</mgrwt>
</event>
<event>
 7    0  0.4831799E-002  0.4585392E+03  0.7546771E-02  0.1025206E+00
         21   -1    0    0  502  501  0.00000000000E+00  0.00000000000E+00  0.68618858326E+03  0.68618858326E+03  0.00000000000E+00 0.  1.
         21   -1    0    0  501  502 -0.00000000000E+00 -0.00000000000E+00 -0.76603663760E+02  0.76603663760E+02  0.00000000000E+00 0.  1.
      99926    2    1    2    0    0  0.00000000000E+00  0.00000000000E+00  0.60958491950E+03  0.76279224702E+03  0.45853924372E+03 0.  0.
      99925    2    3    3    0    0 -0.72377818503E+02 -0.12041262274E+02  0.23215411171E+03  0.35845938492E+03  0.26308564849E+03 0.  0.
         25    1    4    4    0    0 -0.18478653038E+02 -0.82149400110E+01  0.16054655216E+03  0.20452786942E+03  0.12509000000E+03 0.  0.
         25    1    4    4    0    0 -0.53899165465E+02 -0.38263222626E+01  0.71607559552E+02  0.15393151550E+03  0.12509000000E+03 0.  0.
         25    1    3    3    0    0  0.72377818503E+02  0.12041262274E+02  0.37743080779E+03  0.40433286210E+03  0.12509000000E+03 0.  0.
<mgrwt>
<rscale>  2 0.45853924E+03</rscale>
<asrwt>0</asrwt>
<pdfrwt beam="1">  1       21 0.10091008E+00 0.45853924E+03</pdfrwt>
<pdfrwt beam="2">  1       21 0.11265245E-01 0.45853924E+03</pdfrwt>
<totfact> 0.48261803E+04</totfact>
</mgrwt>
</event>
<event>
 7    0  0.4831799E-002  0.4552346E+03  0.7546771E-02  0.1026172E+00
         21   -1    0    0  502  501  0.00000000000E+00  0.00000000000E+00  0.14750860160E+03  0.14750860160E+03  0.00000000000E+00 0. -1.
         21   -1    0    0  501  502 -0.00000000000E+00 -0.00000000000E+00 -0.35123125696E+03  0.35123125696E+03  0.00000000000E+00 0. -1.
      99926    2    1    2    0    0  0.00000000000E+00  0.00000000000E+00 -0.20372265535E+03  0.49873985856E+03  0.45523458372E+03 0.  0.
      99925    2    3    3    0    0 -0.73365625123E+02  0.83427923944E+02 -0.15287710436E+03  0.32388131116E+03  0.26303034281E+03 0.  0.
         25    1    3    3    0    0  0.73365625123E+02 -0.83427923944E+02 -0.50845550990E+02  0.17485854740E+03  0.12509000000E+03 0.  0.
         25    1    4    4    0    0 -0.30698448036E+02  0.54730910891E+02 -0.12082436215E+03  0.18488889071E+03  0.12509000000E+03 0.  0.
         25    1    4    4    0    0 -0.42667177087E+02  0.28697013053E+02 -0.32052742210E+02  0.13899242045E+03  0.12509000000E+03 0.  0.
<mgrwt>
<rscale>  2 0.45523458E+03</rscale>
<asrwt>0</asrwt>
<pdfrwt beam="1">  1       21 0.21692441E-01 0.45523458E+03</pdfrwt>
<pdfrwt beam="2">  1       21 0.51651656E-01 0.45523458E+03</pdfrwt>
<totfact> 0.65237711E+04</totfact>
</mgrwt>
</event>
<event>
 7    0  0.4831799E-002  0.4575908E+03  0.7546771E-02  0.1025482E+00
         21   -1    0    0  502  501  0.00000000000E+00  0.00000000000E+00  0.13377474090E+03  0.13377474090E+03  0.00000000000E+00 0. -1.
         21   -1    0    0  501  502 -0.00000000000E+00 -0.00000000000E+00 -0.39130960026E+03  0.39130960026E+03  0.00000000000E+00 0. -1.
      99926    2    1    2    0    0  0.00000000000E+00  0.00000000000E+00 -0.25753485936E+03  0.52508434116E+03  0.45759082327E+03 0.  0.
      99925    2    3    3    0    0  0.19884595100E+02 -0.10723121521E+03 -0.11761934707E+03  0.30801801646E+03  0.26295789971E+03 0.  0.
         25    1    4    4    0    0  0.28313964220E+02 -0.68115111823E+02 -0.98079755137E+02  0.17523839618E+03  0.12509000000E+03 0.  0.
         25    1    3    3    0    0 -0.19884595100E+02  0.10723121521E+03 -0.13991551229E+03  0.21706632470E+03  0.12509000000E+03 0.  0.
         25    1    4    4    0    0 -0.84293691207E+01 -0.39116103389E+02 -0.19539591930E+02  0.13277962028E+03  0.12509000000E+03 0.  0.
<mgrwt>
<rscale>  2 0.45759082E+03</rscale>
<asrwt>0</asrwt>
<pdfrwt beam="1">  1       21 0.19672756E-01 0.45759082E+03</pdfrwt>
<pdfrwt beam="2">  1       21 0.57545529E-01 0.45759082E+03</pdfrwt>
<totfact> 0.62252029E+04</totfact>
</mgrwt>
</event>
<event>
 7    0  0.4831799E-002  0.4626598E+03  0.7546771E-02  0.1024013E+00
         21   -1    0    0  502  501  0.00000000000E+00  0.00000000000E+00  0.73919752740E+02  0.73919752740E+02  0.00000000000E+00 0.  1.
         21   -1    0    0  501  502 -0.00000000000E+00 -0.00000000000E+00 -0.72394085709E+03  0.72394085709E+03  0.00000000000E+00 0.  1.
      99926    2    1    2    0    0  0.00000000000E+00  0.00000000000E+00 -0.65002110435E+03  0.79786060983E+03  0.46265982819E+03 0.  0.
      99925    2    3    3    0    0  0.12759141228E+02  0.19324438588E+02 -0.20332355514E+03  0.33340131324E+03  0.26321044430E+03 0.  0.
         25    1    3    3    0    0 -0.12759141228E+02 -0.19324438588E+02 -0.44669754921E+03  0.46445929659E+03  0.12509000000E+03 0.  0.
         25    1    4    4    0    0  0.49188863453E+01  0.50623772437E+02 -0.10517508467E+03  0.17116152697E+03  0.12509000000E+03 0.  0.
         25    1    4    4    0    0  0.78402548828E+01 -0.31299333849E+02 -0.98148470471E+02  0.16223978628E+03  0.12509000000E+03 0.  0.
<mgrwt>
<rscale>  2 0.46265983E+03</rscale>
<asrwt>0</asrwt>
<pdfrwt beam="1">  1       21 0.10870551E-01 0.46265983E+03</pdfrwt>
<pdfrwt beam="2">  1       21 0.10646190E+00 0.46265983E+03</pdfrwt>
<totfact> 0.45095865E+04</totfact>
</mgrwt>
</event>
<event>
 7    0  0.4831799E-002  0.4540847E+03  0.7546771E-02  0.1026511E+00
         21   -1    0    0  502  501  0.00000000000E+00  0.00000000000E+00  0.59765059074E+02  0.59765059074E+02  0.00000000000E+00 0. -1.
         21   -1    0    0  501  502 -0.00000000000E+00 -0.00000000000E+00 -0.86251452273E+03  0.86251452273E+03  0.00000000000E+00 0. -1.
      99926    2    1    2    0    0  0.14210854715E-13  0.71054273576E-14 -0.80274946366E+03  0.92227958181E+03  0.45408471194E+03 0.  0.
      99925    2    3    3    0    0  0.92704247289E+02 -0.49777091952E+02 -0.42581541501E+03  0.51142848776E+03  0.26299903818E+03 0.  0.
         25    1    4    4    0    0  0.25918610119E+02  0.27926142318E+01 -0.23955638858E+03  0.27150385717E+03  0.12509000000E+03 0.  0.
         25    1    3    3    0    0 -0.92704247289E+02  0.49777091952E+02 -0.37693404865E+03  0.41085109405E+03  0.12509000000E+03 0.  0.
         25    1    4    4    0    0  0.66785637170E+02 -0.52569706184E+02 -0.18625902642E+03  0.23992463059E+03  0.12509000000E+03 0.  0.
<mgrwt>
<rscale>  2 0.45408471E+03</rscale>
<asrwt>0</asrwt>
<pdfrwt beam="1">  1       21 0.87889797E-02 0.45408471E+03</pdfrwt>
<pdfrwt beam="2">  1       21 0.12684037E+00 0.45408471E+03</pdfrwt>
<totfact> 0.42588317E+04</totfact>
</mgrwt>
</event>
<event>
 7    0  0.4831799E-002  0.4297741E+03  0.7546771E-02  0.1033931E+00
         21   -1    0    0  502  501  0.00000000000E+00  0.00000000000E+00  0.18831205656E+04  0.18831205656E+04  0.00000000000E+00 0. -1.
         21   -1    0    0  501  502 -0.00000000000E+00 -0.00000000000E+00 -0.24521235954E+02  0.24521235954E+02  0.00000000000E+00 0. -1.
      99926    2    1    2    0    0  0.00000000000E+00  0.00000000000E+00  0.18585993296E+04  0.19076418015E+04  0.42977409748E+03 0.  0.
      99925    2    3    3    0    0  0.38980123220E+02  0.60498309835E+01  0.85093517984E+03  0.89147715084E+03  0.26283983662E+03 0.  0.
         25    1    4    4    0    0  0.17976957890E+02  0.12708723365E+02  0.55655904186E+03  0.57086789877E+03  0.12509000000E+03 0.  0.
         25    1    4    4    0    0  0.21003165329E+02 -0.66588923810E+01  0.29437613798E+03  0.32060925207E+03  0.12509000000E+03 0.  0.
         25    1    3    3    0    0 -0.38980123220E+02 -0.60498309835E+01  0.10076641498E+04  0.10161646507E+04  0.12509000000E+03 0.  0.
<mgrwt>
<rscale>  2 0.42977410E+03</rscale>
<asrwt>0</asrwt>
<pdfrwt beam="1">  1       21 0.27692940E+00 0.42977410E+03</pdfrwt>
<pdfrwt beam="2">  1       21 0.36060654E-02 0.42977410E+03</pdfrwt>
<totfact> 0.18674149E+04</totfact>
</mgrwt>
</event>
<event>
 7    0  0.4831799E-002  0.4544904E+03  0.7546771E-02  0.1026391E+00
         21   -1    0    0  502  501  0.00000000000E+00  0.00000000000E+00  0.14013848002E+03  0.14013848002E+03  0.00000000000E+00 0. -1.
         21   -1    0    0  501  502 -0.00000000000E+00 -0.00000000000E+00 -0.36849529822E+03  0.36849529822E+03  0.00000000000E+00 0. -1.
      99926    2    1    2    0    0  0.00000000000E+00  0.00000000000E+00 -0.22835681820E+03  0.50863377823E+03  0.45449035627E+03 0.  0.
      99925    2    3    3    0    0 -0.97715639179E+02  0.55627031685E+02 -0.13564543799E+03  0.31657748202E+03  0.26301882914E+03 0.  0.
         25    1    3    3    0    0  0.97715639179E+02 -0.55627031685E+02 -0.92711380212E+02  0.19205629621E+03  0.12509000000E+03 0.  0.
         25    1    4    4    0    0 -0.78520347719E+02  0.17731143715E+02 -0.41744766797E+02  0.15449910070E+03  0.12509000000E+03 0.  0.
         25    1    4    4    0    0 -0.19195291459E+02  0.37895887970E+02 -0.93900671193E+02  0.16207838132E+03  0.12509000000E+03 0.  0.
<mgrwt>
<rscale>  2 0.45449036E+03</rscale>
<asrwt>0</asrwt>
<pdfrwt beam="1">  1       21 0.20608600E-01 0.45449036E+03</pdfrwt>
<pdfrwt beam="2">  1       21 0.54190485E-01 0.45449036E+03</pdfrwt>
<totfact> 0.64930503E+04</totfact>
</mgrwt>
</event>
<event>
 7    0  0.4831799E-002  0.4507038E+03  0.7546771E-02  0.1027512E+00
         21   -1    0    0  502  501  0.00000000000E+00  0.00000000000E+00  0.51111750657E+03  0.51111750657E+03  0.00000000000E+00 0. -1.
         21   -1    0    0  501  502 -0.00000000000E+00 -0.00000000000E+00 -0.99357732500E+02  0.99357732500E+02  0.00000000000E+00 0. -1.
      99926    2    1    2    0    0  0.00000000000E+00  0.00000000000E+00  0.41175977407E+03  0.61047523907E+03  0.45070378962E+03 0.  0.
      99925    2    3    3    0    0  0.70333771468E+02  0.25384438971E+02  0.15257864956E+03  0.31313104028E+03  0.26302014169E+03 0.  0.
         25    1    3    3    0    0 -0.70333771468E+02 -0.25384438971E+02  0.25918112451E+03  0.29734419879E+03  0.12509000000E+03 0.  0.
         25    1    4    4    0    0  0.41560994011E+02 -0.95603457858E+01  0.37876093254E+02  0.13748026395E+03  0.12509000000E+03 0.  0.
         25    1    4    4    0    0  0.28772777457E+02  0.34944784757E+02  0.11470255631E+03  0.17565077634E+03  0.12509000000E+03 0.  0.
<mgrwt>
<rscale>  2 0.45070379E+03</rscale>
<asrwt>0</asrwt>
<pdfrwt beam="1">  1       21 0.75164338E-01 0.45070379E+03</pdfrwt>
<pdfrwt beam="2">  1       21 0.14611431E-01 0.45070379E+03</pdfrwt>
<totfact> 0.60050031E+04</totfact>
</mgrwt>
</event>
<event>
 7    0  0.4831799E-002  0.4580072E+03  0.7546771E-02  0.1025361E+00
         21   -1    0    0  502  501  0.00000000000E+00  0.00000000000E+00  0.19582640718E+02  0.19582640718E+02  0.00000000000E+00 0.  1.
         21   -1    0    0  501  502 -0.00000000000E+00 -0.00000000000E+00 -0.26780171064E+04  0.26780171064E+04  0.00000000000E+00 0.  1.
      99926    2    1    2    0    0  0.00000000000E+00  0.00000000000E+00 -0.26584344656E+04  0.26975997471E+04  0.45800719134E+03 0.  0.
      99925    2    3    3    0    0 -0.10358746169E+03  0.51352024436E+02 -0.16138337832E+04  0.16392021438E+04  0.26297679748E+03 0.  0.
         25    1    4    4    0    0 -0.32609878953E+02  0.27202683635E+02 -0.56262869736E+03  0.57792901761E+03  0.12509000000E+03 0.  0.
         25    1    3    3    0    0  0.10358746169E+03 -0.51352024436E+02 -0.10446006825E+04  0.10583976032E+04  0.12509000000E+03 0.  0.
         25    1    4    4    0    0 -0.70977582736E+02  0.24149340802E+02 -0.10512050858E+04  0.10612731262E+04  0.12509000000E+03 0.  0.
<mgrwt>
<rscale>  2 0.45800719E+03</rscale>
<asrwt>0</asrwt>
<pdfrwt beam="1">  1       21 0.28798014E-02 0.45800719E+03</pdfrwt>
<pdfrwt beam="2">  1       21 0.39382586E+00 0.45800719E+03</pdfrwt>
<totfact> 0.51917228E+03</totfact>
</mgrwt>
</event>
<event>
 7    0  0.4831799E-002  0.4570443E+03  0.7546771E-02  0.1025642E+00
         21   -1    0    0  502  501  0.00000000000E+00  0.00000000000E+00  0.11355278297E+04  0.11355278297E+04  0.00000000000E+00 0. -1.
         21   -1    0    0  501  502 -0.00000000000E+00 -0.00000000000E+00 -0.45989522913E+02  0.45989522913E+02  0.00000000000E+00 0. -1.
      99926    2    1    2    0    0  0.88817841970E-15  0.35527136788E-14  0.10895383068E+04  0.11815173526E+04  0.45704434420E+03 0.  0.
      99925    2    3    3    0    0 -0.61984426765E+01 -0.23722894783E+02  0.97501315085E+03  0.10101559921E+04  0.26298913980E+03 0.  0.
         25    1    4    4    0    0  0.23281960940E+02  0.63174490948E+00  0.37329294024E+03  0.39438252515E+03  0.12509000000E+03 0.  0.
         25    1    3    3    0    0  0.61984426765E+01  0.23722894783E+02  0.11452515594E+03  0.17136136050E+03  0.12509000000E+03 0.  0.
         25    1    4    4    0    0 -0.29480403616E+02 -0.24354639692E+02  0.60172021060E+03  0.61577346697E+03  0.12509000000E+03 0.  0.
<mgrwt>
<rscale>  2 0.45704434E+03</rscale>
<asrwt>0</asrwt>
<pdfrwt beam="1">  1       21 0.16698937E+00 0.45704434E+03</pdfrwt>
<pdfrwt beam="2">  1       21 0.67631658E-02 0.45704434E+03</pdfrwt>
<totfact> 0.32230864E+04</totfact>
</mgrwt>
</event>
<event>
 7    0  0.4831799E-002  0.4512897E+03  0.7546771E-02  0.1027338E+00
         21   -1    0    0  502  501  0.00000000000E+00  0.00000000000E+00  0.96587725456E+02  0.96587725456E+02  0.00000000000E+00 0. -1.
         21   -1    0    0  501  502 -0.00000000000E+00 -0.00000000000E+00 -0.52714356800E+03  0.52714356800E+03  0.00000000000E+00 0. -1.
      99926    2    1    2    0    0 -0.71054273576E-14  0.71054273576E-14 -0.43055584254E+03  0.62373129346E+03  0.45128969951E+03 0.  0.
      99925    2    3    3    0    0 -0.46967834197E+02  0.60386631352E+02 -0.16332864062E+03  0.31891920668E+03  0.26302222881E+03 0.  0.
         25    1    4    4    0    0 -0.49240660183E+02  0.17580075116E+01 -0.64977820910E+02  0.14932300063E+03  0.12509000000E+03 0.  0.
         25    1    3    3    0    0  0.46967834197E+02 -0.60386631352E+02 -0.26722720192E+03  0.30481208677E+03  0.12509000000E+03 0.  0.
         25    1    4    4    0    0  0.22728259866E+01  0.58628623841E+02 -0.98350819710E+02  0.16959620606E+03  0.12509000000E+03 0.  0.
<mgrwt>
<rscale>  2 0.45128970E+03</rscale>
<asrwt>0</asrwt>
<pdfrwt beam="1">  1       21 0.14204078E-01 0.45128970E+03</pdfrwt>
<pdfrwt beam="2">  1       21 0.77521111E-01 0.45128970E+03</pdfrwt>
<totfact> 0.58948796E+04</totfact>
</mgrwt>
</event>
<event>
 7    0  0.4831799E-002  0.4570605E+03  0.7546771E-02  0.1025637E+00
         21   -1    0    0  502  501  0.00000000000E+00  0.00000000000E+00  0.49369386313E+02  0.49369386313E+02  0.00000000000E+00 0.  1.
         21   -1    0    0  501  502 -0.00000000000E+00 -0.00000000000E+00 -0.10578634744E+04  0.10578634744E+04  0.00000000000E+00 0.  1.
      99926    2    1    2    0    0  0.00000000000E+00  0.00000000000E+00 -0.10084940881E+04  0.11072328607E+04  0.45706047974E+03 0.  0.
      99925    2    3    3    0    0  0.98634565614E+02  0.55725978648E+02 -0.68239282190E+03  0.74004938323E+03  0.26301894230E+03 0.  0.
         25    1    3    3    0    0 -0.98634565614E+02 -0.55725978648E+02 -0.32610126620E+03  0.36718347750E+03  0.12509000000E+03 0.  0.
         25    1    4    4    0    0  0.43512977787E+02 -0.13444107306E+02 -0.32459261439E+03  0.35083043863E+03  0.12509000000E+03 0.  0.
         25    1    4    4    0    0  0.55121587827E+02  0.69170085954E+02 -0.35780020752E+03  0.38921894460E+03  0.12509000000E+03 0.  0.
<mgrwt>
<rscale>  2 0.45706048E+03</rscale>
<asrwt>0</asrwt>
<pdfrwt beam="1">  1       21 0.72602043E-02 0.45706048E+03</pdfrwt>
<pdfrwt beam="2">  1       21 0.15556815E+00 0.45706048E+03</pdfrwt>
<totfact> 0.34682077E+04</totfact>
</mgrwt>
</event>
<event>
 6    0  0.4831799E-002  0.4513487E+03  0.7546771E-02  0.1027321E+00
         21   -1    0    0  502  501  0.00000000000E+00  0.00000000000E+00  0.18114763730E+03  0.18114763730E+03  0.00000000000E+00 0. -1.
         21   -1    0    0  501  502 -0.00000000000E+00 -0.00000000000E+00 -0.28114583183E+03  0.28114583183E+03  0.00000000000E+00 0. -1.
      99926    2    1    2    0    0  0.00000000000E+00 -0.14210854715E-13 -0.99998194528E+02  0.46229346913E+03  0.45134865978E+03 0.  0.
         25    1    3    3    0    0 -0.10937157154E+01  0.30219995187E+02 -0.10861532752E+03  0.16840202432E+03  0.12509000000E+03 0.  0.
         25    1    3    3    0    0 -0.14930435853E+02  0.57074774170E+02 -0.13359068742E+02  0.13894754614E+03  0.12509000000E+03 0.  0.
         25    1    3    3    0    0  0.16024151568E+02 -0.87294769357E+02  0.21976201731E+02  0.15494389866E+03  0.12509000000E+03 0.  0.
<mgrwt>
<rscale>  2 0.45134866E+03</rscale>
<asrwt>0</asrwt>
<pdfrwt beam="1">  1       21 0.26639359E-01 0.45134866E+03</pdfrwt>
<pdfrwt beam="2">  1       21 0.41344975E-01 0.45134866E+03</pdfrwt>
<totfact> 0.70019733E+04</totfact>
</mgrwt>
</event>
<event>
 7    0  0.4831799E-002  0.4576342E+03  0.7546771E-02  0.1025470E+00
         21   -1    0    0  502  501  0.00000000000E+00  0.00000000000E+00  0.42336756793E+03  0.42336756793E+03  0.00000000000E+00 0. -1.
         21   -1    0    0  501  502 -0.00000000000E+00 -0.00000000000E+00 -0.12366855264E+03  0.12366855264E+03  0.00000000000E+00 0. -1.
      99926    2    1    2    0    0  0.00000000000E+00  0.00000000000E+00  0.29969901529E+03  0.54703612057E+03  0.45763415240E+03 0.  0.
      99925    2    3    3    0    0 -0.59483033813E+02  0.78078655940E+02  0.26159584469E+03  0.38353117405E+03  0.26273421492E+03 0.  0.
         25    1    3    3    0    0  0.59483033813E+02 -0.78078655940E+02  0.38103170603E+02  0.16350494652E+03  0.12509000000E+03 0.  0.
         25    1    4    4    0    0 -0.18140760934E+02  0.63244593503E+00  0.13652329182E+03  0.18605269282E+03  0.12509000000E+03 0.  0.
         25    1    4    4    0    0 -0.41342272879E+02  0.77446210005E+02  0.12507255286E+03  0.19747848124E+03  0.12509000000E+03 0.  0.
<mgrwt>
<rscale>  2 0.45763415E+03</rscale>
<asrwt>0</asrwt>
<pdfrwt beam="1">  1       21 0.62259936E-01 0.45763415E+03</pdfrwt>
<pdfrwt beam="2">  1       21 0.18186552E-01 0.45763415E+03</pdfrwt>
<totfact> 0.60785900E+04</totfact>
</mgrwt>
</event>
<event>
 7    0  0.4831799E-002  0.4582011E+03  0.7546771E-02  0.1025304E+00
         21   -1    0    0  502  501  0.00000000000E+00  0.00000000000E+00  0.24615709737E+02  0.24615709737E+02  0.00000000000E+00 0.  1.
         21   -1    0    0  501  502 -0.00000000000E+00 -0.00000000000E+00 -0.21322584096E+04  0.21322584096E+04  0.00000000000E+00 0.  1.
      99926    2    1    2    0    0  0.00000000000E+00 -0.14210854715E-13 -0.21076426999E+04  0.21568741194E+04  0.45820106546E+03 0.  0.
      99925    2    3    3    0    0  0.16473143910E+02  0.10482717173E+03 -0.15447494325E+04  0.15705666582E+04  0.26299946455E+03 0.  0.
         25    1    3    3    0    0 -0.16473143910E+02 -0.10482717173E+03 -0.56289326743E+03  0.58630746117E+03  0.12509000000E+03 0.  0.
         25    1    4    4    0    0  0.29717796852E+02  0.27295860046E+02 -0.59104956009E+03  0.60548765636E+03  0.12509000000E+03 0.  0.
         25    1    4    4    0    0 -0.13244652942E+02  0.77531311682E+02 -0.95369987238E+03  0.96507900184E+03  0.12509000000E+03 0.  0.
<mgrwt>
<rscale>  2 0.45820107E+03</rscale>
<asrwt>0</asrwt>
<pdfrwt beam="1">  1       21 0.36199564E-02 0.45820107E+03</pdfrwt>
<pdfrwt beam="2">  1       21 0.31356749E+00 0.45820107E+03</pdfrwt>
<totfact> 0.11036586E+04</totfact>
</mgrwt>
</event>
<event>
 7    0  0.4831799E-002  0.4606702E+03  0.7546771E-02  0.1024587E+00
         21   -1    0    0  502  501  0.00000000000E+00  0.00000000000E+00  0.60021404643E+03  0.60021404643E+03  0.00000000000E+00 0.  1.
         21   -1    0    0  501  502 -0.00000000000E+00 -0.00000000000E+00 -0.88392215780E+02  0.88392215780E+02  0.00000000000E+00 0.  1.
      99926    2    1    2    0    0  0.71054273576E-14  0.00000000000E+00  0.51182183066E+03  0.68860626221E+03  0.46067016186E+03 0.  0.
      99925    2    3    3    0    0  0.34346037236E+02  0.67401812848E+02  0.18447702430E+03  0.33010272667E+03  0.26308436482E+03 0.  0.
         25    1    4    4    0    0  0.57495180433E+02  0.40336045804E+02  0.90064092689E+02  0.16938636680E+03  0.12509000000E+03 0.  0.
         25    1    4    4    0    0 -0.23149143196E+02  0.27065767044E+02  0.94412931607E+02  0.16071635987E+03  0.12509000000E+03 0.  0.
         25    1    3    3    0    0 -0.34346037236E+02 -0.67401812848E+02  0.32734480636E+03  0.35850353555E+03  0.12509000000E+03 0.  0.
<mgrwt>
<rscale>  2 0.46067016E+03</rscale>
<asrwt>0</asrwt>
<pdfrwt beam="1">  1       21 0.88266769E-01 0.46067016E+03</pdfrwt>
<pdfrwt beam="2">  1       21 0.12998856E-01 0.46067016E+03</pdfrwt>
<totfact> 0.51201540E+04</totfact>
</mgrwt>
</event>
<event>
 7    0  0.4831799E-002  0.4564469E+03  0.7546771E-02  0.1025817E+00
         21   -1    0    0  502  501  0.00000000000E+00  0.00000000000E+00  0.37872937417E+03  0.37872937417E+03  0.00000000000E+00 0.  1.
         21   -1    0    0  501  502 -0.00000000000E+00 -0.00000000000E+00 -0.13752815093E+03  0.13752815093E+03  0.00000000000E+00 0.  1.
      99926    2    1    2    0    0  0.00000000000E+00 -0.14210854715E-13  0.24120122324E+03  0.51625752510E+03  0.45644693244E+03 0.  0.
      99925    2    3    3    0    0  0.29746927500E+02  0.64653162612E+02  0.50591375054E+02  0.27741755052E+03  0.26331748703E+03 0.  0.
         25    1    4    4    0    0  0.22526894810E+02 -0.76573269611E+01  0.34060878086E+02  0.13180951089E+03  0.12509000000E+03 0.  0.
         25    1    3    3    0    0 -0.29746927500E+02 -0.64653162612E+02  0.19060984818E+03  0.23883997458E+03  0.12509000000E+03 0.  0.
         25    1    4    4    0    0  0.72200326896E+01  0.72310489573E+02  0.16530496968E+02  0.14560803963E+03  0.12509000000E+03 0.  0.
<mgrwt>
<rscale>  2 0.45644693E+03</rscale>
<asrwt>0</asrwt>
<pdfrwt beam="1">  1       21 0.55695496E-01 0.45644693E+03</pdfrwt>
<pdfrwt beam="2">  1       21 0.20224728E-01 0.45644693E+03</pdfrwt>
<totfact> 0.63411778E+04</totfact>
</mgrwt>
</event>
<event>
 6    0  0.4831799E-002  0.4586198E+03  0.7546771E-02  0.1025182E+00
         21   -1    0    0  502  501  0.00000000000E+00  0.00000000000E+00  0.19255893457E+03  0.19255893457E+03  0.00000000000E+00 0. -1.
         21   -1    0    0  501  502 -0.00000000000E+00 -0.00000000000E+00 -0.27307501012E+03  0.27307501012E+03  0.00000000000E+00 0. -1.
      99926    2    1    2    0    0 -0.71054273576E-14  0.00000000000E+00 -0.80516075550E+02  0.46563394470E+03  0.45861981208E+03 0.  0.
         25    1    3    3    0    0  0.44073043280E+02 -0.10913917888E+03 -0.48584510317E+02  0.17849861695E+03  0.12509000000E+03 0.  0.
         25    1    3    3    0    0 -0.32255798273E+02  0.82725811495E+02 -0.39871531132E+02  0.15849682490E+03  0.12509000000E+03 0.  0.
         25    1    3    3    0    0 -0.11817245007E+02  0.26413367383E+02  0.79399658987E+01  0.12863850285E+03  0.12509000000E+03 0.  0.
<mgrwt>
<rscale>  2 0.45861981E+03</rscale>
<asrwt>0</asrwt>
<pdfrwt beam="1">  1       21 0.28317491E-01 0.45861981E+03</pdfrwt>
<pdfrwt beam="2">  1       21 0.40158089E-01 0.45861981E+03</pdfrwt>
<totfact> 0.65847807E+04</totfact>
</mgrwt>
</event>
<event>
 7    0  0.4831799E-002  0.4335538E+03  0.7546771E-02  0.1032743E+00
         21   -1    0    0  502  501  0.00000000000E+00  0.00000000000E+00  0.75755584395E+02  0.75755584395E+02  0.00000000000E+00 0.  1.
         21   -1    0    0  501  502 -0.00000000000E+00 -0.00000000000E+00 -0.62031360596E+03  0.62031360596E+03  0.00000000000E+00 0.  1.
      99926    2    1    2    0    0 -0.71054273576E-14  0.00000000000E+00 -0.54455802156E+03  0.69606919035E+03  0.43355377857E+03 0.  0.
      99925    2    3    3    0    0  0.32828133228E+02  0.72867035815E+02 -0.42149116609E+03  0.50324738076E+03  0.26308901898E+03 0.  0.
         25    1    4    4    0    0 -0.39948466235E+01  0.67665118361E+02 -0.25132571147E+03  0.28880209208E+03  0.12509000000E+03 0.  0.
         25    1    4    4    0    0  0.36822979852E+02  0.52019174534E+01 -0.17016545463E+03  0.21444528868E+03  0.12509000000E+03 0.  0.
         25    1    3    3    0    0 -0.32828133228E+02 -0.72867035815E+02 -0.12306685547E+03  0.19282180959E+03  0.12509000000E+03 0.  0.
<mgrwt>
<rscale>  2 0.43355378E+03</rscale>
<asrwt>0</asrwt>
<pdfrwt beam="1">  1       21 0.11140527E-01 0.43355378E+03</pdfrwt>
<pdfrwt beam="2">  1       21 0.91222592E-01 0.43355378E+03</pdfrwt>
<totfact> 0.63114275E+04</totfact>
</mgrwt>
</event>
<event>
 7    0  0.4831799E-002  0.4505557E+03  0.7546771E-02  0.1027556E+00
         21   -1    0    0  502  501  0.00000000000E+00  0.00000000000E+00  0.96741469986E+03  0.96741469986E+03  0.00000000000E+00 0.  1.
         21   -1    0    0  501  502 -0.00000000000E+00 -0.00000000000E+00 -0.52459508704E+02  0.52459508704E+02  0.00000000000E+00 0.  1.
      99926    2    1    2    0    0  0.17763568394E-14 -0.14210854715E-13  0.91495519115E+03  0.10198742086E+04  0.45055565635E+03 0.  0.
      99925    2    3    3    0    0 -0.90558463565E+01  0.10526279477E+03  0.51847243795E+03  0.59091226852E+03  0.26306154386E+03 0.  0.
         25    1    4    4    0    0  0.94555156533E+01  0.68005269777E+02  0.34251616996E+03  0.37105115318E+03  0.12509000000E+03 0.  0.
         25    1    4    4    0    0 -0.18511362010E+02  0.37257524996E+02  0.17595626798E+03  0.21986111533E+03  0.12509000000E+03 0.  0.
         25    1    3    3    0    0  0.90558463565E+01 -0.10526279477E+03  0.39648275321E+03  0.42896194005E+03  0.12509000000E+03 0.  0.
<mgrwt>
<rscale>  2 0.45055566E+03</rscale>
<asrwt>0</asrwt>
<pdfrwt beam="1">  1       21 0.14226686E+00 0.45055566E+03</pdfrwt>
<pdfrwt beam="2">  1       21 0.77146342E-02 0.45055566E+03</pdfrwt>
<totfact> 0.39764596E+04</totfact>
</mgrwt>
</event>
<event>
 7    0  0.4831799E-002  0.4272832E+03  0.7546771E-02  0.1034722E+00
         21   -1    0    0  502  501  0.00000000000E+00  0.00000000000E+00  0.54672647435E+03  0.54672647435E+03  0.00000000000E+00 0. -1.
         21   -1    0    0  501  502 -0.00000000000E+00 -0.00000000000E+00 -0.83483669448E+02  0.83483669448E+02  0.00000000000E+00 0. -1.
      99926    2    1    2    0    0  0.35527136788E-14  0.14210854715E-13  0.46324280490E+03  0.63021014380E+03  0.42728319538E+03 0.  0.
      99925    2    3    3    0    0 -0.23005455709E+02  0.81247193860E+02  0.30279275391E+03  0.40993285385E+03  0.26311810151E+03 0.  0.
         25    1    4    4    0    0 -0.35954267323E+02  0.11902314814E+02  0.11961480212E+03  0.17717105695E+03  0.12509000000E+03 0.  0.
         25    1    3    3    0    0  0.23005455709E+02 -0.81247193860E+02  0.16045005099E+03  0.22027728995E+03  0.12509000000E+03 0.  0.
         25    1    4    4    0    0  0.12948811613E+02  0.69344879046E+02  0.18317795179E+03  0.23276179690E+03  0.12509000000E+03 0.  0.
<mgrwt>
<rscale>  2 0.42728320E+03</rscale>
<asrwt>0</asrwt>
<pdfrwt beam="1">  1       21 0.80400951E-01 0.42728320E+03</pdfrwt>
<pdfrwt beam="2">  1       21 0.12277010E-01 0.42728320E+03</pdfrwt>
<totfact> 0.71194960E+04</totfact>
</mgrwt>
</event>
<event>
 7    0  0.4831799E-002  0.4666344E+03  0.7546771E-02  0.1022874E+00
         21   -1    0    0  502  501  0.00000000000E+00  0.00000000000E+00  0.16637432005E+04  0.16637432005E+04  0.00000000000E+00 0. -1.
         21   -1    0    0  501  502 -0.00000000000E+00 -0.00000000000E+00 -0.32719537987E+02  0.32719537987E+02  0.00000000000E+00 0. -1.
      99926    2    1    2    0    0  0.28421709430E-13  0.35527136788E-14  0.16310236625E+04  0.16964627385E+04  0.46663437014E+03 0.  0.
      99925    2    3    3    0    0 -0.10552257976E+03 -0.30559662536E+02  0.81067190857E+03  0.85938841914E+03  0.26323108440E+03 0.  0.
         25    1    3    3    0    0  0.10552257976E+03  0.30559662536E+02  0.82035175394E+03  0.83707431935E+03  0.12509000000E+03 0.  0.
         25    1    4    4    0    0 -0.10742372537E+02 -0.25980895433E+02  0.36903581208E+03  0.39067293762E+03  0.12509000000E+03 0.  0.
         25    1    4    4    0    0 -0.94780207221E+02 -0.45787671036E+01  0.44163609649E+03  0.46871548151E+03  0.12509000000E+03 0.  0.
<mgrwt>
<rscale>  2 0.46663437E+03</rscale>
<asrwt>0</asrwt>
<pdfrwt beam="1">  1       21 0.24466806E+00 0.46663437E+03</pdfrwt>
<pdfrwt beam="2">  1       21 0.48116979E-02 0.46663437E+03</pdfrwt>
<totfact> 0.17683255E+04</totfact>
</mgrwt>
</event>
<event>
 7    0  0.4831799E-002  0.4533718E+03  0.7546771E-02  0.1026721E+00
         21   -1    0    0  502  501  0.00000000000E+00  0.00000000000E+00  0.91451172535E+03  0.91451172535E+03  0.00000000000E+00 0.  1.
         21   -1    0    0  501  502 -0.00000000000E+00 -0.00000000000E+00 -0.56190091865E+02  0.56190091865E+02  0.00000000000E+00 0.  1.
      99926    2    1    2    0    0  0.00000000000E+00  0.00000000000E+00  0.85832163348E+03  0.97070181721E+03  0.45337180265E+03 0.  0.
      99925    2    3    3    0    0 -0.61251887246E+02 -0.65370237930E+02  0.39868036013E+03  0.48599296649E+03  0.26309327667E+03 0.  0.
         25    1    3    3    0    0  0.61251887246E+02  0.65370237930E+02  0.45964127335E+03  0.48470885072E+03  0.12509000000E+03 0.  0.
         25    1    4    4    0    0 -0.43110878665E+02 -0.63266157661E+02  0.25869259386E+03  0.29737269676E+03  0.12509000000E+03 0.  0.
         25    1    4    4    0    0 -0.18141008581E+02 -0.21040802691E+01  0.13998776628E+03  0.18862026973E+03  0.12509000000E+03 0.  0.
<mgrwt>
<rscale>  2 0.45337180E+03</rscale>
<asrwt>0</asrwt>
<pdfrwt beam="1">  1       21 0.13448701E+00 0.45337180E+03</pdfrwt>
<pdfrwt beam="2">  1       21 0.82632494E-02 0.45337180E+03</pdfrwt>
<totfact> 0.40830981E+04</totfact>
</mgrwt>
</event>
<event>
 7    0  0.4831799E-002  0.4695294E+03  0.7546771E-02  0.1022053E+00
         21   -1    0    0  502  501  0.00000000000E+00  0.00000000000E+00  0.13141228672E+04  0.13141228672E+04  0.00000000000E+00 0.  1.
         21   -1    0    0  501  502 -0.00000000000E+00 -0.00000000000E+00 -0.41940120843E+02  0.41940120843E+02  0.00000000000E+00 0.  1.
      99926    2    1    2    0    0  0.00000000000E+00  0.00000000000E+00  0.12721827464E+04  0.13560629881E+04  0.46952943190E+03 0.  0.
      99925    2    3    3    0    0  0.11679073961E+03 -0.32665795999E+02  0.89242710840E+03  0.93824845534E+03  0.26301499775E+03 0.  0.
         25    1    3    3    0    0 -0.11679073961E+03  0.32665795999E+02  0.37975563798E+03  0.41781453273E+03  0.12509000000E+03 0.  0.
         25    1    4    4    0    0  0.42485817675E+02  0.22291880588E+02  0.42667379723E+03  0.44721360667E+03  0.12509000000E+03 0.  0.
         25    1    4    4    0    0  0.74304921935E+02 -0.54957676587E+02  0.46575331117E+03  0.49103484867E+03  0.12509000000E+03 0.  0.
<mgrwt>
<rscale>  2 0.46952943E+03</rscale>
<asrwt>0</asrwt>
<pdfrwt beam="1">  1       21 0.19325334E+00 0.46952943E+03</pdfrwt>
<pdfrwt beam="2">  1       21 0.61676657E-02 0.46952943E+03</pdfrwt>
<totfact> 0.24625772E+04</totfact>
</mgrwt>
</event>
<event>
 7    0  0.4831799E-002  0.4467091E+03  0.7546771E-02  0.1028708E+00
         21   -1    0    0  502  501  0.00000000000E+00  0.00000000000E+00  0.11115814045E+04  0.11115814045E+04  0.00000000000E+00 0. -1.
         21   -1    0    0  501  502 -0.00000000000E+00 -0.00000000000E+00 -0.44879524383E+02  0.44879524383E+02  0.00000000000E+00 0. -1.
      99926    2    1    2    0    0  0.00000000000E+00  0.00000000000E+00  0.10667018802E+04  0.11564609289E+04  0.44670905408E+03 0.  0.
      99925    2    3    3    0    0 -0.10040360777E+02 -0.65835275102E+02  0.88730264813E+03  0.92784184651E+03  0.26296275490E+03 0.  0.
         25    1    4    4    0    0 -0.18567920188E+02 -0.37520682934E+02  0.31925161981E+03  0.34542969496E+03  0.12509000000E+03 0.  0.
         25    1    3    3    0    0  0.10040360777E+02  0.65835275102E+02  0.17939923204E+03  0.22861908242E+03  0.12509000000E+03 0.  0.
         25    1    4    4    0    0  0.85275594106E+01 -0.28314592168E+02  0.56805102832E+03  0.58241215155E+03  0.12509000000E+03 0.  0.
<mgrwt>
<rscale>  2 0.44670905E+03</rscale>
<asrwt>0</asrwt>
<pdfrwt beam="1">  1       21 0.16346783E+00 0.44670905E+03</pdfrwt>
<pdfrwt beam="2">  1       21 0.65999308E-02 0.44670905E+03</pdfrwt>
<totfact> 0.35826877E+04</totfact>
</mgrwt>
</event>
<event>
 7    0  0.4831799E-002  0.4533876E+03  0.7546771E-02  0.1026717E+00
         21   -1    0    0  502  501  0.00000000000E+00  0.00000000000E+00  0.29563338076E+03  0.29563338076E+03  0.00000000000E+00 0.  1.
         21   -1    0    0  501  502 -0.00000000000E+00 -0.00000000000E+00 -0.17383044988E+03  0.17383044988E+03  0.00000000000E+00 0.  1.
      99926    2    1    2    0    0  0.17763568394E-14  0.00000000000E+00  0.12180293088E+03  0.46946383064E+03  0.45338762037E+03 0.  0.
      99925    2    3    3    0    0 -0.12043025835E+02 -0.11079810468E+03  0.71131894415E+02  0.29443150074E+03  0.26307585931E+03 0.  0.
         25    1    4    4    0    0 -0.36285272725E+02 -0.85500684825E+02  0.39436012161E+02  0.16071619482E+03  0.12509000000E+03 0.  0.
         25    1    3    3    0    0  0.12043025835E+02  0.11079810468E+03  0.50671036467E+02  0.17503232990E+03  0.12509000000E+03 0.  0.
         25    1    4    4    0    0  0.24242246891E+02 -0.25297419855E+02  0.31695882253E+02  0.13371530592E+03  0.12509000000E+03 0.  0.
<mgrwt>
<rscale>  2 0.45338762E+03</rscale>
<asrwt>0</asrwt>
<pdfrwt beam="1">  1       21 0.43475498E-01 0.45338762E+03</pdfrwt>
<pdfrwt beam="2">  1       21 0.25563301E-01 0.45338762E+03</pdfrwt>
<totfact> 0.68345668E+04</totfact>
</mgrwt>
</event>
<event>
 7    0  0.4831799E-002  0.4534253E+03  0.7546771E-02  0.1026705E+00
         21   -1    0    0  502  501  0.00000000000E+00  0.00000000000E+00  0.44479247036E+03  0.44479247036E+03  0.00000000000E+00 0.  1.
         21   -1    0    0  501  502 -0.00000000000E+00 -0.00000000000E+00 -0.11555644462E+03  0.11555644462E+03  0.00000000000E+00 0.  1.
      99926    2    1    2    0    0 -0.71054273576E-14  0.00000000000E+00  0.32923602574E+03  0.56034891498E+03  0.45342534763E+03 0.  0.
      99925    2    3    3    0    0 -0.40011707659E+02  0.98122280841E+02  0.16382343948E+03  0.32745891833E+03  0.26298727179E+03 0.  0.
         25    1    3    3    0    0  0.40011707659E+02 -0.98122280841E+02  0.16541258625E+03  0.23288999665E+03  0.12509000000E+03 0.  0.
         25    1    4    4    0    0 -0.44965302490E+02  0.17695088235E+02  0.88633490898E+02  0.16074326855E+03  0.12509000000E+03 0.  0.
         25    1    4    4    0    0  0.49535948314E+01  0.80427192606E+02  0.75189948586E+02  0.16671564978E+03  0.12509000000E+03 0.  0.
<mgrwt>
<rscale>  2 0.45342535E+03</rscale>
<asrwt>0</asrwt>
<pdfrwt beam="1">  1       21 0.65410657E-01 0.45342535E+03</pdfrwt>
<pdfrwt beam="2">  1       21 0.16993595E-01 0.45342535E+03</pdfrwt>
<totfact> 0.61955856E+04</totfact>
</mgrwt>
</event>
<event>
 7    0  0.4831799E-002  0.4580253E+03  0.7546771E-02  0.1025355E+00
         21   -1    0    0  502  501  0.00000000000E+00  0.00000000000E+00  0.16764073026E+03  0.16764073026E+03  0.00000000000E+00 0.  1.
         21   -1    0    0  501  502 -0.00000000000E+00 -0.00000000000E+00 -0.31285234998E+03  0.31285234998E+03  0.00000000000E+00 0.  1.
      99926    2    1    2    0    0  0.00000000000E+00 -0.71054273576E-14 -0.14521161973E+03  0.48049308024E+03  0.45802531115E+03 0.  0.
      99925    2    3    3    0    0 -0.12150968115E+02  0.56763362512E+02  0.14021787445E+02  0.26984524282E+03  0.26315417382E+03 0.  0.
         25    1    3    3    0    0  0.12150968115E+02 -0.56763362512E+02 -0.15923340717E+03  0.21064783742E+03  0.12509000000E+03 0.  0.
         25    1    4    4    0    0  0.14855447185E+01  0.39581330117E+02  0.45723130205E+02  0.13894963574E+03  0.12509000000E+03 0.  0.
         25    1    4    4    0    0 -0.13636512833E+02  0.17182032395E+02 -0.31701342760E+02  0.13089560708E+03  0.12509000000E+03 0.  0.
<mgrwt>
<rscale>  2 0.45802531E+03</rscale>
<asrwt>0</asrwt>
<pdfrwt beam="1">  1       21 0.24653049E-01 0.45802531E+03</pdfrwt>
<pdfrwt beam="2">  1       21 0.46007699E-01 0.45802531E+03</pdfrwt>
<totfact> 0.65087236E+04</totfact>
</mgrwt>
</event>
<event>
 7    0  0.4831799E-002  0.4605032E+03  0.7546771E-02  0.1024635E+00
         21   -1    0    0  502  501  0.00000000000E+00  0.00000000000E+00  0.10665411697E+04  0.10665411697E+04  0.00000000000E+00 0.  1.
         21   -1    0    0  501  502 -0.00000000000E+00 -0.00000000000E+00 -0.49708159815E+02  0.49708159815E+02  0.00000000000E+00 0.  1.
      99926    2    1    2    0    0  0.00000000000E+00 -0.14210854715E-13  0.10168330099E+04  0.11162493295E+04  0.46050319831E+03 0.  0.
      99925    2    3    3    0    0  0.14878629119E+02 -0.11678128015E+03  0.60934212269E+03  0.67403267193E+03  0.26298855365E+03 0.  0.
         25    1    3    3    0    0 -0.14878629119E+02  0.11678128015E+03  0.40749088721E+03  0.44221665760E+03  0.12509000000E+03 0.  0.
         25    1    4    4    0    0  0.25502248688E+02 -0.44762942642E+02  0.37437236463E+03  0.39806564939E+03  0.12509000000E+03 0.  0.
         25    1    4    4    0    0 -0.10623619568E+02 -0.72018337508E+02  0.23496975806E+03  0.27596702255E+03  0.12509000000E+03 0.  0.
<mgrwt>
<rscale>  2 0.46050320E+03</rscale>
<asrwt>0</asrwt>
<pdfrwt beam="1">  1       21 0.15684428E+00 0.46050320E+03</pdfrwt>
<pdfrwt beam="2">  1       21 0.73100242E-02 0.46050320E+03</pdfrwt>
<totfact> 0.33470093E+04</totfact>
</mgrwt>
</event>
<event>
 7    0  0.4831799E-002  0.4555508E+03  0.7546771E-02  0.1026080E+00
         21   -1    0    0  502  501  0.00000000000E+00  0.00000000000E+00  0.15306468915E+04  0.15306468915E+04  0.00000000000E+00 0.  1.
         21   -1    0    0  501  502 -0.00000000000E+00 -0.00000000000E+00 -0.33895226695E+02  0.33895226695E+02  0.00000000000E+00 0.  1.
      99926    2    1    2    0    0  0.00000000000E+00  0.35527136788E-14  0.14967516648E+04  0.15645421182E+04  0.45555075844E+03 0.  0.
      99925    2    3    3    0    0  0.10227490975E+03 -0.19786165817E+02  0.78620892756E+03  0.83559072127E+03  0.26312682528E+03 0.  0.
         25    1    3    3    0    0 -0.10227490975E+03  0.19786165817E+02  0.71054273727E+03  0.72895139694E+03  0.12509000000E+03 0.  0.
         25    1    4    4    0    0  0.77218288307E+02  0.16479521449E+02  0.46886587442E+03  0.49164718546E+03  0.12509000000E+03 0.  0.
         25    1    4    4    0    0  0.25056621445E+02 -0.36265687266E+02  0.31734305314E+03  0.34394353581E+03  0.12509000000E+03 0.  0.
<mgrwt>
<rscale>  2 0.45555076E+03</rscale>
<asrwt>0</asrwt>
<pdfrwt beam="1">  1       21 0.22509509E+00 0.45555076E+03</pdfrwt>
<pdfrwt beam="2">  1       21 0.49845932E-02 0.45555076E+03</pdfrwt>
<totfact> 0.22145859E+04</totfact>
</mgrwt>
</event>
<event>
 7    0  0.4831799E-002  0.4642779E+03  0.7546771E-02  0.1023548E+00
         21   -1    0    0  502  501  0.00000000000E+00  0.00000000000E+00  0.93240664651E+02  0.93240664651E+02  0.00000000000E+00 0.  1.
         21   -1    0    0  501  502 -0.00000000000E+00 -0.00000000000E+00 -0.57795042666E+03  0.57795042666E+03  0.00000000000E+00 0.  1.
      99926    2    1    2    0    0  0.00000000000E+00 -0.14210854715E-13 -0.48470976201E+03  0.67119109131E+03  0.46427785610E+03 0.  0.
      99925    2    3    3    0    0 -0.33585100566E+02 -0.11585207619E+03 -0.32501999294E+03  0.43518686892E+03  0.26305883855E+03 0.  0.
         25    1    4    4    0    0 -0.11109228356E+02 -0.24394432533E+02 -0.18631280414E+03  0.22600546980E+03  0.12509000000E+03 0.  0.
         25    1    4    4    0    0 -0.22475872210E+02 -0.91457643660E+02 -0.13870718880E+03  0.20918139913E+03  0.12509000000E+03 0.  0.
         25    1    3    3    0    0  0.33585100566E+02  0.11585207619E+03 -0.15968976907E+03  0.23600422239E+03  0.12509000000E+03 0.  0.
<mgrwt>
<rscale>  2 0.46427786E+03</rscale>
<asrwt>0</asrwt>
<pdfrwt beam="1">  1       21 0.13711863E-01 0.46427786E+03</pdfrwt>
<pdfrwt beam="2">  1       21 0.84992708E-01 0.46427786E+03</pdfrwt>
<totfact> 0.50685186E+04</totfact>
</mgrwt>
</event>
<event>
 7    0  0.4831799E-002  0.4577693E+03  0.7546771E-02  0.1025430E+00
         21   -1    0    0  502  501  0.00000000000E+00  0.00000000000E+00  0.63387055676E+03  0.63387055676E+03  0.00000000000E+00 0.  1.
         21   -1    0    0  501  502 -0.00000000000E+00 -0.00000000000E+00 -0.82648066208E+02  0.82648066208E+02  0.00000000000E+00 0.  1.
      99926    2    1    2    0    0  0.00000000000E+00  0.00000000000E+00  0.55122249055E+03  0.71651862296E+03  0.45776926827E+03 0.  0.
      99925    2    3    3    0    0  0.98476695959E+02 -0.59189724031E+02  0.32437417226E+03  0.43313063683E+03  0.26302559162E+03 0.  0.
         25    1    3    3    0    0 -0.98476695959E+02  0.59189724031E+02  0.22684831829E+03  0.28338798614E+03  0.12509000000E+03 0.  0.
         25    1    4    4    0    0  0.69977398764E+02 -0.64404223205E+02  0.20024096201E+03  0.25453622782E+03  0.12509000000E+03 0.  0.
         25    1    4    4    0    0  0.28499297195E+02  0.52144991741E+01  0.12413321025E+03  0.17859440901E+03  0.12509000000E+03 0.  0.
<mgrwt>
<rscale>  2 0.45776927E+03</rscale>
<asrwt>0</asrwt>
<pdfrwt beam="1">  1       21 0.93216256E-01 0.45776927E+03</pdfrwt>
<pdfrwt beam="2">  1       21 0.12154128E-01 0.45776927E+03</pdfrwt>
<totfact> 0.50897448E+04</totfact>
</mgrwt>
</event>
<event>
 7    0  0.4831799E-002  0.4544951E+03  0.7546771E-02  0.1026390E+00
         21   -1    0    0  502  501  0.00000000000E+00  0.00000000000E+00  0.43444383147E+03  0.43444383147E+03  0.00000000000E+00 0.  1.
         21   -1    0    0  501  502 -0.00000000000E+00 -0.00000000000E+00 -0.11886796144E+03  0.11886796144E+03  0.00000000000E+00 0.  1.
      99926    2    1    2    0    0  0.00000000000E+00  0.00000000000E+00  0.31557587002E+03  0.55331179291E+03  0.45449511596E+03 0.  0.
      99925    2    3    3    0    0  0.32031574555E+02 -0.22928613252E+02  0.69931428754E+02  0.27485094700E+03  0.26287049144E+03 0.  0.
         25    1    3    3    0    0 -0.32031574555E+02  0.22928613252E+02  0.24564444127E+03  0.27846084590E+03  0.12509000000E+03 0.  0.
         25    1    4    4    0    0 -0.62198288305E+01  0.10249425170E+01  0.14188945242E+01  0.12525676884E+03  0.12509000000E+03 0.  0.
         25    1    4    4    0    0  0.38251403385E+02 -0.23953555769E+02  0.68512534229E+02  0.14959417817E+03  0.12509000000E+03 0.  0.
<mgrwt>
<rscale>  2 0.45449512E+03</rscale>
<asrwt>0</asrwt>
<pdfrwt beam="1">  1       21 0.63888798E-01 0.45449512E+03</pdfrwt>
<pdfrwt beam="2">  1       21 0.17480583E-01 0.45449512E+03</pdfrwt>
<totfact> 0.61895049E+04</totfact>
</mgrwt>
</event>
<event>
 7    0  0.4831799E-002  0.4532146E+03  0.7546771E-02  0.1026768E+00
         21   -1    0    0  502  501  0.00000000000E+00  0.00000000000E+00  0.27223484196E+02  0.27223484196E+02  0.00000000000E+00 0.  1.
         21   -1    0    0  501  502 -0.00000000000E+00 -0.00000000000E+00 -0.18862709977E+04  0.18862709977E+04  0.00000000000E+00 0.  1.
      99926    2    1    2    0    0  0.00000000000E+00  0.00000000000E+00 -0.18590475135E+04  0.19134944819E+04  0.45321460125E+03 0.  0.
      99925    2    3    3    0    0 -0.92017434496E+02 -0.39244590671E+02 -0.96230995388E+03  0.10025646794E+04  0.26284623429E+03 0.  0.
         25    1    4    4    0    0 -0.65057199897E+02 -0.18506346133E+02 -0.63034807694E+03  0.64618970149E+03  0.12509000000E+03 0.  0.
         25    1    4    4    0    0 -0.26960234599E+02 -0.20738244538E+02 -0.33196187694E+03  0.35637497791E+03  0.12509000000E+03 0.  0.
         25    1    3    3    0    0  0.92017434496E+02  0.39244590671E+02 -0.89673755966E+03  0.91092980254E+03  0.12509000000E+03 0.  0.
<mgrwt>
<rscale>  2 0.45321460E+03</rscale>
<asrwt>0</asrwt>
<pdfrwt beam="1">  1       21 0.40034531E-02 0.45321460E+03</pdfrwt>
<pdfrwt beam="2">  1       21 0.27739283E+00 0.45321460E+03</pdfrwt>
<totfact> 0.15385999E+04</totfact>
</mgrwt>
</event>
<event>
 7    0  0.4831799E-002  0.4176576E+03  0.7546771E-02  0.1037831E+00
         21   -1    0    0  502  501  0.00000000000E+00  0.00000000000E+00  0.11668843356E+04  0.11668843356E+04  0.00000000000E+00 0.  1.
         21   -1    0    0  501  502 -0.00000000000E+00 -0.00000000000E+00 -0.37372574942E+02  0.37372574942E+02  0.00000000000E+00 0.  1.
      99926    2    1    2    0    0  0.00000000000E+00  0.00000000000E+00  0.11295117606E+04  0.12042569105E+04  0.41765762189E+03 0.  0.
      99925    2    3    3    0    0 -0.56370700672E+02  0.83619243016E+01  0.86911519678E+03  0.90980580041E+03  0.26294066161E+03 0.  0.
         25    1    4    4    0    0 -0.18130192289E+02 -0.21595483432E+01  0.55812549462E+03  0.57226300192E+03  0.12509000000E+03 0.  0.
         25    1    3    3    0    0  0.56370700672E+02 -0.83619243016E+01  0.26039656384E+03  0.29445111009E+03  0.12509000000E+03 0.  0.
         25    1    4    4    0    0 -0.38240508383E+02  0.10521472645E+02  0.31098970216E+03  0.33754279849E+03  0.12509000000E+03 0.  0.
<mgrwt>
<rscale>  2 0.41765762E+03</rscale>
<asrwt>0</asrwt>
<pdfrwt beam="1">  1       21 0.17160061E+00 0.41765762E+03</pdfrwt>
<pdfrwt beam="2">  1       21 0.54959677E-02 0.41765762E+03</pdfrwt>
<totfact> 0.43310805E+04</totfact>
</mgrwt>
</event>
<event>
 7    0  0.4831799E-002  0.4743852E+03  0.7546771E-02  0.1020690E+00
         21   -1    0    0  502  501  0.00000000000E+00  0.00000000000E+00  0.22870866982E+03  0.22870866982E+03  0.00000000000E+00 0. -1.
         21   -1    0    0  501  502 -0.00000000000E+00 -0.00000000000E+00 -0.24599126741E+03  0.24599126741E+03  0.00000000000E+00 0. -1.
      99926    2    1    2    0    0  0.00000000000E+00  0.00000000000E+00 -0.17282597594E+02  0.47469993723E+03  0.47438522555E+03 0.  0.
      99925    2    3    3    0    0  0.82305616907E+02  0.97129352499E+02 -0.39208942199E+02  0.29487613908E+03  0.26307084704E+03 0.  0.
         25    1    4    4    0    0  0.14857155303E+01  0.35424706487E+02 -0.29850364934E+02  0.13340041067E+03  0.12509000000E+03 0.  0.
         25    1    4    4    0    0  0.80819901377E+02  0.61704646011E+02 -0.93585772651E+01  0.16147572841E+03  0.12509000000E+03 0.  0.
         25    1    3    3    0    0 -0.82305616907E+02 -0.97129352499E+02  0.21926344604E+02  0.17982379814E+03  0.12509000000E+03 0.  0.
<mgrwt>
<rscale>  2 0.47438523E+03</rscale>
<asrwt>0</asrwt>
<pdfrwt beam="1">  1       21 0.33633628E-01 0.47438523E+03</pdfrwt>
<pdfrwt beam="2">  1       21 0.36175186E-01 0.47438523E+03</pdfrwt>
<totfact> 0.57675528E+04</totfact>
</mgrwt>
</event>
<event>
 7    0  0.4831799E-002  0.4530180E+03  0.7546771E-02  0.1026826E+00
         21   -1    0    0  502  501  0.00000000000E+00  0.00000000000E+00  0.55682934443E+02  0.55682934443E+02  0.00000000000E+00 0. -1.
         21   -1    0    0  501  502 -0.00000000000E+00 -0.00000000000E+00 -0.92140126346E+03  0.92140126346E+03  0.00000000000E+00 0. -1.
      99926    2    1    2    0    0  0.00000000000E+00  0.00000000000E+00 -0.86571832902E+03  0.97708419790E+03  0.45301799588E+03 0.  0.
      99925    2    3    3    0    0 -0.70116869247E+02  0.77419466627E+02 -0.46414047060E+03  0.54369934164E+03  0.26319659665E+03 0.  0.
         25    1    3    3    0    0  0.70116869247E+02 -0.77419466627E+02 -0.40157785842E+03  0.43338485626E+03  0.12509000000E+03 0.  0.
         25    1    4    4    0    0 -0.29853014292E+02  0.24718143140E+02 -0.29740167676E+03  0.32495761955E+03  0.12509000000E+03 0.  0.
         25    1    4    4    0    0 -0.40263854955E+02  0.52701323487E+02 -0.16673879384E+03  0.21874172209E+03  0.12509000000E+03 0.  0.
<mgrwt>
<rscale>  2 0.45301800E+03</rscale>
<asrwt>0</asrwt>
<pdfrwt beam="1">  1       21 0.81886675E-02 0.45301800E+03</pdfrwt>
<pdfrwt beam="2">  1       21 0.13550017E+00 0.45301800E+03</pdfrwt>
<totfact> 0.40689835E+04</totfact>
</mgrwt>
</event>
<event>
 7    0  0.4831799E-002  0.4686274E+03  0.7546771E-02  0.1022308E+00
         21   -1    0    0  502  501  0.00000000000E+00  0.00000000000E+00  0.66548287696E+03  0.66548287696E+03  0.00000000000E+00 0.  1.
         21   -1    0    0  501  502 -0.00000000000E+00 -0.00000000000E+00 -0.82500858653E+02  0.82500858653E+02  0.00000000000E+00 0.  1.
      99926    2    1    2    0    0  0.00000000000E+00  0.00000000000E+00  0.58298201830E+03  0.74798373561E+03  0.46862739471E+03 0.  0.
      99925    2    3    3    0    0  0.86133918974E+02 -0.90877142720E+02  0.37674159645E+03  0.47621117119E+03  0.26299266530E+03 0.  0.
         25    1    4    4    0    0  0.19263525525E+02 -0.62439807372E+02  0.14014192994E+03  0.19888962162E+03  0.12509000000E+03 0.  0.
         25    1    3    3    0    0 -0.86133918974E+02  0.90877142720E+02  0.20624042185E+03  0.27177256442E+03  0.12509000000E+03 0.  0.
         25    1    4    4    0    0  0.66870393450E+02 -0.28437335348E+02  0.23659966651E+03  0.27732154957E+03  0.12509000000E+03 0.  0.
<mgrwt>
<rscale>  2 0.46862739E+03</rscale>
<asrwt>0</asrwt>
<pdfrwt beam="1">  1       21 0.97865126E-01 0.46862739E+03</pdfrwt>
<pdfrwt beam="2">  1       21 0.12132480E-01 0.46862739E+03</pdfrwt>
<totfact> 0.45320890E+04</totfact>
</mgrwt>
</event>
<event>
 7    0  0.4831799E-002  0.4559220E+03  0.7546771E-02  0.1025971E+00
         21   -1    0    0  502  501  0.00000000000E+00  0.00000000000E+00  0.12188127227E+03  0.12188127227E+03  0.00000000000E+00 0.  1.
         21   -1    0    0  501  502 -0.00000000000E+00 -0.00000000000E+00 -0.42636745400E+03  0.42636745400E+03  0.00000000000E+00 0.  1.
      99926    2    1    2    0    0  0.00000000000E+00  0.00000000000E+00 -0.30448618173E+03  0.54824872628E+03  0.45592195713E+03 0.  0.
      99925    2    3    3    0    0 -0.83484601928E+02 -0.74436673103E+02 -0.21841920284E+03  0.35966047103E+03  0.26294145582E+03 0.  0.
         25    1    4    4    0    0 -0.61103190576E+02 -0.36836027647E+02 -0.15871649229E+03  0.21431034939E+03  0.12509000000E+03 0.  0.
         25    1    3    3    0    0  0.83484601928E+02  0.74436673103E+02 -0.86066978895E+02  0.18858825525E+03  0.12509000000E+03 0.  0.
         25    1    4    4    0    0 -0.22381411353E+02 -0.37600645456E+02 -0.59702710550E+02  0.14535012164E+03  0.12509000000E+03 0.  0.
<mgrwt>
<rscale>  2 0.45592196E+03</rscale>
<asrwt>0</asrwt>
<pdfrwt beam="1">  1       21 0.17923716E-01 0.45592196E+03</pdfrwt>
<pdfrwt beam="2">  1       21 0.62701096E-01 0.45592196E+03</pdfrwt>
<totfact> 0.61532292E+04</totfact>
</mgrwt>
</event>
<event>
 7    0  0.4831799E-002  0.4497898E+03  0.7546771E-02  0.1027785E+00
         21   -1    0    0  502  501  0.00000000000E+00  0.00000000000E+00  0.51938684774E+03  0.51938684774E+03  0.00000000000E+00 0. -1.
         21   -1    0    0  501  502 -0.00000000000E+00 -0.00000000000E+00 -0.97379661268E+02  0.97379661268E+02  0.00000000000E+00 0. -1.
      99926    2    1    2    0    0  0.00000000000E+00 -0.35527136788E-14  0.42200718647E+03  0.61676650901E+03  0.44978979668E+03 0.  0.
      99925    2    3    3    0    0  0.83969787051E+02  0.76752564331E+01  0.17401924010E+03  0.32649876305E+03  0.26307586672E+03 0.  0.
         25    1    4    4    0    0  0.56757272341E+02  0.41961216775E+02  0.94908865311E+02  0.17215496650E+03  0.12509000000E+03 0.  0.
         25    1    3    3    0    0 -0.83969787051E+02 -0.76752564331E+01  0.24798794637E+03  0.29026774595E+03  0.12509000000E+03 0.  0.
         25    1    4    4    0    0  0.27212514709E+02 -0.34285960342E+02  0.79110374793E+02  0.15434379655E+03  0.12509000000E+03 0.  0.
<mgrwt>
<rscale>  2 0.44978980E+03</rscale>
<asrwt>0</asrwt>
<pdfrwt beam="1">  1       21 0.76380417E-01 0.44978980E+03</pdfrwt>
<pdfrwt beam="2">  1       21 0.14320539E-01 0.44978980E+03</pdfrwt>
<totfact> 0.60092555E+04</totfact>
</mgrwt>
</event>
<event>
 7    0  0.4831799E-002  0.4557243E+03  0.7546771E-02  0.1026029E+00
         21   -1    0    0  502  501  0.00000000000E+00  0.00000000000E+00  0.65408383190E+02  0.65408383190E+02  0.00000000000E+00 0.  1.
         21   -1    0    0  501  502 -0.00000000000E+00 -0.00000000000E+00 -0.79379988117E+03  0.79379988117E+03  0.00000000000E+00 0.  1.
      99926    2    1    2    0    0  0.14210854715E-13  0.00000000000E+00 -0.72839149798E+03  0.85920826436E+03  0.45572433248E+03 0.  0.
      99925    2    3    3    0    0 -0.83052686722E+02  0.41311545418E+02 -0.58360361173E+03  0.64656905664E+03  0.26240041314E+03 0.  0.
         25    1    4    4    0    0 -0.11935319288E+02  0.26286637596E+02 -0.21258972798E+03  0.24834520270E+03  0.12509000000E+03 0.  0.
         25    1    4    4    0    0 -0.71117367435E+02  0.15024907823E+02 -0.37101388375E+03  0.39822385393E+03  0.12509000000E+03 0.  0.
         25    1    3    3    0    0  0.83052686722E+02 -0.41311545418E+02 -0.14478788624E+03  0.21263920772E+03  0.12509000000E+03 0.  0.
<mgrwt>
<rscale>  2 0.45572433E+03</rscale>
<asrwt>0</asrwt>
<pdfrwt beam="1">  1       21 0.96188803E-02 0.45572433E+03</pdfrwt>
<pdfrwt beam="2">  1       21 0.11673527E+00 0.45572433E+03</pdfrwt>
<totfact> 0.44775275E+04</totfact>
</mgrwt>
</event>
<event>
 7    0  0.4831799E-002  0.4575160E+03  0.7546771E-02  0.1025504E+00
         21   -1    0    0  502  501  0.00000000000E+00  0.00000000000E+00  0.10246053122E+04  0.10246053122E+04  0.00000000000E+00 0. -1.
         21   -1    0    0  501  502 -0.00000000000E+00 -0.00000000000E+00 -0.51073549937E+02  0.51073549937E+02  0.00000000000E+00 0. -1.
      99926    2    1    2    0    0  0.00000000000E+00  0.00000000000E+00  0.97353176230E+03  0.10756788622E+04  0.45751603504E+03 0.  0.
      99925    2    3    3    0    0  0.55437636792E+02 -0.73126570960E+02  0.44703426617E+03  0.52680005179E+03  0.26316882886E+03 0.  0.
         25    1    4    4    0    0  0.68364182438E+02 -0.32241701146E+02  0.24728075319E+03  0.28724287238E+03  0.12509000000E+03 0.  0.
         25    1    4    4    0    0 -0.12926545646E+02 -0.40884869814E+02  0.19975351298E+03  0.23955717942E+03  0.12509000000E+03 0.  0.
         25    1    3    3    0    0 -0.55437636792E+02  0.73126570960E+02  0.52649749613E+03  0.54887881038E+03  0.12509000000E+03 0.  0.
<mgrwt>
<rscale>  2 0.45751604E+03</rscale>
<asrwt>0</asrwt>
<pdfrwt beam="1">  1       21 0.15067724E+00 0.45751604E+03</pdfrwt>
<pdfrwt beam="2">  1       21 0.75108168E-02 0.45751604E+03</pdfrwt>
<totfact> 0.35644081E+04</totfact>
</mgrwt>
</event>
<event>
 7    0  0.4831799E-002  0.4568579E+03  0.7546771E-02  0.1025696E+00
         21   -1    0    0  502  501  0.00000000000E+00  0.00000000000E+00  0.30789165309E+03  0.30789165309E+03  0.00000000000E+00 0.  1.
         21   -1    0    0  501  502 -0.00000000000E+00 -0.00000000000E+00 -0.16947449734E+03  0.16947449734E+03  0.00000000000E+00 0.  1.
      99926    2    1    2    0    0  0.00000000000E+00  0.00000000000E+00  0.13841715575E+03  0.47736615044E+03  0.45685789101E+03 0.  0.
      99925    2    3    3    0    0  0.92048680428E+02 -0.59066922763E+02  0.50351330406E+02  0.28931041767E+03  0.26306539181E+03 0.  0.
         25    1    3    3    0    0 -0.92048680428E+02  0.59066922763E+02  0.88065825346E+02  0.18805573277E+03  0.12509000000E+03 0.  0.
         25    1    4    4    0    0  0.73787697027E+02 -0.51672406026E+01  0.43579227426E+02  0.15171678144E+03  0.12509000000E+03 0.  0.
         25    1    4    4    0    0  0.18260983400E+02 -0.53899682160E+02  0.67721029802E+01  0.13759363623E+03  0.12509000000E+03 0.  0.
<mgrwt>
<rscale>  2 0.45685789E+03</rscale>
<asrwt>0</asrwt>
<pdfrwt beam="1">  1       21 0.45278184E-01 0.45685789E+03</pdfrwt>
<pdfrwt beam="2">  1       21 0.24922720E-01 0.45685789E+03</pdfrwt>
<totfact> 0.65915049E+04</totfact>
</mgrwt>
</event>
<event>
 7    0  0.4831799E-002  0.4518839E+03  0.7546771E-02  0.1027162E+00
         21   -1    0    0  502  501  0.00000000000E+00  0.00000000000E+00  0.10235340900E+03  0.10235340900E+03  0.00000000000E+00 0. -1.
         21   -1    0    0  501  502 -0.00000000000E+00 -0.00000000000E+00 -0.49875970517E+03  0.49875970517E+03  0.00000000000E+00 0. -1.
      99926    2    1    2    0    0  0.00000000000E+00  0.00000000000E+00 -0.39640629617E+03  0.60111311417E+03  0.45188386161E+03 0.  0.
      99925    2    3    3    0    0  0.67796588430E+02 -0.58555787277E+02 -0.33526997035E+03  0.43555250273E+03  0.26320120058E+03 0.  0.
         25    1    4    4    0    0  0.47748605002E+02  0.80505385140E+01 -0.17836202737E+03  0.22317092408E+03  0.12509000000E+03 0.  0.
         25    1    3    3    0    0 -0.67796588430E+02  0.58555787277E+02 -0.61136325823E+02  0.16556061144E+03  0.12509000000E+03 0.  0.
         25    1    4    4    0    0  0.20047983429E+02 -0.66606325791E+02 -0.15690794298E+03  0.21238157864E+03  0.12509000000E+03 0.  0.
<mgrwt>
<rscale>  2 0.45188386E+03</rscale>
<asrwt>0</asrwt>
<pdfrwt beam="1">  1       21 0.15051972E-01 0.45188386E+03</pdfrwt>
<pdfrwt beam="2">  1       21 0.73347016E-01 0.45188386E+03</pdfrwt>
<totfact> 0.60075266E+04</totfact>
</mgrwt>
</event>
<event>
 6    0  0.4831799E-002  0.4338114E+03  0.7546771E-02  0.1032663E+00
         21   -1    0    0  502  501  0.00000000000E+00  0.00000000000E+00  0.16002790541E+03  0.16002790541E+03  0.00000000000E+00 0.  1.
         21   -1    0    0  501  502 -0.00000000000E+00 -0.00000000000E+00 -0.29399923135E+03  0.29399923135E+03  0.00000000000E+00 0.  1.
      99926    2    1    2    0    0 -0.14210854715E-13  0.00000000000E+00 -0.13397132594E+03  0.45402713676E+03  0.43381139305E+03 0.  0.
         25    1    3    3    0    0 -0.41137416950E+02 -0.15121780202E+02  0.29767951309E+02  0.13584768800E+03  0.12509000000E+03 0.  0.
         25    1    3    3    0    0  0.66905685839E+02  0.16065704699E+02 -0.10705676589E+03  0.17844645384E+03  0.12509000000E+03 0.  0.
         25    1    3    3    0    0 -0.25768268890E+02 -0.94392449748E+00 -0.56682511360E+02  0.13973299492E+03  0.12509000000E+03 0.  0.
<mgrwt>
<rscale>  2 0.43381139E+03</rscale>
<asrwt>0</asrwt>
<pdfrwt beam="1">  1       21 0.23533516E-01 0.43381139E+03</pdfrwt>
<pdfrwt beam="2">  1       21 0.43235181E-01 0.43381139E+03</pdfrwt>
<totfact> 0.81505221E+04</totfact>
</mgrwt>
</event>
<event>
 7    0  0.4831799E-002  0.4524323E+03  0.7546771E-02  0.1026999E+00
         21   -1    0    0  502  501  0.00000000000E+00  0.00000000000E+00  0.19267525451E+04  0.19267525451E+04  0.00000000000E+00 0.  1.
         21   -1    0    0  501  502 -0.00000000000E+00 -0.00000000000E+00 -0.26559586388E+02  0.26559586388E+02  0.00000000000E+00 0.  1.
      99926    2    1    2    0    0  0.00000000000E+00  0.14210854715E-13  0.19001929587E+04  0.19533121315E+04  0.45243231834E+03 0.  0.
      99925    2    3    3    0    0  0.31508067289E+02  0.10235680432E+03  0.10769960482E+04  0.11138061248E+04  0.26300935744E+03 0.  0.
         25    1    4    4    0    0  0.40986440894E+02  0.18259386030E+02  0.49314570844E+03  0.51073818280E+03  0.12509000000E+03 0.  0.
         25    1    4    4    0    0 -0.94783736053E+01  0.84097418287E+02  0.58385033981E+03  0.60306794205E+03  0.12509000000E+03 0.  0.
         25    1    3    3    0    0 -0.31508067289E+02 -0.10235680432E+03  0.82319691049E+03  0.83950600667E+03  0.12509000000E+03 0.  0.
<mgrwt>
<rscale>  2 0.45243232E+03</rscale>
<asrwt>0</asrwt>
<pdfrwt beam="1">  1       21 0.28334587E+00 0.45243232E+03</pdfrwt>
<pdfrwt beam="2">  1       21 0.39058228E-02 0.45243232E+03</pdfrwt>
<totfact> 0.14779704E+04</totfact>
</mgrwt>
</event>
<event>
 7    0  0.4831799E-002  0.4288612E+03  0.7546771E-02  0.1034220E+00
         21   -1    0    0  502  501  0.00000000000E+00  0.00000000000E+00  0.12060150753E+03  0.12060150753E+03  0.00000000000E+00 0.  1.
         21   -1    0    0  501  502 -0.00000000000E+00 -0.00000000000E+00 -0.38125964079E+03  0.38125964079E+03  0.00000000000E+00 0.  1.
      99926    2    1    2    0    0  0.00000000000E+00  0.00000000000E+00 -0.26065813326E+03  0.50186114832E+03  0.42886122436E+03 0.  0.
      99925    2    3    3    0    0 -0.66981378388E+02  0.53152376461E+02 -0.15328258713E+03  0.31614982346E+03  0.26295147686E+03 0.  0.
         25    1    4    4    0    0  0.42219505510E+01  0.10095780494E+02 -0.81017263847E+02  0.14943578819E+03  0.12509000000E+03 0.  0.
         25    1    3    3    0    0  0.66981378388E+02 -0.53152376461E+02 -0.10737554613E+03  0.18571132486E+03  0.12509000000E+03 0.  0.
         25    1    4    4    0    0 -0.71203328939E+02  0.43056595966E+02 -0.72265323280E+02  0.16671403527E+03  0.12509000000E+03 0.  0.
<mgrwt>
<rscale>  2 0.42886122E+03</rscale>
<asrwt>0</asrwt>
<pdfrwt beam="1">  1       21 0.17735515E-01 0.42886122E+03</pdfrwt>
<pdfrwt beam="2">  1       21 0.56067596E-01 0.42886122E+03</pdfrwt>
<totfact> 0.80597782E+04</totfact>
</mgrwt>
</event>
<event>
 7    0  0.4831799E-002  0.4690980E+03  0.7546771E-02  0.1022175E+00
         21   -1    0    0  502  501  0.00000000000E+00  0.00000000000E+00  0.71673614850E+03  0.71673614850E+03  0.00000000000E+00 0.  1.
         21   -1    0    0  501  502 -0.00000000000E+00 -0.00000000000E+00 -0.76755219072E+02  0.76755219072E+02  0.00000000000E+00 0.  1.
      99926    2    1    2    0    0  0.14210854715E-13  0.00000000000E+00  0.63998092943E+03  0.79349136757E+03  0.46909802854E+03 0.  0.
      99925    2    3    3    0    0 -0.98256167349E+02  0.36421146372E+02  0.27619761089E+03  0.39478522857E+03  0.26189593757E+03 0.  0.
         25    1    4    4    0    0 -0.15107560996E+02  0.99507153693E+01  0.96058515932E+02  0.15875138336E+03  0.12509000000E+03 0.  0.
         25    1    4    4    0    0 -0.83148606353E+02  0.26470431003E+02  0.18013909495E+03  0.23603384522E+03  0.12509000000E+03 0.  0.
         25    1    3    3    0    0  0.98256167349E+02 -0.36421146372E+02  0.36378331854E+03  0.39870613900E+03  0.12509000000E+03 0.  0.
<mgrwt>
<rscale>  2 0.46909803E+03</rscale>
<asrwt>0</asrwt>
<pdfrwt beam="1">  1       21 0.10540237E+00 0.46909803E+03</pdfrwt>
<pdfrwt beam="2">  1       21 0.11287533E-01 0.46909803E+03</pdfrwt>
<totfact> 0.43109841E+04</totfact>
</mgrwt>
</event>
<event>
 7    0  0.4831799E-002  0.4612893E+03  0.7546771E-02  0.1024408E+00
         21   -1    0    0  502  501  0.00000000000E+00  0.00000000000E+00  0.50876907657E+03  0.50876907657E+03  0.00000000000E+00 0. -1.
         21   -1    0    0  501  502 -0.00000000000E+00 -0.00000000000E+00 -0.10456013679E+03  0.10456013679E+03  0.00000000000E+00 0. -1.
      99926    2    1    2    0    0  0.00000000000E+00  0.35527136788E-14  0.40420893978E+03  0.61332921335E+03  0.46128934190E+03 0.  0.
      99925    2    3    3    0    0 -0.39608005614E+02 -0.13449583774E+02  0.10551524277E+03  0.28680950775E+03  0.26339427076E+03 0.  0.
         25    1    3    3    0    0  0.39608005614E+02  0.13449583774E+02  0.29869369701E+03  0.32651970560E+03  0.12509000000E+03 0.  0.
         25    1    4    4    0    0 -0.33991535538E+02  0.21308957731E+02  0.81686009061E+02  0.15469197893E+03  0.12509000000E+03 0.  0.
         25    1    4    4    0    0 -0.56164700762E+01 -0.34758541505E+02  0.23829233707E+02  0.13211752882E+03  0.12509000000E+03 0.  0.
<mgrwt>
<rscale>  2 0.46128934E+03</rscale>
<asrwt>0</asrwt>
<pdfrwt beam="1">  1       21 0.74818981E-01 0.46128934E+03</pdfrwt>
<pdfrwt beam="2">  1       21 0.15376491E-01 0.46128934E+03</pdfrwt>
<totfact> 0.55077776E+04</totfact>
</mgrwt>
</event>
<event>
 7    0  0.4831799E-002  0.4452419E+03  0.7546771E-02  0.1029151E+00
         21   -1    0    0  502  501  0.00000000000E+00  0.00000000000E+00  0.45504912797E+03  0.45504912797E+03  0.00000000000E+00 0.  1.
         21   -1    0    0  501  502 -0.00000000000E+00 -0.00000000000E+00 -0.10891150180E+03  0.10891150180E+03  0.00000000000E+00 0.  1.
      99926    2    1    2    0    0 -0.71054273576E-14 -0.14210854715E-13  0.34613762617E+03  0.56396062976E+03  0.44524188446E+03 0.  0.
      99925    2    3    3    0    0  0.47684987495E+02  0.65974466091E+02  0.30124554999E+03  0.40811039777E+03  0.26301849207E+03 0.  0.
         25    1    3    3    0    0 -0.47684987495E+02 -0.65974466091E+02  0.44892076175E+02  0.15585023199E+03  0.12509000000E+03 0.  0.
         25    1    4    4    0    0  0.33246690919E+02 -0.36331341020E+01  0.11850385080E+03  0.17552553340E+03  0.12509000000E+03 0.  0.
         25    1    4    4    0    0  0.14438296576E+02  0.69607600194E+02  0.18274169919E+03  0.23258486437E+03  0.12509000000E+03 0.  0.
<mgrwt>
<rscale>  2 0.44524188E+03</rscale>
<asrwt>0</asrwt>
<pdfrwt beam="1">  1       21 0.66918988E-01 0.44524188E+03</pdfrwt>
<pdfrwt beam="2">  1       21 0.16016398E-01 0.44524188E+03</pdfrwt>
<totfact> 0.65893343E+04</totfact>
</mgrwt>
</event>
<event>
 7    0  0.4831799E-002  0.4509592E+03  0.7546771E-02  0.1027436E+00
         21   -1    0    0  502  501  0.00000000000E+00  0.00000000000E+00  0.16420743756E+03  0.16420743756E+03  0.00000000000E+00 0.  1.
         21   -1    0    0  501  502 -0.00000000000E+00 -0.00000000000E+00 -0.30961481184E+03  0.30961481184E+03  0.00000000000E+00 0.  1.
      99926    2    1    2    0    0  0.00000000000E+00  0.00000000000E+00 -0.14540737428E+03  0.47382224940E+03  0.45095922158E+03 0.  0.
      99925    2    3    3    0    0  0.51952006638E+02  0.68838008208E+01 -0.19264191242E+03  0.33020815747E+03  0.26302114579E+03 0.  0.
         25    1    4    4    0    0  0.63268696703E+02  0.13736036799E+02 -0.11940926959E+03  0.18465559415E+03  0.12509000000E+03 0.  0.
         25    1    4    4    0    0 -0.11316690064E+02 -0.68522359782E+01 -0.73232642830E+02  0.14555256332E+03  0.12509000000E+03 0.  0.
         25    1    3    3    0    0 -0.51952006638E+02 -0.68838008208E+01  0.47234538136E+02  0.14361409193E+03  0.12509000000E+03 0.  0.
<mgrwt>
<rscale>  2 0.45095922E+03</rscale>
<asrwt>0</asrwt>
<pdfrwt beam="1">  1       21 0.24148153E-01 0.45095922E+03</pdfrwt>
<pdfrwt beam="2">  1       21 0.45531590E-01 0.45095922E+03</pdfrwt>
<totfact> 0.69350042E+04</totfact>
</mgrwt>
</event>
<event>
 7    0  0.4831799E-002  0.4572071E+03  0.7546771E-02  0.1025594E+00
         21   -1    0    0  502  501  0.00000000000E+00  0.00000000000E+00  0.88401429253E+02  0.88401429253E+02  0.00000000000E+00 0. -1.
         21   -1    0    0  501  502 -0.00000000000E+00 -0.00000000000E+00 -0.59116220581E+03  0.59116220581E+03  0.00000000000E+00 0. -1.
      99926    2    1    2    0    0 -0.17763568394E-14  0.00000000000E+00 -0.50276077656E+03  0.67956363507E+03  0.45720710368E+03 0.  0.
      99925    2    3    3    0    0 -0.15844246894E+02  0.11127593655E+03 -0.35360941038E+03  0.45478149087E+03  0.26296998900E+03 0.  0.
         25    1    4    4    0    0  0.10581802774E+01  0.14811333605E+02 -0.13632314036E+03  0.18561250509E+03  0.12509000000E+03 0.  0.
         25    1    4    4    0    0 -0.16902427172E+02  0.96464602949E+02 -0.21728627002E+03  0.26916898578E+03  0.12509000000E+03 0.  0.
         25    1    3    3    0    0  0.15844246894E+02 -0.11127593655E+03 -0.14915136618E+03  0.22478214419E+03  0.12509000000E+03 0.  0.
<mgrwt>
<rscale>  2 0.45720710E+03</rscale>
<asrwt>0</asrwt>
<pdfrwt beam="1">  1       21 0.13000210E-01 0.45720710E+03</pdfrwt>
<pdfrwt beam="2">  1       21 0.86935620E-01 0.45720710E+03</pdfrwt>
<totfact> 0.53097781E+04</totfact>
</mgrwt>
</event>
<event>
 7    0  0.4831799E-002  0.4570179E+03  0.7546771E-02  0.1025650E+00
         21   -1    0    0  502  501  0.00000000000E+00  0.00000000000E+00  0.72430897354E+02  0.72430897354E+02  0.00000000000E+00 0.  1.
         21   -1    0    0  501  502 -0.00000000000E+00 -0.00000000000E+00 -0.72091261699E+03  0.72091261699E+03  0.00000000000E+00 0.  1.
      99926    2    1    2    0    0  0.00000000000E+00  0.00000000000E+00 -0.64848171964E+03  0.79334351435E+03  0.45701793296E+03 0.  0.
      99925    2    3    3    0    0  0.29590650633E+02  0.11027972749E+03 -0.37849980945E+03  0.47463523891E+03  0.26263906671E+03 0.  0.
         25    1    3    3    0    0 -0.29590650633E+02 -0.11027972749E+03 -0.26998191019E+03  0.31870827543E+03  0.12509000000E+03 0.  0.
         25    1    4    4    0    0  0.48312948595E+02  0.48911366329E+02 -0.15604230608E+03  0.21147853826E+03  0.12509000000E+03 0.  0.
         25    1    4    4    0    0 -0.18722297962E+02  0.61368361164E+02 -0.22245750337E+03  0.26315670065E+03  0.12509000000E+03 0.  0.
<mgrwt>
<rscale>  2 0.45701793E+03</rscale>
<asrwt>0</asrwt>
<pdfrwt beam="1">  1       21 0.10651602E-01 0.45701793E+03</pdfrwt>
<pdfrwt beam="2">  1       21 0.10601657E+00 0.45701793E+03</pdfrwt>
<totfact> 0.47334364E+04</totfact>
</mgrwt>
</event>
<event>
 7    0  0.4831799E-002  0.4534050E+03  0.7546771E-02  0.1026711E+00
         21   -1    0    0  502  501  0.00000000000E+00  0.00000000000E+00  0.11978404506E+03  0.11978404506E+03  0.00000000000E+00 0.  1.
         21   -1    0    0  501  502 -0.00000000000E+00 -0.00000000000E+00 -0.42905568471E+03  0.42905568471E+03  0.00000000000E+00 0.  1.
      99926    2    1    2    0    0  0.00000000000E+00 -0.35527136788E-14 -0.30927163966E+03  0.54883972977E+03  0.45340500866E+03 0.  0.
      99925    2    3    3    0    0 -0.71533178383E+02 -0.23603982098E+02 -0.94975065971E+02  0.28952395089E+03  0.26292529624E+03 0.  0.
         25    1    4    4    0    0 -0.20051156310E+02  0.22295178946E+02 -0.62595180737E+02  0.14305519433E+03  0.12509000000E+03 0.  0.
         25    1    4    4    0    0 -0.51482022074E+02 -0.45899161044E+02 -0.32379885234E+02  0.14646875656E+03  0.12509000000E+03 0.  0.
         25    1    3    3    0    0  0.71533178383E+02  0.23603982098E+02 -0.21429657369E+03  0.25931577888E+03  0.12509000000E+03 0.  0.
<mgrwt>
<rscale>  2 0.45340501E+03</rscale>
<asrwt>0</asrwt>
<pdfrwt beam="1">  1       21 0.17615301E-01 0.45340501E+03</pdfrwt>
<pdfrwt beam="2">  1       21 0.63096424E-01 0.45340501E+03</pdfrwt>
<totfact> 0.62731160E+04</totfact>
</mgrwt>
</event>
<event>
 7    0  0.4831799E-002  0.4478716E+03  0.7546771E-02  0.1028359E+00
         21   -1    0    0  502  501  0.00000000000E+00  0.00000000000E+00  0.19939821873E+03  0.19939821873E+03  0.00000000000E+00 0.  1.
         21   -1    0    0  501  502 -0.00000000000E+00 -0.00000000000E+00 -0.25149292911E+03  0.25149292911E+03  0.00000000000E+00 0.  1.
      99926    2    1    2    0    0  0.00000000000E+00  0.00000000000E+00 -0.52094710379E+02  0.45089114784E+03  0.44787159807E+03 0.  0.
      99925    2    3    3    0    0  0.79009254293E+01 -0.98452655019E+02 -0.72379275907E+02  0.29022278879E+03  0.26312574494E+03 0.  0.
         25    1    3    3    0    0 -0.79009254293E+01  0.98452655019E+02  0.20284565528E+02  0.16066835906E+03  0.12509000000E+03 0.  0.
         25    1    4    4    0    0 -0.13319188928E+02 -0.15793949546E+02 -0.12549437769E+02  0.12740426258E+03  0.12509000000E+03 0.  0.
         25    1    4    4    0    0  0.21220114357E+02 -0.82658705473E+02 -0.59829838138E+02  0.16281852620E+03  0.12509000000E+03 0.  0.
<mgrwt>
<rscale>  2 0.44787160E+03</rscale>
<asrwt>0</asrwt>
<pdfrwt beam="1">  1       21 0.29323268E-01 0.44787160E+03</pdfrwt>
<pdfrwt beam="2">  1       21 0.36984254E-01 0.44787160E+03</pdfrwt>
<totfact> 0.72906822E+04</totfact>
</mgrwt>
</event>
<event>
 7    0  0.4831799E-002  0.4543535E+03  0.7546771E-02  0.1026432E+00
         21   -1    0    0  502  501  0.00000000000E+00  0.00000000000E+00  0.21532420004E+03  0.21532420004E+03  0.00000000000E+00 0.  1.
         21   -1    0    0  501  502 -0.00000000000E+00 -0.00000000000E+00 -0.23968174814E+03  0.23968174814E+03  0.00000000000E+00 0.  1.
      99926    2    1    2    0    0  0.00000000000E+00  0.00000000000E+00 -0.24357548093E+02  0.45500594818E+03  0.45435352175E+03 0.  0.
      99925    2    3    3    0    0 -0.65489081873E+02 -0.78710818278E+02  0.31702619281E+02  0.28390813047E+03  0.26289647719E+03 0.  0.
         25    1    4    4    0    0 -0.27605108788E+02 -0.29635616722E+02 -0.23890770010E+02  0.13363603107E+03  0.12509000000E+03 0.  0.
         25    1    3    3    0    0  0.65489081873E+02  0.78710818278E+02 -0.56060167373E+02  0.17109781771E+03  0.12509000000E+03 0.  0.
         25    1    4    4    0    0 -0.37883973085E+02 -0.49075201556E+02  0.55593389291E+02  0.15027209940E+03  0.12509000000E+03 0.  0.
<mgrwt>
<rscale>  2 0.45435352E+03</rscale>
<asrwt>0</asrwt>
<pdfrwt beam="1">  1       21 0.31665324E-01 0.45435352E+03</pdfrwt>
<pdfrwt beam="2">  1       21 0.35247316E-01 0.45435352E+03</pdfrwt>
<totfact> 0.68900098E+04</totfact>
</mgrwt>
</event>
<event>
 7    0  0.4831799E-002  0.4624081E+03  0.7546771E-02  0.1024085E+00
         21   -1    0    0  502  501  0.00000000000E+00  0.00000000000E+00  0.23302243930E+03  0.23302243930E+03  0.00000000000E+00 0. -1.
         21   -1    0    0  501  502 -0.00000000000E+00 -0.00000000000E+00 -0.22939984911E+03  0.22939984911E+03  0.00000000000E+00 0. -1.
      99926    2    1    2    0    0  0.00000000000E+00  0.35527136788E-14  0.36225901901E+01  0.46242228841E+03  0.46240809861E+03 0.  0.
      99925    2    3    3    0    0  0.42939440833E+02 -0.20712170723E+02 -0.10786614789E+03  0.28820967000E+03  0.26297703023E+03 0.  0.
         25    1    4    4    0    0  0.43450358351E+00  0.11809212567E+02 -0.22661577750E+02  0.12767420061E+03  0.12509000000E+03 0.  0.
         25    1    3    3    0    0 -0.42939440833E+02  0.20712170723E+02  0.11148873808E+03  0.17421261841E+03  0.12509000000E+03 0.  0.
         25    1    4    4    0    0  0.42504937249E+02 -0.32521383290E+02 -0.85204570136E+02  0.16053546939E+03  0.12509000000E+03 0.  0.
<mgrwt>
<rscale>  2 0.46240810E+03</rscale>
<asrwt>0</asrwt>
<pdfrwt beam="1">  1       21 0.34268006E-01 0.46240810E+03</pdfrwt>
<pdfrwt beam="2">  1       21 0.33735272E-01 0.46240810E+03</pdfrwt>
<totfact> 0.64130107E+04</totfact>
</mgrwt>
</event>
<event>
 7    0  0.4831799E-002  0.4399929E+03  0.7546771E-02  0.1030749E+00
         21   -1    0    0  502  501  0.00000000000E+00  0.00000000000E+00  0.78421168288E+03  0.78421168288E+03  0.00000000000E+00 0.  1.
         21   -1    0    0  501  502 -0.00000000000E+00 -0.00000000000E+00 -0.61716049894E+02  0.61716049894E+02  0.00000000000E+00 0.  1.
      99926    2    1    2    0    0  0.00000000000E+00  0.00000000000E+00  0.72249563298E+03  0.84592773277E+03  0.43999294243E+03 0.  0.
      99925    2    3    3    0    0  0.60375700559E+02  0.20021623983E+02  0.60602855275E+03  0.66355948026E+03  0.26266801566E+03 0.  0.
         25    1    4    4    0    0  0.55349244845E+02 -0.13143341635E+02  0.36369155126E+03  0.38878700968E+03  0.12509000000E+03 0.  0.
         25    1    3    3    0    0 -0.60375700559E+02 -0.20021623983E+02  0.11646708023E+03  0.18236825251E+03  0.12509000000E+03 0.  0.
         25    1    4    4    0    0  0.50264557141E+01  0.33164965618E+02  0.24233700149E+03  0.27477247059E+03  0.12509000000E+03 0.  0.
<mgrwt>
<rscale>  2 0.43999294E+03</rscale>
<asrwt>0</asrwt>
<pdfrwt beam="1">  1       21 0.11532524E+00 0.43999294E+03</pdfrwt>
<pdfrwt beam="2">  1       21 0.90758902E-02 0.43999294E+03</pdfrwt>
<totfact> 0.51412648E+04</totfact>
</mgrwt>
</event>
<event>
 7    0  0.4831799E-002  0.4477636E+03  0.7546771E-02  0.1028391E+00
         21   -1    0    0  502  501  0.00000000000E+00  0.00000000000E+00  0.12589506314E+03  0.12589506314E+03  0.00000000000E+00 0.  1.
         21   -1    0    0  501  502 -0.00000000000E+00 -0.00000000000E+00 -0.39813359381E+03  0.39813359381E+03  0.00000000000E+00 0.  1.
      99926    2    1    2    0    0  0.00000000000E+00  0.00000000000E+00 -0.27223853067E+03  0.52402865695E+03  0.44776357123E+03 0.  0.
      99925    2    3    3    0    0 -0.66253966339E+02  0.37099002555E+02 -0.25952554977E+03  0.37714417162E+03  0.26290357769E+03 0.  0.
         25    1    4    4    0    0 -0.37391863271E+02  0.78017734192E+01 -0.18271169475E+03  0.22470000134E+03  0.12509000000E+03 0.  0.
         25    1    4    4    0    0 -0.28862103069E+02  0.29297229135E+02 -0.76813855023E+02  0.15244417028E+03  0.12509000000E+03 0.  0.
         25    1    3    3    0    0  0.66253966339E+02 -0.37099002555E+02 -0.12712980906E+02  0.14688448533E+03  0.12509000000E+03 0.  0.
<mgrwt>
<rscale>  2 0.44776357E+03</rscale>
<asrwt>0</asrwt>
<pdfrwt beam="1">  1       21 0.18513980E-01 0.44776357E+03</pdfrwt>
<pdfrwt beam="2">  1       21 0.58549058E-01 0.44776357E+03</pdfrwt>
<totfact> 0.67394965E+04</totfact>
</mgrwt>
</event>
<event>
 7    0  0.4831799E-002  0.4482495E+03  0.7546771E-02  0.1028245E+00
         21   -1    0    0  502  501  0.00000000000E+00  0.00000000000E+00  0.52361890599E+03  0.52361890599E+03  0.00000000000E+00 0. -1.
         21   -1    0    0  501  502 -0.00000000000E+00 -0.00000000000E+00 -0.95932185618E+02  0.95932185618E+02  0.00000000000E+00 0. -1.
      99926    2    1    2    0    0 -0.71054273576E-14  0.00000000000E+00  0.42768672037E+03  0.61955109161E+03  0.44824951125E+03 0.  0.
      99925    2    3    3    0    0  0.50064614052E+02  0.48422557848E+02  0.38256112153E+03  0.46943434551E+03  0.26299122295E+03 0.  0.
         25    1    3    3    0    0 -0.50064614052E+02 -0.48422557848E+02  0.45125598848E+02  0.15011674610E+03  0.12509000000E+03 0.  0.
         25    1    4    4    0    0 -0.10404157415E+02  0.23948715777E+02  0.21786357875E+03  0.25257441384E+03  0.12509000000E+03 0.  0.
         25    1    4    4    0    0  0.60468771467E+02  0.24473842072E+02  0.16469754277E+03  0.21685993167E+03  0.12509000000E+03 0.  0.
<mgrwt>
<rscale>  2 0.44824951E+03</rscale>
<asrwt>0</asrwt>
<pdfrwt beam="1">  1       21 0.77002779E-01 0.44824951E+03</pdfrwt>
<pdfrwt beam="2">  1       21 0.14107675E-01 0.44824951E+03</pdfrwt>
<totfact> 0.60660027E+04</totfact>
</mgrwt>
</event>
<event>
 7    0  0.4831799E-002  0.4479535E+03  0.7546771E-02  0.1028334E+00
         21   -1    0    0  502  501  0.00000000000E+00  0.00000000000E+00  0.26924321793E+03  0.26924321793E+03  0.00000000000E+00 0. -1.
         21   -1    0    0  501  502 -0.00000000000E+00 -0.00000000000E+00 -0.18632067534E+03  0.18632067534E+03  0.00000000000E+00 0. -1.
      99926    2    1    2    0    0  0.00000000000E+00  0.00000000000E+00  0.82922542581E+02  0.45556389327E+03  0.44795347167E+03 0.  0.
      99925    2    3    3    0    0 -0.32657065081E+02 -0.92432510116E+02  0.10372615188E+02  0.28086056505E+03  0.26299203986E+03 0.  0.
         25    1    4    4    0    0 -0.31997181162E+02 -0.38236338104E+02  0.41721311242E+02  0.14097522146E+03  0.12509000000E+03 0.  0.
         25    1    4    4    0    0 -0.65988391917E+00 -0.54196172012E+02 -0.31348696053E+02  0.13988534359E+03  0.12509000000E+03 0.  0.
         25    1    3    3    0    0  0.32657065081E+02  0.92432510116E+02  0.72549927393E+02  0.17470332822E+03  0.12509000000E+03 0.  0.
<mgrwt>
<rscale>  2 0.44795347E+03</rscale>
<asrwt>0</asrwt>
<pdfrwt beam="1">  1       21 0.39594591E-01 0.44795347E+03</pdfrwt>
<pdfrwt beam="2">  1       21 0.27400099E-01 0.44795347E+03</pdfrwt>
<totfact> 0.72492799E+04</totfact>
</mgrwt>
</event>
<event>
 7    0  0.4831799E-002  0.4580691E+03  0.7546771E-02  0.1025343E+00
         21   -1    0    0  502  501  0.00000000000E+00  0.00000000000E+00  0.46132898954E+02  0.46132898954E+02  0.00000000000E+00 0.  1.
         21   -1    0    0  501  502 -0.00000000000E+00 -0.00000000000E+00 -0.11370805205E+04  0.11370805205E+04  0.00000000000E+00 0.  1.
      99926    2    1    2    0    0  0.00000000000E+00  0.14210854715E-13 -0.10909476215E+04  0.11832134194E+04  0.45806908105E+03 0.  0.
      99925    2    3    3    0    0 -0.19478041919E+02  0.11119216659E+03 -0.75416788048E+03  0.80663514854E+03  0.26296003287E+03 0.  0.
         25    1    4    4    0    0 -0.11643122170E+02  0.94681329160E+02 -0.36526032366E+03  0.39769677963E+03  0.12509000000E+03 0.  0.
         25    1    4    4    0    0 -0.78349197491E+01  0.16510837430E+02 -0.38890755682E+03  0.40893836891E+03  0.12509000000E+03 0.  0.
         25    1    3    3    0    0  0.19478041919E+02 -0.11119216659E+03 -0.33677974105E+03  0.37657827089E+03  0.12509000000E+03 0.  0.
<mgrwt>
<rscale>  2 0.45806908E+03</rscale>
<asrwt>0</asrwt>
<pdfrwt beam="1">  1       21 0.67842494E-02 0.45806908E+03</pdfrwt>
<pdfrwt beam="2">  1       21 0.16721773E+00 0.45806908E+03</pdfrwt>
<totfact> 0.31922386E+04</totfact>
</mgrwt>
</event>
<event>
 7    0  0.4831799E-002  0.4957599E+03  0.7546771E-02  0.1014892E+00
         21   -1    0    0  502  501  0.00000000000E+00  0.00000000000E+00  0.53413845783E+02  0.53413845783E+02  0.00000000000E+00 0. -1.
         21   -1    0    0  501  502 -0.00000000000E+00 -0.00000000000E+00 -0.11503473294E+04  0.11503473294E+04  0.00000000000E+00 0. -1.
      99926    2    1    2    0    0  0.88817841970E-15  0.00000000000E+00 -0.10969334836E+04  0.12037611752E+04  0.49575992113E+03 0.  0.
      99925    2    3    3    0    0  0.63813843298E+01  0.43479802739E+02 -0.32449232192E+03  0.42002392859E+03  0.26304679867E+03 0.  0.
         25    1    4    4    0    0  0.91558650813E+01  0.60654626828E+02 -0.15130307967E+03  0.20567679412E+03  0.12509000000E+03 0.  0.
         25    1    3    3    0    0 -0.63813843298E+01 -0.43479802739E+02 -0.77244116167E+03  0.78373724657E+03  0.12509000000E+03 0.  0.
         25    1    4    4    0    0 -0.27744807515E+01 -0.17174824088E+02 -0.17318924225E+03  0.21434713447E+03  0.12509000000E+03 0.  0.
<mgrwt>
<rscale>  2 0.49575992E+03</rscale>
<asrwt>0</asrwt>
<pdfrwt beam="1">  1       21 0.78549775E-02 0.49575992E+03</pdfrwt>
<pdfrwt beam="2">  1       21 0.16916872E+00 0.49575992E+03</pdfrwt>
<totfact> 0.23603677E+04</totfact>
</mgrwt>
</event>
<event>
 7    0  0.4831799E-002  0.4556380E+03  0.7546771E-02  0.1026054E+00
         21   -1    0    0  502  501  0.00000000000E+00  0.00000000000E+00  0.20273702083E+03  0.20273702083E+03  0.00000000000E+00 0. -1.
         21   -1    0    0  501  502 -0.00000000000E+00 -0.00000000000E+00 -0.25600408419E+03  0.25600408419E+03  0.00000000000E+00 0. -1.
      99926    2    1    2    0    0  0.00000000000E+00 -0.17763568394E-14 -0.53267063355E+02  0.45874110502E+03  0.45563803769E+03 0.  0.
      99925    2    3    3    0    0 -0.74772694078E+02  0.10323299468E+02  0.52124828714E+02  0.27859537150E+03  0.26306055759E+03 0.  0.
         25    1    4    4    0    0 -0.55015659272E+02  0.35500928104E+02  0.48959036701E+02  0.14943739169E+03  0.12509000000E+03 0.  0.
         25    1    3    3    0    0  0.74772694078E+02 -0.10323299468E+02 -0.10539189207E+03  0.18014573352E+03  0.12509000000E+03 0.  0.
         25    1    4    4    0    0 -0.19757034806E+02 -0.25177628636E+02  0.31657920127E+01  0.12915797980E+03  0.12509000000E+03 0.  0.
<mgrwt>
<rscale>  2 0.45563804E+03</rscale>
<asrwt>0</asrwt>
<pdfrwt beam="1">  1       21 0.29814268E-01 0.45563804E+03</pdfrwt>
<pdfrwt beam="2">  1       21 0.37647659E-01 0.45563804E+03</pdfrwt>
<totfact> 0.67926051E+04</totfact>
</mgrwt>
</event>
<event>
 7    0  0.4831799E-002  0.4558026E+03  0.7546771E-02  0.1026006E+00
         21   -1    0    0  502  501  0.00000000000E+00  0.00000000000E+00  0.13728057888E+04  0.13728057888E+04  0.00000000000E+00 0.  1.
         21   -1    0    0  501  502 -0.00000000000E+00 -0.00000000000E+00 -0.37834190235E+02  0.37834190235E+02  0.00000000000E+00 0.  1.
      99926    2    1    2    0    0  0.00000000000E+00  0.00000000000E+00  0.13349715986E+04  0.14106399790E+04  0.45580256853E+03 0.  0.
      99925    2    3    3    0    0  0.64574843092E+02 -0.93666886521E+02  0.84869453932E+03  0.89580380855E+03  0.26313237420E+03 0.  0.
         25    1    4    4    0    0  0.10856281401E+02 -0.72870888393E+02  0.50775164438E+03  0.52809778043E+03  0.12509000000E+03 0.  0.
         25    1    4    4    0    0  0.53718561691E+02 -0.20795998128E+02  0.34094289494E+03  0.36770602812E+03  0.12509000000E+03 0.  0.
         25    1    3    3    0    0 -0.64574843092E+02  0.93666886521E+02  0.48627705924E+03  0.51483617048E+03  0.12509000000E+03 0.  0.
<mgrwt>
<rscale>  2 0.45580257E+03</rscale>
<asrwt>0</asrwt>
<pdfrwt beam="1">  1       21 0.20188317E+00 0.45580257E+03</pdfrwt>
<pdfrwt beam="2">  1       21 0.55638524E-02 0.45580257E+03</pdfrwt>
<totfact> 0.25888019E+04</totfact>
</mgrwt>
</event>
<event>
 7    0  0.4831799E-002  0.4524991E+03  0.7546771E-02  0.1026979E+00
         21   -1    0    0  502  501  0.00000000000E+00  0.00000000000E+00  0.17896299262E+03  0.17896299262E+03  0.00000000000E+00 0. -1.
         21   -1    0    0  501  502 -0.00000000000E+00 -0.00000000000E+00 -0.28603035734E+03  0.28603035734E+03  0.00000000000E+00 0. -1.
      99926    2    1    2    0    0  0.00000000000E+00  0.17763568394E-14 -0.10706736472E+03  0.46499334996E+03  0.45249905515E+03 0.  0.
      99925    2    3    3    0    0  0.77628087015E+02  0.66577909254E+01  0.13474515945E+02  0.27460348896E+03  0.26297351102E+03 0.  0.
         25    1    3    3    0    0 -0.77628087015E+02 -0.66577909254E+01 -0.12054188067E+03  0.19038986099E+03  0.12509000000E+03 0.  0.
         25    1    4    4    0    0  0.52545766196E+02 -0.29865928602E+02  0.25892892409E+02  0.14131872209E+03  0.12509000000E+03 0.  0.
         25    1    4    4    0    0  0.25082320819E+02  0.36523719528E+02 -0.12418376464E+02  0.13328476687E+03  0.12509000000E+03 0.  0.
<mgrwt>
<rscale>  2 0.45249906E+03</rscale>
<asrwt>0</asrwt>
<pdfrwt beam="1">  1       21 0.26318087E-01 0.45249906E+03</pdfrwt>
<pdfrwt beam="2">  1       21 0.42063288E-01 0.45249906E+03</pdfrwt>
<totfact> 0.69172202E+04</totfact>
</mgrwt>
</event>
<event>
 7    0  0.4831799E-002  0.4613786E+03  0.7546771E-02  0.1024382E+00
         21   -1    0    0  502  501  0.00000000000E+00  0.00000000000E+00  0.10289605031E+03  0.10289605031E+03  0.00000000000E+00 0.  1.
         21   -1    0    0  501  502 -0.00000000000E+00 -0.00000000000E+00 -0.51719721659E+03  0.51719721659E+03  0.00000000000E+00 0.  1.
      99926    2    1    2    0    0  0.00000000000E+00  0.00000000000E+00 -0.41430116627E+03  0.62009326690E+03  0.46137858997E+03 0.  0.
      99925    2    3    3    0    0  0.97300935715E+02  0.40359993695E+02 -0.33365583217E+03  0.43775407968E+03  0.26307036845E+03 0.  0.
         25    1    4    4    0    0  0.27800937643E+02  0.30542798651E+02 -0.21239030785E+03  0.24992580030E+03  0.12509000000E+03 0.  0.
         25    1    3    3    0    0 -0.97300935715E+02 -0.40359993695E+02 -0.80645334106E+02  0.18233918722E+03  0.12509000000E+03 0.  0.
         25    1    4    4    0    0  0.69499998072E+02  0.98171950447E+01 -0.12126552431E+03  0.18782827939E+03  0.12509000000E+03 0.  0.
<mgrwt>
<rscale>  2 0.46137859E+03</rscale>
<asrwt>0</asrwt>
<pdfrwt beam="1">  1       21 0.15131772E-01 0.46137859E+03</pdfrwt>
<pdfrwt beam="2">  1       21 0.76058415E-01 0.46137859E+03</pdfrwt>
<totfact> 0.54652850E+04</totfact>
</mgrwt>
</event>
<event>
 7    0  0.4831799E-002  0.4579860E+03  0.7546771E-02  0.1025367E+00
         21   -1    0    0  502  501  0.00000000000E+00  0.00000000000E+00  0.50926170813E+02  0.50926170813E+02  0.00000000000E+00 0. -1.
         21   -1    0    0  501  502 -0.00000000000E+00 -0.00000000000E+00 -0.10296827695E+04  0.10296827695E+04  0.00000000000E+00 0. -1.
      99926    2    1    2    0    0  0.00000000000E+00  0.00000000000E+00 -0.97875659867E+03  0.10806089403E+04  0.45798602861E+03 0.  0.
      99925    2    3    3    0    0 -0.91513540170E+01 -0.85137024430E+02 -0.42997627610E+03  0.51127651477E+03  0.26304375366E+03 0.  0.
         25    1    3    3    0    0  0.91513540170E+01  0.85137024430E+02 -0.54878032257E+03  0.56933242552E+03  0.12509000000E+03 0.  0.
         25    1    4    4    0    0  0.94629800608E+00 -0.20606438947E+02 -0.14055182299E+03  0.18928244465E+03  0.12509000000E+03 0.  0.
         25    1    4    4    0    0 -0.10097652023E+02 -0.64530585483E+02 -0.28942445310E+03  0.32199407012E+03  0.12509000000E+03 0.  0.
<mgrwt>
<rscale>  2 0.45798603E+03</rscale>
<asrwt>0</asrwt>
<pdfrwt beam="1">  1       21 0.74891429E-02 0.45798603E+03</pdfrwt>
<pdfrwt beam="2">  1       21 0.15142393E+00 0.45798603E+03</pdfrwt>
<totfact> 0.35343225E+04</totfact>
</mgrwt>
</event>
<event>
 7    0  0.4831799E-002  0.4565478E+03  0.7546771E-02  0.1025787E+00
         21   -1    0    0  502  501  0.00000000000E+00  0.00000000000E+00  0.20029936740E+03  0.20029936740E+03  0.00000000000E+00 0.  1.
         21   -1    0    0  501  502 -0.00000000000E+00 -0.00000000000E+00 -0.26015547219E+03  0.26015547219E+03  0.00000000000E+00 0.  1.
      99926    2    1    2    0    0  0.00000000000E+00  0.14210854715E-13 -0.59856104792E+02  0.46045483960E+03  0.45654781352E+03 0.  0.
      99925    2    3    3    0    0 -0.52537056536E+02 -0.10054294700E+03 -0.54357767481E+02  0.29149695634E+03  0.26295756725E+03 0.  0.
         25    1    3    3    0    0  0.52537056536E+02  0.10054294700E+03 -0.54983373103E+01  0.16895788325E+03  0.12509000000E+03 0.  0.
         25    1    4    4    0    0 -0.25832049379E+02 -0.19676151587E+02  0.40220197767E+01  0.12929860966E+03  0.12509000000E+03 0.  0.
         25    1    4    4    0    0 -0.26705007157E+02 -0.80866795410E+02 -0.58379787258E+02  0.16219834669E+03  0.12509000000E+03 0.  0.
<mgrwt>
<rscale>  2 0.45654781E+03</rscale>
<asrwt>0</asrwt>
<pdfrwt beam="1">  1       21 0.29455789E-01 0.45654781E+03</pdfrwt>
<pdfrwt beam="2">  1       21 0.38258158E-01 0.45654781E+03</pdfrwt>
<totfact> 0.67312699E+04</totfact>
</mgrwt>
</event>
<event>
 7    0  0.4831799E-002  0.4221189E+03  0.7546771E-02  0.1036379E+00
         21   -1    0    0  502  501  0.00000000000E+00  0.00000000000E+00  0.13349932234E+03  0.13349932234E+03  0.00000000000E+00 0.  1.
         21   -1    0    0  501  502 -0.00000000000E+00 -0.00000000000E+00 -0.33368021995E+03  0.33368021995E+03  0.00000000000E+00 0.  1.
      99926    2    1    2    0    0  0.00000000000E+00  0.00000000000E+00 -0.20018089761E+03  0.46717954229E+03  0.42211886118E+03 0.  0.
      99925    2    3    3    0    0 -0.55301038022E+02 -0.32245446390E+02 -0.18028079864E+03  0.32525880505E+03  0.26304780988E+03 0.  0.
         25    1    3    3    0    0  0.55301038022E+02  0.32245446390E+02 -0.19900098974E+02  0.14192073724E+03  0.12509000000E+03 0.  0.
         25    1    4    4    0    0 -0.63814818122E+02 -0.36215966745E+01 -0.76179916618E+02  0.15980092231E+03  0.12509000000E+03 0.  0.
         25    1    4    4    0    0  0.85137800996E+01 -0.28623849715E+02 -0.10410088202E+03  0.16545788274E+03  0.12509000000E+03 0.  0.
<mgrwt>
<rscale>  2 0.42211886E+03</rscale>
<asrwt>0</asrwt>
<pdfrwt beam="1">  1       21 0.19632253E-01 0.42211886E+03</pdfrwt>
<pdfrwt beam="2">  1       21 0.49070621E-01 0.42211886E+03</pdfrwt>
<totfact> 0.88611715E+04</totfact>
</mgrwt>
</event>
<event>
 7    0  0.4831799E-002  0.4308013E+03  0.7546771E-02  0.1033607E+00
         21   -1    0    0  502  501  0.00000000000E+00  0.00000000000E+00  0.73926433157E+02  0.73926433157E+02  0.00000000000E+00 0. -1.
         21   -1    0    0  501  502 -0.00000000000E+00 -0.00000000000E+00 -0.62761628039E+03  0.62761628039E+03  0.00000000000E+00 0. -1.
      99926    2    1    2    0    0 -0.71054273576E-14 -0.53290705182E-14 -0.55368984723E+03  0.70154271354E+03  0.43080126741E+03 0.  0.
      99925    2    3    3    0    0 -0.48388742966E+02 -0.12297376102E+02 -0.23766506029E+03  0.35801415583E+03  0.26305276845E+03 0.  0.
         25    1    4    4    0    0 -0.33565505551E+02 -0.38875279817E+02 -0.91679851342E+02  0.16337268372E+03  0.12509000000E+03 0.  0.
         25    1    4    4    0    0 -0.14823237415E+02  0.26577903716E+02 -0.14598520895E+03  0.19464147211E+03  0.12509000000E+03 0.  0.
         25    1    3    3    0    0  0.48388742966E+02  0.12297376102E+02 -0.31602478694E+03  0.34352855771E+03  0.12509000000E+03 0.  0.
<mgrwt>
<rscale>  2 0.43080127E+03</rscale>
<asrwt>0</asrwt>
<pdfrwt beam="1">  1       21 0.10871533E-01 0.43080127E+03</pdfrwt>
<pdfrwt beam="2">  1       21 0.92296519E-01 0.43080127E+03</pdfrwt>
<totfact> 0.64198519E+04</totfact>
</mgrwt>
</event>
<event>
 7    0  0.4831799E-002  0.4555760E+03  0.7546771E-02  0.1026072E+00
         21   -1    0    0  502  501  0.00000000000E+00  0.00000000000E+00  0.34334124355E+03  0.34334124355E+03  0.00000000000E+00 0. -1.
         21   -1    0    0  501  502 -0.00000000000E+00 -0.00000000000E+00 -0.15112481521E+03  0.15112481521E+03  0.00000000000E+00 0. -1.
      99926    2    1    2    0    0  0.00000000000E+00  0.00000000000E+00  0.19221642834E+03  0.49446605876E+03  0.45557603969E+03 0.  0.
      99925    2    3    3    0    0  0.33657520636E+02 -0.49186738679E+02  0.22603457013E+03  0.35183598209E+03  0.26295392646E+03 0.  0.
         25    1    4    4    0    0  0.50125873562E+02 -0.15925846035E+01  0.11425707227E+03  0.17668425563E+03  0.12509000000E+03 0.  0.
         25    1    3    3    0    0 -0.33657520636E+02  0.49186738679E+02 -0.33818141790E+02  0.14263007667E+03  0.12509000000E+03 0.  0.
         25    1    4    4    0    0 -0.16468352926E+02 -0.47594154075E+02  0.11177749787E+03  0.17515172645E+03  0.12509000000E+03 0.  0.
<mgrwt>
<rscale>  2 0.45557604E+03</rscale>
<asrwt>0</asrwt>
<pdfrwt beam="1">  1       21 0.50491359E-01 0.45557604E+03</pdfrwt>
<pdfrwt beam="2">  1       21 0.22224238E-01 0.45557604E+03</pdfrwt>
<totfact> 0.65361799E+04</totfact>
</mgrwt>
</event>
<event>
 7    0  0.4831799E-002  0.4563365E+03  0.7546771E-02  0.1025849E+00
         21   -1    0    0  502  501  0.00000000000E+00  0.00000000000E+00  0.65087635867E+03  0.65087635867E+03  0.00000000000E+00 0. -1.
         21   -1    0    0  501  502 -0.00000000000E+00 -0.00000000000E+00 -0.79985637356E+02  0.79985637356E+02  0.00000000000E+00 0. -1.
      99926    2    1    2    0    0 -0.14210854715E-13  0.00000000000E+00  0.57089072131E+03  0.73086199602E+03  0.45633654418E+03 0.  0.
      99925    2    3    3    0    0  0.85718286934E+02 -0.67710874025E+02  0.41262923313E+03  0.50145712703E+03  0.26318050657E+03 0.  0.
         25    1    4    4    0    0  0.40887309231E+02 -0.62210613819E+02  0.16246706774E+03  0.21813983756E+03  0.12509000000E+03 0.  0.
         25    1    3    3    0    0 -0.85718286934E+02  0.67710874025E+02  0.15826148818E+03  0.22940486899E+03  0.12509000000E+03 0.  0.
         25    1    4    4    0    0  0.44830977703E+02 -0.55002602056E+01  0.25016216539E+03  0.28331728947E+03  0.12509000000E+03 0.  0.
<mgrwt>
<rscale>  2 0.45633654E+03</rscale>
<asrwt>0</asrwt>
<pdfrwt beam="1">  1       21 0.95717109E-01 0.45633654E+03</pdfrwt>
<pdfrwt beam="2">  1       21 0.11762594E-01 0.45633654E+03</pdfrwt>
<totfact> 0.50724009E+04</totfact>
</mgrwt>
</event>
<event>
 6    0  0.4831799E-002  0.4542215E+03  0.7546771E-02  0.1026471E+00
         21   -1    0    0  502  501  0.00000000000E+00  0.00000000000E+00  0.35050038438E+03  0.35050038438E+03  0.00000000000E+00 0. -1.
         21   -1    0    0  501  502 -0.00000000000E+00 -0.00000000000E+00 -0.14715899973E+03  0.14715899973E+03  0.00000000000E+00 0. -1.
      99926    2    1    2    0    0  0.00000000000E+00  0.00000000000E+00  0.20334138465E+03  0.49765938411E+03  0.45422147008E+03 0.  0.
         25    1    3    3    0    0 -0.29019039993E+02  0.20457203235E+02 -0.30951379775E+02  0.13366412330E+03  0.12509000000E+03 0.  0.
         25    1    3    3    0    0  0.53263766423E+02 -0.31065868504E+02  0.17297496944E+03  0.22219353085E+03  0.12509000000E+03 0.  0.
         25    1    3    3    0    0 -0.24244726430E+02  0.10608665269E+02  0.61317794986E+02  0.14180172996E+03  0.12509000000E+03 0.  0.
<mgrwt>
<rscale>  2 0.45422147E+03</rscale>
<asrwt>0</asrwt>
<pdfrwt beam="1">  1       21 0.51544174E-01 0.45422147E+03</pdfrwt>
<pdfrwt beam="2">  1       21 0.21641029E-01 0.45422147E+03</pdfrwt>
<totfact> 0.65841381E+04</totfact>
</mgrwt>
</event>
<event>
 7    0  0.4831799E-002  0.4562086E+03  0.7546771E-02  0.1025887E+00
         21   -1    0    0  502  501  0.00000000000E+00  0.00000000000E+00  0.48430688074E+02  0.48430688074E+02  0.00000000000E+00 0.  1.
         21   -1    0    0  501  502 -0.00000000000E+00 -0.00000000000E+00 -0.10743510866E+04  0.10743510866E+04  0.00000000000E+00 0.  1.
      99926    2    1    2    0    0  0.00000000000E+00  0.00000000000E+00 -0.10259203986E+04  0.11227817747E+04  0.45620855915E+03 0.  0.
      99925    2    3    3    0    0 -0.10991020360E+03  0.30819873473E+02 -0.66027433301E+03  0.71982436900E+03  0.26297302130E+03 0.  0.
         25    1    4    4    0    0 -0.28451651657E+02  0.14862068857E+01 -0.22876704765E+03  0.26228529406E+03  0.12509000000E+03 0.  0.
         25    1    4    4    0    0 -0.81458551945E+02  0.29333666588E+02 -0.43150728536E+03  0.45753907494E+03  0.12509000000E+03 0.  0.
         25    1    3    3    0    0  0.10991020360E+03 -0.30819873473E+02 -0.36564606556E+03  0.40295740571E+03  0.12509000000E+03 0.  0.
<mgrwt>
<rscale>  2 0.45620856E+03</rscale>
<asrwt>0</asrwt>
<pdfrwt beam="1">  1       21 0.71221612E-02 0.45620856E+03</pdfrwt>
<pdfrwt beam="2">  1       21 0.15799278E+00 0.45620856E+03</pdfrwt>
<totfact> 0.34379166E+04</totfact>
</mgrwt>
</event>
<event>
 7    0  0.4831799E-002  0.4473793E+03  0.7546771E-02  0.1028506E+00
         21   -1    0    0  502  501  0.00000000000E+00  0.00000000000E+00  0.30347885764E+03  0.30347885764E+03  0.00000000000E+00 0.  1.
         21   -1    0    0  501  502 -0.00000000000E+00 -0.00000000000E+00 -0.16487826074E+03  0.16487826074E+03  0.00000000000E+00 0.  1.
      99926    2    1    2    0    0 -0.17763568394E-14  0.00000000000E+00  0.13860059690E+03  0.46835711838E+03  0.44737932996E+03 0.  0.
      99925    2    3    3    0    0 -0.50483486915E+01  0.93350728582E+02  0.35815417533E+02  0.28140218919E+03  0.26299164169E+03 0.  0.
         25    1    4    4    0    0  0.35203060650E+02  0.55818265153E+02  0.61836981176E+01  0.14156511020E+03  0.12509000000E+03 0.  0.
         25    1    4    4    0    0 -0.40251409342E+02  0.37532463429E+02  0.29631719416E+02  0.13983707899E+03  0.12509000000E+03 0.  0.
         25    1    3    3    0    0  0.50483486915E+01 -0.93350728582E+02  0.10278517936E+03  0.18695492919E+03  0.12509000000E+03 0.  0.
<mgrwt>
<rscale>  2 0.44737933E+03</rscale>
<asrwt>0</asrwt>
<pdfrwt beam="1">  1       21 0.44629244E-01 0.44737933E+03</pdfrwt>
<pdfrwt beam="2">  1       21 0.24246803E-01 0.44737933E+03</pdfrwt>
<totfact> 0.71802518E+04</totfact>
</mgrwt>
</event>
<event>
 7    0  0.4831799E-002  0.4410084E+03  0.7546771E-02  0.1030438E+00
         21   -1    0    0  502  501  0.00000000000E+00  0.00000000000E+00  0.66042122737E+03  0.66042122737E+03  0.00000000000E+00 0. -1.
         21   -1    0    0  501  502 -0.00000000000E+00 -0.00000000000E+00 -0.73622870559E+02  0.73622870559E+02  0.00000000000E+00 0. -1.
      99926    2    1    2    0    0  0.17763568394E-14  0.00000000000E+00  0.58679835681E+03  0.73404409793E+03  0.44100841959E+03 0.  0.
      99925    2    3    3    0    0  0.13326428913E+02  0.31988371740E+02  0.52932149463E+03  0.59208654293E+03  0.26302923794E+03 0.  0.
         25    1    3    3    0    0 -0.13326428913E+02 -0.31988371740E+02  0.57476862184E+02  0.14195755500E+03  0.12509000000E+03 0.  0.
         25    1    4    4    0    0  0.47187458918E+02  0.14782450624E+02  0.26193379847E+03  0.29445203346E+03  0.12509000000E+03 0.  0.
         25    1    4    4    0    0 -0.33861030005E+02  0.17205921116E+02  0.26738769616E+03  0.29763450948E+03  0.12509000000E+03 0.  0.
<mgrwt>
<rscale>  2 0.44100842E+03</rscale>
<asrwt>0</asrwt>
<pdfrwt beam="1">  1       21 0.97120766E-01 0.44100842E+03</pdfrwt>
<pdfrwt beam="2">  1       21 0.10826893E-01 0.44100842E+03</pdfrwt>
<totfact> 0.57122746E+04</totfact>
</mgrwt>
</event>
<event>
 7    0  0.4831799E-002  0.4680758E+03  0.7546771E-02  0.1022465E+00
         21   -1    0    0  502  501  0.00000000000E+00  0.00000000000E+00  0.16471441226E+03  0.16471441226E+03  0.00000000000E+00 0. -1.
         21   -1    0    0  501  502 -0.00000000000E+00 -0.00000000000E+00 -0.33253763663E+03  0.33253763663E+03  0.00000000000E+00 0. -1.
      99926    2    1    2    0    0  0.00000000000E+00 -0.71054273576E-14 -0.16782322437E+03  0.49725204889E+03  0.46807581168E+03 0.  0.
      99925    2    3    3    0    0  0.73132026470E+02  0.55849991692E+02 -0.19431890656E+03  0.33971778550E+03  0.26302247332E+03 0.  0.
         25    1    4    4    0    0  0.30454583617E+02 -0.11755133437E+02 -0.10424310547E+03  0.16607166514E+03  0.12509000000E+03 0.  0.
         25    1    3    3    0    0 -0.73132026470E+02 -0.55849991692E+02  0.26495682187E+02  0.15753426339E+03  0.12509000000E+03 0.  0.
         25    1    4    4    0    0  0.42677442853E+02  0.67605125129E+02 -0.90075801096E+02  0.17364612036E+03  0.12509000000E+03 0.  0.
<mgrwt>
<rscale>  2 0.46807581E+03</rscale>
<asrwt>0</asrwt>
<pdfrwt beam="1">  1       21 0.24222708E-01 0.46807581E+03</pdfrwt>
<pdfrwt beam="2">  1       21 0.48902594E-01 0.46807581E+03</pdfrwt>
<totfact> 0.59088265E+04</totfact>
</mgrwt>
</event>
<event>
 7    0  0.4831799E-002  0.4622040E+03  0.7546771E-02  0.1024144E+00
         21   -1    0    0  502  501  0.00000000000E+00  0.00000000000E+00  0.59892764394E+03  0.59892764394E+03  0.00000000000E+00 0. -1.
         21   -1    0    0  501  502 -0.00000000000E+00 -0.00000000000E+00 -0.89172913516E+02  0.89172913516E+02  0.00000000000E+00 0. -1.
      99926    2    1    2    0    0  0.00000000000E+00  0.17763568394E-14  0.50975473043E+03  0.68810055746E+03  0.46220395064E+03 0.  0.
      99925    2    3    3    0    0 -0.54699158789E+02 -0.10985199653E+02  0.47610161190E+03  0.54705902787E+03  0.26360607454E+03 0.  0.
         25    1    4    4    0    0  0.74006202774E+01  0.14826341326E+02  0.19794449992E+03  0.23474267342E+03  0.12509000000E+03 0.  0.
         25    1    4    4    0    0 -0.62099779067E+02 -0.25811540978E+02  0.27815711198E+03  0.31231635444E+03  0.12509000000E+03 0.  0.
         25    1    3    3    0    0  0.54699158789E+02  0.10985199653E+02  0.33653118530E+02  0.14104152959E+03  0.12509000000E+03 0.  0.
<mgrwt>
<rscale>  2 0.46220395E+03</rscale>
<asrwt>0</asrwt>
<pdfrwt beam="1">  1       21 0.88077593E-01 0.46220395E+03</pdfrwt>
<pdfrwt beam="2">  1       21 0.13113664E-01 0.46220395E+03</pdfrwt>
<totfact> 0.50620361E+04</totfact>
</mgrwt>
</event>
<event>
 7    0  0.4831799E-002  0.4568720E+03  0.7546771E-02  0.1025692E+00
         21   -1    0    0  502  501  0.00000000000E+00  0.00000000000E+00  0.11136452567E+04  0.11136452567E+04  0.00000000000E+00 0.  1.
         21   -1    0    0  501  502 -0.00000000000E+00 -0.00000000000E+00 -0.46857842929E+02  0.46857842929E+02  0.00000000000E+00 0.  1.
      99926    2    1    2    0    0 -0.14210854715E-13  0.71054273576E-14  0.10667874137E+04  0.11605030996E+04  0.45687203686E+03 0.  0.
      99925    2    3    3    0    0 -0.10063671114E+03  0.55679403103E+02  0.67556835564E+03  0.73397314394E+03  0.26286123586E+03 0.  0.
         25    1    3    3    0    0  0.10063671114E+03 -0.55679403103E+02  0.39121905810E+03  0.42652995567E+03  0.12509000000E+03 0.  0.
         25    1    4    4    0    0 -0.31930944377E+02  0.61648662025E+02  0.36888962777E+03  0.39566047101E+03  0.12509000000E+03 0.  0.
         25    1    4    4    0    0 -0.68705766759E+02 -0.59692589215E+01  0.30667872787E+03  0.33831267293E+03  0.12509000000E+03 0.  0.
<mgrwt>
<rscale>  2 0.45687204E+03</rscale>
<asrwt>0</asrwt>
<pdfrwt beam="1">  1       21 0.16377134E+00 0.45687204E+03</pdfrwt>
<pdfrwt beam="2">  1       21 0.68908600E-02 0.45687204E+03</pdfrwt>
<totfact> 0.32950295E+04</totfact>
</mgrwt>
</event>
<event>
 7    0  0.4831799E-002  0.4495245E+03  0.7546771E-02  0.1027864E+00
         21   -1    0    0  502  501  0.00000000000E+00  0.00000000000E+00  0.21681685450E+03  0.21681685450E+03  0.00000000000E+00 0. -1.
         21   -1    0    0  501  502 -0.00000000000E+00 -0.00000000000E+00 -0.23299877657E+03  0.23299877657E+03  0.00000000000E+00 0. -1.
      99926    2    1    2    0    0  0.00000000000E+00  0.00000000000E+00 -0.16181922075E+02  0.44981563107E+03  0.44952446802E+03 0.  0.
      99925    2    3    3    0    0  0.28749611981E+02  0.99236907045E+02  0.23875544505E+02  0.28270305633E+03  0.26206196313E+03 0.  0.
         25    1    3    3    0    0 -0.28749611981E+02 -0.99236907045E+02 -0.40057466580E+02  0.16711257474E+03  0.12509000000E+03 0.  0.
         25    1    4    4    0    0  0.51875956146E+02  0.39011997975E+02  0.10270620331E+02  0.14130125461E+03  0.12509000000E+03 0.  0.
         25    1    4    4    0    0 -0.23126344165E+02  0.60224909071E+02  0.13604924174E+02  0.14140180172E+03  0.12509000000E+03 0.  0.
<mgrwt>
<rscale>  2 0.44952447E+03</rscale>
<asrwt>0</asrwt>
<pdfrwt beam="1">  1       21 0.31884832E-01 0.44952447E+03</pdfrwt>
<pdfrwt beam="2">  1       21 0.34264526E-01 0.44952447E+03</pdfrwt>
<totfact> 0.72022821E+04</totfact>
</mgrwt>
</event>
<event>
 7    0  0.4831799E-002  0.4573624E+03  0.7546771E-02  0.1025549E+00
         21   -1    0    0  502  501  0.00000000000E+00  0.00000000000E+00  0.61937992282E+03  0.61937992282E+03  0.00000000000E+00 0.  1.
         21   -1    0    0  501  502 -0.00000000000E+00 -0.00000000000E+00 -0.84431349208E+02  0.84431349208E+02  0.00000000000E+00 0.  1.
      99926    2    1    2    0    0  0.00000000000E+00 -0.71054273576E-14  0.53494857361E+03  0.70381127203E+03  0.45736236205E+03 0.  0.
      99925    2    3    3    0    0 -0.96636369394E+02 -0.47276817459E+02  0.27254124500E+03  0.39384546816E+03  0.26317643740E+03 0.  0.
         25    1    3    3    0    0  0.96636369394E+02  0.47276817459E+02  0.26240732861E+03  0.30996580386E+03  0.12509000000E+03 0.  0.
         25    1    4    4    0    0 -0.24258223537E+02  0.78363878170E+01  0.14652251257E+03  0.19433534206E+03  0.12509000000E+03 0.  0.
         25    1    4    4    0    0 -0.72378145857E+02 -0.55113205276E+02  0.12601873243E+03  0.19951012610E+03  0.12509000000E+03 0.  0.
<mgrwt>
<rscale>  2 0.45736236E+03</rscale>
<asrwt>0</asrwt>
<pdfrwt beam="1">  1       21 0.91085280E-01 0.45736236E+03</pdfrwt>
<pdfrwt beam="2">  1       21 0.12416375E-01 0.45736236E+03</pdfrwt>
<totfact> 0.51728186E+04</totfact>
</mgrwt>
</event>
<event>
 7    0  0.4831799E-002  0.4526234E+03  0.7546771E-02  0.1026943E+00
         21   -1    0    0  502  501  0.00000000000E+00  0.00000000000E+00  0.23024414920E+03  0.23024414920E+03  0.00000000000E+00 0. -1.
         21   -1    0    0  501  502 -0.00000000000E+00 -0.00000000000E+00 -0.22244644450E+03  0.22244644450E+03  0.00000000000E+00 0. -1.
      99926    2    1    2    0    0  0.00000000000E+00  0.14210854715E-13  0.77977046979E+01  0.45269059370E+03  0.45262343005E+03 0.  0.
      99925    2    3    3    0    0 -0.57488655218E+02  0.94101442404E+02 -0.24850241632E+01  0.28561794617E+03  0.26346045033E+03 0.  0.
         25    1    3    3    0    0  0.57488655218E+02 -0.94101442404E+02  0.10282728861E+02  0.16707264753E+03  0.12509000000E+03 0.  0.
         25    1    4    4    0    0 -0.62184029147E+02  0.28513714143E+02 -0.16865776228E+02  0.14356826907E+03  0.12509000000E+03 0.  0.
         25    1    4    4    0    0  0.46953739291E+01  0.65587728261E+02  0.14380752065E+02  0.14204967710E+03  0.12509000000E+03 0.  0.
<mgrwt>
<rscale>  2 0.45262343E+03</rscale>
<asrwt>0</asrwt>
<pdfrwt beam="1">  1       21 0.33859434E-01 0.45262343E+03</pdfrwt>
<pdfrwt beam="2">  1       21 0.32712712E-01 0.45262343E+03</pdfrwt>
<totfact> 0.70033940E+04</totfact>
</mgrwt>
</event>
<event>
 7    0  0.4831799E-002  0.4534458E+03  0.7546771E-02  0.1026699E+00
         21   -1    0    0  502  501  0.00000000000E+00  0.00000000000E+00  0.10420238549E+04  0.10420238549E+04  0.00000000000E+00 0. -1.
         21   -1    0    0  501  502 -0.00000000000E+00 -0.00000000000E+00 -0.49330222463E+02  0.49330222463E+02  0.00000000000E+00 0. -1.
      99926    2    1    2    0    0 -0.71054273576E-14  0.00000000000E+00  0.99269363244E+03  0.10913540774E+04  0.45344577878E+03 0.  0.
      99925    2    3    3    0    0  0.53749648621E+02 -0.89394292840E+02  0.52931391667E+03  0.60018340091E+03  0.26299530040E+03 0.  0.
         25    1    4    4    0    0  0.28248310508E+02 -0.65861357812E+02  0.35243408833E+03  0.38077943775E+03  0.12509000000E+03 0.  0.
         25    1    3    3    0    0 -0.53749648621E+02  0.89394292840E+02  0.46337971577E+03  0.49117067645E+03  0.12509000000E+03 0.  0.
         25    1    4    4    0    0  0.25501338113E+02 -0.23532935029E+02  0.17687982834E+03  0.21940396316E+03  0.12509000000E+03 0.  0.
<mgrwt>
<rscale>  2 0.45344578E+03</rscale>
<asrwt>0</asrwt>
<pdfrwt beam="1">  1       21 0.15323879E+00 0.45344578E+03</pdfrwt>
<pdfrwt beam="2">  1       21 0.72544452E-02 0.45344578E+03</pdfrwt>
<totfact> 0.36232867E+04</totfact>
</mgrwt>
</event>
<event>
 7    0  0.4831799E-002  0.4595338E+03  0.7546771E-02  0.1024917E+00
         21   -1    0    0  502  501  0.00000000000E+00  0.00000000000E+00  0.57619360637E+03  0.57619360637E+03  0.00000000000E+00 0. -1.
         21   -1    0    0  501  502 -0.00000000000E+00 -0.00000000000E+00 -0.91623428387E+02  0.91623428387E+02  0.00000000000E+00 0. -1.
      99926    2    1    2    0    0  0.00000000000E+00  0.71054273576E-14  0.48457017798E+03  0.66781703475E+03  0.45953382304E+03 0.  0.
      99925    2    3    3    0    0 -0.92550068075E+02  0.59661458514E+02  0.24742917152E+03  0.37797506096E+03  0.26366445921E+03 0.  0.
         25    1    3    3    0    0  0.92550068075E+02 -0.59661458514E+02  0.23714100646E+03  0.28984197380E+03  0.12509000000E+03 0.  0.
         25    1    4    4    0    0 -0.39331288887E+02 -0.10496875137E+02  0.97150158048E+02  0.16353224753E+03  0.12509000000E+03 0.  0.
         25    1    4    4    0    0 -0.53218779188E+02  0.70158333651E+02  0.15027901348E+03  0.21444281343E+03  0.12509000000E+03 0.  0.
<mgrwt>
<rscale>  2 0.45953382E+03</rscale>
<asrwt>0</asrwt>
<pdfrwt beam="1">  1       21 0.84734353E-01 0.45953382E+03</pdfrwt>
<pdfrwt beam="2">  1       21 0.13474034E-01 0.45953382E+03</pdfrwt>
<totfact> 0.52773516E+04</totfact>
</mgrwt>
</event>
<event>
 7    0  0.4831799E-002  0.4516693E+03  0.7546771E-02  0.1027225E+00
         21   -1    0    0  502  501  0.00000000000E+00  0.00000000000E+00  0.93395166356E+03  0.93395166356E+03  0.00000000000E+00 0. -1.
         21   -1    0    0  501  502 -0.00000000000E+00 -0.00000000000E+00 -0.54608054676E+02  0.54608054676E+02  0.00000000000E+00 0. -1.
      99926    2    1    2    0    0  0.00000000000E+00  0.14210854715E-13  0.87934360889E+03  0.98855971824E+03  0.45166927506E+03 0.  0.
      99925    2    3    3    0    0 -0.31183782239E+02  0.10421687650E+03  0.59149519725E+03  0.65638837419E+03  0.26295540265E+03 0.  0.
         25    1    3    3    0    0  0.31183782239E+02 -0.10421687650E+03  0.28784841164E+03  0.33217134405E+03  0.12509000000E+03 0.  0.
         25    1    4    4    0    0  0.14595181859E+02  0.77981165345E+02  0.33119707942E+03  0.36281275473E+03  0.12509000000E+03 0.  0.
         25    1    4    4    0    0 -0.45778964099E+02  0.26235711160E+02  0.26029811783E+03  0.29357561945E+03  0.12509000000E+03 0.  0.
<mgrwt>
<rscale>  2 0.45166928E+03</rscale>
<asrwt>0</asrwt>
<pdfrwt beam="1">  1       21 0.13734582E+00 0.45166928E+03</pdfrwt>
<pdfrwt beam="2">  1       21 0.80305968E-02 0.45166928E+03</pdfrwt>
<totfact> 0.40662285E+04</totfact>
</mgrwt>
</event>
<event>
 7    0  0.4831799E-002  0.4485475E+03  0.7546771E-02  0.1028156E+00
         21   -1    0    0  502  501  0.00000000000E+00  0.00000000000E+00  0.48921838975E+02  0.48921838975E+02  0.00000000000E+00 0.  1.
         21   -1    0    0  501  502 -0.00000000000E+00 -0.00000000000E+00 -0.10281444022E+04  0.10281444022E+04  0.00000000000E+00 0.  1.
      99926    2    1    2    0    0  0.17763568394E-14  0.00000000000E+00 -0.97922256321E+03  0.10770662412E+04  0.44854749976E+03 0.  0.
      99925    2    3    3    0    0 -0.52055064194E+01  0.10334837831E+03 -0.68518121289E+03  0.74118559510E+03  0.26301104025E+03 0.  0.
         25    1    3    3    0    0  0.52055064194E+01 -0.10334837831E+03 -0.29404135032E+03  0.33588064606E+03  0.12509000000E+03 0.  0.
         25    1    4    4    0    0  0.13255216567E+02  0.85960190570E+02 -0.32189199557E+03  0.35612753339E+03  0.12509000000E+03 0.  0.
         25    1    4    4    0    0 -0.18460722986E+02  0.17388187744E+02 -0.36328921732E+03  0.38505806171E+03  0.12509000000E+03 0.  0.
<mgrwt>
<rscale>  2 0.44854750E+03</rscale>
<asrwt>0</asrwt>
<pdfrwt beam="1">  1       21 0.71943887E-02 0.44854750E+03</pdfrwt>
<pdfrwt beam="2">  1       21 0.15119769E+00 0.44854750E+03</pdfrwt>
<totfact> 0.38186359E+04</totfact>
</mgrwt>
</event>
<event>
 7    0  0.4831799E-002  0.4606384E+03  0.7546771E-02  0.1024596E+00
         21   -1    0    0  502  501  0.00000000000E+00  0.00000000000E+00  0.14549098299E+03  0.14549098299E+03  0.00000000000E+00 0.  1.
         21   -1    0    0  501  502 -0.00000000000E+00 -0.00000000000E+00 -0.36460626385E+03  0.36460626385E+03  0.00000000000E+00 0.  1.
      99926    2    1    2    0    0  0.00000000000E+00  0.00000000000E+00 -0.21911528086E+03  0.51009724684E+03  0.46063835590E+03 0.  0.
      99925    2    3    3    0    0 -0.28019429057E+02 -0.39334584717E+02 -0.25714719922E+03  0.37071922536E+03  0.26263237429E+03 0.  0.
         25    1    3    3    0    0  0.28019429057E+02  0.39334584717E+02  0.38031918354E+02  0.13937802149E+03  0.12509000000E+03 0.  0.
         25    1    4    4    0    0 -0.25721542435E+02 -0.58008212733E+02 -0.14358586822E+03  0.20072608237E+03  0.12509000000E+03 0.  0.
         25    1    4    4    0    0 -0.22978866222E+01  0.18673628016E+02 -0.11356133099E+03  0.16999314299E+03  0.12509000000E+03 0.  0.
<mgrwt>
<rscale>  2 0.46063836E+03</rscale>
<asrwt>0</asrwt>
<pdfrwt beam="1">  1       21 0.21395733E-01 0.46063836E+03</pdfrwt>
<pdfrwt beam="2">  1       21 0.53618567E-01 0.46063836E+03</pdfrwt>
<totfact> 0.61756654E+04</totfact>
</mgrwt>
</event>
<event>
 7    0  0.4831799E-002  0.4713995E+03  0.7546771E-02  0.1021526E+00
         21   -1    0    0  502  501  0.00000000000E+00  0.00000000000E+00  0.12670631363E+04  0.12670631363E+04  0.00000000000E+00 0. -1.
         21   -1    0    0  501  502 -0.00000000000E+00 -0.00000000000E+00 -0.43844998423E+02  0.43844998423E+02  0.00000000000E+00 0. -1.
      99926    2    1    2    0    0  0.00000000000E+00  0.00000000000E+00  0.12232181379E+04  0.13109081347E+04  0.47139953845E+03 0.  0.
      99925    2    3    3    0    0 -0.82021983188E+02  0.77109845829E+02  0.92802858139E+03  0.97111714542E+03  0.26297895014E+03 0.  0.
         25    1    4    4    0    0 -0.40124388820E+02  0.33088886566E+02  0.59480603488E+03  0.61003816948E+03  0.12509000000E+03 0.  0.
         25    1    3    3    0    0  0.82021983188E+02 -0.77109845829E+02  0.29518955651E+03  0.33979098932E+03  0.12509000000E+03 0.  0.
         25    1    4    4    0    0 -0.41897594368E+02  0.44020959262E+02  0.33322254651E+03  0.36107897595E+03  0.12509000000E+03 0.  0.
<mgrwt>
<rscale>  2 0.47139954E+03</rscale>
<asrwt>0</asrwt>
<pdfrwt beam="1">  1       21 0.18633279E+00 0.47139954E+03</pdfrwt>
<pdfrwt beam="2">  1       21 0.64477947E-02 0.47139954E+03</pdfrwt>
<totfact> 0.25400924E+04</totfact>
</mgrwt>
</event>
<event>
 7    0  0.4831799E-002  0.4552350E+03  0.7546771E-02  0.1026172E+00
         21   -1    0    0  502  501  0.00000000000E+00  0.00000000000E+00  0.81359007823E+02  0.81359007823E+02  0.00000000000E+00 0. -1.
         21   -1    0    0  501  502 -0.00000000000E+00 -0.00000000000E+00 -0.63680373540E+03  0.63680373540E+03  0.00000000000E+00 0. -1.
      99926    2    1    2    0    0  0.00000000000E+00  0.00000000000E+00 -0.55544472758E+03  0.71816274322E+03  0.45523497269E+03 0.  0.
      99925    2    3    3    0    0  0.72203227918E+02  0.58732424721E+02 -0.24724050910E+03  0.37276420208E+03  0.26298759891E+03 0.  0.
         25    1    4    4    0    0  0.17111795554E+02  0.49604950368E+02 -0.83553050411E+02  0.15931756018E+03  0.12509000000E+03 0.  0.
         25    1    3    3    0    0 -0.72203227918E+02 -0.58732424721E+02 -0.30820421848E+03  0.34539854114E+03  0.12509000000E+03 0.  0.
         25    1    4    4    0    0  0.55091432364E+02  0.91274743526E+01 -0.16368745869E+03  0.21344664190E+03  0.12509000000E+03 0.  0.
<mgrwt>
<rscale>  2 0.45523497E+03</rscale>
<asrwt>0</asrwt>
<pdfrwt beam="1">  1       21 0.11964560E-01 0.45523497E+03</pdfrwt>
<pdfrwt beam="2">  1       21 0.93647610E-01 0.45523497E+03</pdfrwt>
<totfact> 0.51832076E+04</totfact>
</mgrwt>
</event>
<event>
 7    0  0.4831799E-002  0.4446085E+03  0.7546771E-02  0.1029342E+00
         21   -1    0    0  502  501  0.00000000000E+00  0.00000000000E+00  0.52184655487E+03  0.52184655487E+03  0.00000000000E+00 0.  1.
         21   -1    0    0  501  502 -0.00000000000E+00 -0.00000000000E+00 -0.94700588218E+02  0.94700588218E+02  0.00000000000E+00 0.  1.
      99926    2    1    2    0    0  0.00000000000E+00  0.00000000000E+00  0.42714596665E+03  0.61654714309E+03  0.44460848263E+03 0.  0.
      99925    2    3    3    0    0  0.17944519624E+02  0.10137553566E+03  0.27983923080E+03  0.39758187748E+03  0.26298735557E+03 0.  0.
         25    1    3    3    0    0 -0.17944519624E+02 -0.10137553566E+03  0.14730673585E+03  0.21896526560E+03  0.12509000000E+03 0.  0.
         25    1    4    4    0    0  0.23093209434E+01  0.19582817530E+02  0.16738558420E+03  0.20989107080E+03  0.12509000000E+03 0.  0.
         25    1    4    4    0    0  0.15635198681E+02  0.81792718131E+02  0.11245364660E+03  0.18769080668E+03  0.12509000000E+03 0.  0.
<mgrwt>
<rscale>  2 0.44460848E+03</rscale>
<asrwt>0</asrwt>
<pdfrwt beam="1">  1       21 0.76742139E-01 0.44460848E+03</pdfrwt>
<pdfrwt beam="2">  1       21 0.13926557E-01 0.44460848E+03</pdfrwt>
<totfact> 0.62656627E+04</totfact>
</mgrwt>
</event>
<event>
 7    0  0.4831799E-002  0.4541969E+03  0.7546771E-02  0.1026478E+00
         21   -1    0    0  502  501  0.00000000000E+00  0.00000000000E+00  0.72495878306E+02  0.72495878306E+02  0.00000000000E+00 0.  1.
         21   -1    0    0  501  502 -0.00000000000E+00 -0.00000000000E+00 -0.71140197480E+03  0.71140197480E+03  0.00000000000E+00 0.  1.
      99926    2    1    2    0    0  0.00000000000E+00  0.71054273576E-14 -0.63890609649E+03  0.78389785310E+03  0.45419692201E+03 0.  0.
      99925    2    3    3    0    0 -0.82409864531E+02 -0.41693254221E+02 -0.29150562324E+03  0.40328740904E+03  0.26293629017E+03 0.  0.
         25    1    4    4    0    0 -0.81248699655E+02 -0.12289091218E+02 -0.16900760131E+03  0.22575085905E+03  0.12509000000E+03 0.  0.
         25    1    3    3    0    0  0.82409864531E+02  0.41693254221E+02 -0.34740047325E+03  0.38061044407E+03  0.12509000000E+03 0.  0.
         25    1    4    4    0    0 -0.11611648761E+01 -0.29404163003E+02 -0.12249802193E+03  0.17753654999E+03  0.12509000000E+03 0.  0.
<mgrwt>
<rscale>  2 0.45419692E+03</rscale>
<asrwt>0</asrwt>
<pdfrwt beam="1">  1       21 0.10661159E-01 0.45419692E+03</pdfrwt>
<pdfrwt beam="2">  1       21 0.10461793E+00 0.45419692E+03</pdfrwt>
<totfact> 0.48860807E+04</totfact>
</mgrwt>
</event>
<event>
 7    0  0.4831799E-002  0.4564443E+03  0.7546771E-02  0.1025818E+00
         21   -1    0    0  502  501  0.00000000000E+00  0.00000000000E+00  0.50287991670E+03  0.50287991670E+03  0.00000000000E+00 0.  1.
         21   -1    0    0  501  502 -0.00000000000E+00 -0.00000000000E+00 -0.10357412796E+03  0.10357412796E+03  0.00000000000E+00 0.  1.
      99926    2    1    2    0    0  0.00000000000E+00  0.14210854715E-13  0.39930578874E+03  0.60645404467E+03  0.45644429602E+03 0.  0.
      99925    2    3    3    0    0 -0.77988092903E+01  0.97979086688E+02  0.17277953532E+03  0.32964657648E+03  0.26297029244E+03 0.  0.
         25    1    4    4    0    0 -0.28685055691E+01  0.94911023115E+01  0.97199063331E+02  0.15872452665E+03  0.12509000000E+03 0.  0.
         25    1    4    4    0    0 -0.49303037212E+01  0.88487984376E+02  0.75580471989E+02  0.17092204984E+03  0.12509000000E+03 0.  0.
         25    1    3    3    0    0  0.77988092903E+01 -0.97979086688E+02  0.22652625342E+03  0.27680746818E+03  0.12509000000E+03 0.  0.
<mgrwt>
<rscale>  2 0.45644430E+03</rscale>
<asrwt>0</asrwt>
<pdfrwt beam="1">  1       21 0.73952928E-01 0.45644430E+03</pdfrwt>
<pdfrwt beam="2">  1       21 0.15231490E-01 0.45644430E+03</pdfrwt>
<totfact> 0.57622481E+04</totfact>
</mgrwt>
</event>
<event>
 7    0  0.4831799E-002  0.4538722E+03  0.7546771E-02  0.1026574E+00
         21   -1    0    0  502  501  0.00000000000E+00  0.00000000000E+00  0.12518864578E+03  0.12518864578E+03  0.00000000000E+00 0. -1.
         21   -1    0    0  501  502 -0.00000000000E+00 -0.00000000000E+00 -0.41137906791E+03  0.41137906791E+03  0.00000000000E+00 0. -1.
      99926    2    1    2    0    0  0.00000000000E+00  0.00000000000E+00 -0.28619042213E+03  0.53656771369E+03  0.45387217766E+03 0.  0.
      99925    2    3    3    0    0  0.40297726868E+02  0.93201916702E+02 -0.12503405678E+03  0.30868751213E+03  0.26333241488E+03 0.  0.
         25    1    4    4    0    0  0.43616028866E+02  0.18231816759E+02 -0.80866209366E+02  0.15627414704E+03  0.12509000000E+03 0.  0.
         25    1    4    4    0    0 -0.33183019980E+01  0.74970099943E+02 -0.44167847412E+02  0.15241336509E+03  0.12509000000E+03 0.  0.
         25    1    3    3    0    0 -0.40297726868E+02 -0.93201916702E+02 -0.16115636536E+03  0.22788020156E+03  0.12509000000E+03 0.  0.
<mgrwt>
<rscale>  2 0.45387218E+03</rscale>
<asrwt>0</asrwt>
<pdfrwt beam="1">  1       21 0.18410095E-01 0.45387218E+03</pdfrwt>
<pdfrwt beam="2">  1       21 0.60496922E-01 0.45387218E+03</pdfrwt>
<totfact> 0.63326328E+04</totfact>
</mgrwt>
</event>
<event>
 7    0  0.4831799E-002  0.4580804E+03  0.7546771E-02  0.1025339E+00
         21   -1    0    0  502  501  0.00000000000E+00  0.00000000000E+00  0.13800303359E+03  0.13800303359E+03  0.00000000000E+00 0.  1.
         21   -1    0    0  501  502 -0.00000000000E+00 -0.00000000000E+00 -0.38013240124E+03  0.38013240124E+03  0.00000000000E+00 0.  1.
      99926    2    1    2    0    0  0.00000000000E+00  0.14210854715E-13 -0.24212936764E+03  0.51813543483E+03  0.45808044943E+03 0.  0.
      99925    2    3    3    0    0  0.74461815292E+01  0.11094894876E+03 -0.11400744664E+03  0.30735628597E+03  0.26287843918E+03 0.  0.
         25    1    3    3    0    0 -0.74461815292E+01 -0.11094894876E+03 -0.12812192101E+03  0.21077914886E+03  0.12509000000E+03 0.  0.
         25    1    4    4    0    0 -0.20473509107E+02  0.84714718734E+02 -0.42531054726E+02  0.15827869996E+03  0.12509000000E+03 0.  0.
         25    1    4    4    0    0  0.27919690636E+02  0.26234230024E+02 -0.71476391911E+02  0.14907758601E+03  0.12509000000E+03 0.  0.
<mgrwt>
<rscale>  2 0.45808045E+03</rscale>
<asrwt>0</asrwt>
<pdfrwt beam="1">  1       21 0.20294564E-01 0.45808045E+03</pdfrwt>
<pdfrwt beam="2">  1       21 0.55901824E-01 0.45808045E+03</pdfrwt>
<totfact> 0.62473452E+04</totfact>
</mgrwt>
</event>
<event>
 7    0  0.4831799E-002  0.4544557E+03  0.7546771E-02  0.1026402E+00
         21   -1    0    0  502  501  0.00000000000E+00  0.00000000000E+00  0.14692339060E+03  0.14692339060E+03  0.00000000000E+00 0. -1.
         21   -1    0    0  501  502 -0.00000000000E+00 -0.00000000000E+00 -0.35142462659E+03  0.35142462659E+03  0.00000000000E+00 0. -1.
      99926    2    1    2    0    0 -0.26645352591E-14  0.00000000000E+00 -0.20450123599E+03  0.49834801718E+03  0.45445570819E+03 0.  0.
      99925    2    3    3    0    0 -0.54304529285E+01 -0.63592560352E+02 -0.26941023395E+02  0.27196639083E+03  0.26299504834E+03 0.  0.
         25    1    4    4    0    0 -0.20406580438E+02 -0.16870245557E+02 -0.46762345359E+02  0.13614425715E+03  0.12509000000E+03 0.  0.
         25    1    4    4    0    0  0.14976127510E+02 -0.46722314795E+02  0.19821321964E+02  0.13582213369E+03  0.12509000000E+03 0.  0.
         25    1    3    3    0    0  0.54304529285E+01  0.63592560352E+02 -0.17756021260E+03  0.22638162635E+03  0.12509000000E+03 0.  0.
<mgrwt>
<rscale>  2 0.45445571E+03</rscale>
<asrwt>0</asrwt>
<pdfrwt beam="1">  1       21 0.21606381E-01 0.45445571E+03</pdfrwt>
<pdfrwt beam="2">  1       21 0.51680091E-01 0.45445571E+03</pdfrwt>
<totfact> 0.65670156E+04</totfact>
</mgrwt>
</event>
<event>
 7    0  0.4831799E-002  0.4551971E+03  0.7546771E-02  0.1026183E+00
         21   -1    0    0  502  501  0.00000000000E+00  0.00000000000E+00  0.39284727753E+02  0.39284727753E+02  0.00000000000E+00 0.  1.
         21   -1    0    0  501  502 -0.00000000000E+00 -0.00000000000E+00 -0.13186067193E+04  0.13186067193E+04  0.00000000000E+00 0.  1.
      99926    2    1    2    0    0  0.00000000000E+00  0.00000000000E+00 -0.12793219916E+04  0.13578914471E+04  0.45519712645E+03 0.  0.
      99925    2    3    3    0    0 -0.10308954646E+03  0.97360764977E+01 -0.66691569665E+03  0.72432122687E+03  0.26294951508E+03 0.  0.
         25    1    3    3    0    0  0.10308954646E+03 -0.97360764977E+01 -0.61240629491E+03  0.63357022020E+03  0.12509000000E+03 0.  0.
         25    1    4    4    0    0 -0.93949905557E+02  0.14294314301E+02 -0.36893685296E+03  0.40098980254E+03  0.12509000000E+03 0.  0.
         25    1    4    4    0    0 -0.91396408995E+01 -0.45582378031E+01 -0.29797884370E+03  0.32333142433E+03  0.12509000000E+03 0.  0.
<mgrwt>
<rscale>  2 0.45519713E+03</rscale>
<asrwt>0</asrwt>
<pdfrwt beam="1">  1       21 0.57771657E-02 0.45519713E+03</pdfrwt>
<pdfrwt beam="2">  1       21 0.19391276E+00 0.45519713E+03</pdfrwt>
<totfact> 0.27433991E+04</totfact>
</mgrwt>
</event>
<event>
 7    0  0.4831799E-002  0.4635691E+03  0.7546771E-02  0.1023751E+00
         21   -1    0    0  502  501  0.00000000000E+00  0.00000000000E+00  0.44290507671E+03  0.44290507671E+03  0.00000000000E+00 0.  1.
         21   -1    0    0  501  502 -0.00000000000E+00 -0.00000000000E+00 -0.12129930995E+03  0.12129930995E+03  0.00000000000E+00 0.  1.
      99926    2    1    2    0    0  0.00000000000E+00  0.00000000000E+00  0.32160576676E+03  0.56420438667E+03  0.46356911105E+03 0.  0.
      99925    2    3    3    0    0 -0.23232841624E+02  0.11745264476E+03  0.22242115464E+03  0.36465493397E+03  0.26299650595E+03 0.  0.
         25    1    3    3    0    0  0.23232841624E+02 -0.11745264476E+03  0.99184612119E+02  0.19954945270E+03  0.12509000000E+03 0.  0.
         25    1    4    4    0    0  0.25807520778E+02  0.62210877053E+02  0.12929367551E+03  0.19209524715E+03  0.12509000000E+03 0.  0.
         25    1    4    4    0    0 -0.49040362402E+02  0.55241767703E+02  0.93127479135E+02  0.17255968681E+03  0.12509000000E+03 0.  0.
<mgrwt>
<rscale>  2 0.46356911E+03</rscale>
<asrwt>0</asrwt>
<pdfrwt beam="1">  1       21 0.65133099E-01 0.46356911E+03</pdfrwt>
<pdfrwt beam="2">  1       21 0.17838134E-01 0.46356911E+03</pdfrwt>
<totfact> 0.56976620E+04</totfact>
</mgrwt>
</event>
<event>
 7    0  0.4831799E-002  0.4574811E+03  0.7546771E-02  0.1025514E+00
         21   -1    0    0  502  501  0.00000000000E+00  0.00000000000E+00  0.71236427867E+02  0.71236427867E+02  0.00000000000E+00 0.  1.
         21   -1    0    0  501  502 -0.00000000000E+00 -0.00000000000E+00 -0.73448715008E+03  0.73448715008E+03  0.00000000000E+00 0.  1.
      99926    2    1    2    0    0  0.35527136788E-14  0.00000000000E+00 -0.66325072221E+03  0.80572357795E+03  0.45748110731E+03 0.  0.
      99925    2    3    3    0    0  0.14095303492E+02  0.97318667262E+02 -0.30990546681E+03  0.41820586455E+03  0.26303069442E+03 0.  0.
         25    1    4    4    0    0  0.35391186035E+02  0.21237485344E+02 -0.12726974202E+03  0.18316293885E+03  0.12509000000E+03 0.  0.
         25    1    4    4    0    0 -0.21295882543E+02  0.76081181918E+02 -0.18263572479E+03  0.23504292570E+03  0.12509000000E+03 0.  0.
         25    1    3    3    0    0 -0.14095303492E+02 -0.97318667262E+02 -0.35334525540E+03  0.38751771340E+03  0.12509000000E+03 0.  0.
<mgrwt>
<rscale>  2 0.45748111E+03</rscale>
<asrwt>0</asrwt>
<pdfrwt beam="1">  1       21 0.10475946E-01 0.45748111E+03</pdfrwt>
<pdfrwt beam="2">  1       21 0.10801281E+00 0.45748111E+03</pdfrwt>
<totfact> 0.46575721E+04</totfact>
</mgrwt>
</event>
<event>
 7    0  0.4831799E-002  0.4555696E+03  0.7546771E-02  0.1026074E+00
         21   -1    0    0  502  501  0.00000000000E+00  0.00000000000E+00  0.43580673421E+02  0.43580673421E+02  0.00000000000E+00 0.  1.
         21   -1    0    0  501  502 -0.00000000000E+00 -0.00000000000E+00 -0.11905719114E+04  0.11905719114E+04  0.00000000000E+00 0.  1.
      99926    2    1    2    0    0 -0.71054273576E-14  0.35527136788E-14 -0.11469912380E+04  0.12341525849E+04  0.45556964630E+03 0.  0.
      99925    2    3    3    0    0  0.48130444239E+02 -0.18695574515E+02 -0.99556644437E+03  0.10310687588E+04  0.26321887487E+03 0.  0.
         25    1    4    4    0    0  0.72375551931E+01 -0.44850306684E+02 -0.45189398974E+03  0.47108345150E+03  0.12509000000E+03 0.  0.
         25    1    4    4    0    0  0.40892889046E+02  0.26154732170E+02 -0.54367245463E+03  0.55998530732E+03  0.12509000000E+03 0.  0.
         25    1    3    3    0    0 -0.48130444239E+02  0.18695574515E+02 -0.15142479366E+03  0.20308382605E+03  0.12509000000E+03 0.  0.
<mgrwt>
<rscale>  2 0.45556965E+03</rscale>
<asrwt>0</asrwt>
<pdfrwt beam="1">  1       21 0.64089233E-02 0.45556965E+03</pdfrwt>
<pdfrwt beam="2">  1       21 0.17508408E+00 0.45556965E+03</pdfrwt>
<totfact> 0.30951111E+04</totfact>
</mgrwt>
</event>
<event>
 7    0  0.4831799E-002  0.4543168E+03  0.7546771E-02  0.1026442E+00
         21   -1    0    0  502  501  0.00000000000E+00  0.00000000000E+00  0.39582173772E+03  0.39582173772E+03  0.00000000000E+00 0. -1.
         21   -1    0    0  501  502 -0.00000000000E+00 -0.00000000000E+00 -0.13036410789E+03  0.13036410789E+03  0.00000000000E+00 0. -1.
      99926    2    1    2    0    0  0.00000000000E+00  0.71054273576E-14  0.26545762983E+03  0.52618584560E+03  0.45431683975E+03 0.  0.
      99925    2    3    3    0    0 -0.63032640476E+02  0.58225849453E+02  0.25085092566E+03  0.37379087450E+03  0.26349585888E+03 0.  0.
         25    1    4    4    0    0 -0.10339098222E+02  0.64710928694E+02  0.12943515319E+03  0.19156035139E+03  0.12509000000E+03 0.  0.
         25    1    4    4    0    0 -0.52693542254E+02 -0.64850792414E+01  0.12141577247E+03  0.18223052311E+03  0.12509000000E+03 0.  0.
         25    1    3    3    0    0  0.63032640476E+02 -0.58225849453E+02  0.14606704167E+02  0.15239497110E+03  0.12509000000E+03 0.  0.
<mgrwt>
<rscale>  2 0.45431684E+03</rscale>
<asrwt>0</asrwt>
<pdfrwt beam="1">  1       21 0.58209079E-01 0.45431684E+03</pdfrwt>
<pdfrwt beam="2">  1       21 0.19171192E-01 0.45431684E+03</pdfrwt>
<totfact> 0.63810321E+04</totfact>
</mgrwt>
</event>
<event>
 7    0  0.4831799E-002  0.4599942E+03  0.7546771E-02  0.1024783E+00
         21   -1    0    0  502  501  0.00000000000E+00  0.00000000000E+00  0.39142282326E+02  0.39142282326E+02  0.00000000000E+00 0.  1.
         21   -1    0    0  501  502 -0.00000000000E+00 -0.00000000000E+00 -0.13514457839E+04  0.13514457839E+04  0.00000000000E+00 0.  1.
      99926    2    1    2    0    0  0.00000000000E+00  0.35527136788E-14 -0.13123035016E+04  0.13905880662E+04  0.45999422788E+03 0.  0.
      99925    2    3    3    0    0 -0.12916021188E+02  0.28767514506E+02 -0.11652488935E+04  0.11949686415E+04  0.26296516257E+03 0.  0.
         25    1    4    4    0    0  0.14284061682E+02  0.46805319223E+02 -0.53569928786E+03  0.55228254313E+03  0.12509000000E+03 0.  0.
         25    1    3    3    0    0  0.12916021188E+02 -0.28767514506E+02 -0.14705460803E+03  0.19561942475E+03  0.12509000000E+03 0.  0.
         25    1    4    4    0    0 -0.27200082870E+02 -0.18037804716E+02 -0.62954960568E+03  0.64268609835E+03  0.12509000000E+03 0.  0.
<mgrwt>
<rscale>  2 0.45999423E+03</rscale>
<asrwt>0</asrwt>
<pdfrwt beam="1">  1       21 0.57562175E-02 0.45999423E+03</pdfrwt>
<pdfrwt beam="2">  1       21 0.19874204E+00 0.45999423E+03</pdfrwt>
<totfact> 0.25576694E+04</totfact>
</mgrwt>
</event>
<event>
 7    0  0.4831799E-002  0.4581937E+03  0.7546771E-02  0.1025306E+00
         21   -1    0    0  502  501  0.00000000000E+00  0.00000000000E+00  0.14477043765E+03  0.14477043765E+03  0.00000000000E+00 0.  1.
         21   -1    0    0  501  502 -0.00000000000E+00 -0.00000000000E+00 -0.36254203702E+03  0.36254203702E+03  0.00000000000E+00 0.  1.
      99926    2    1    2    0    0  0.00000000000E+00 -0.88817841970E-15 -0.21777159937E+03  0.50731247466E+03  0.45819371172E+03 0.  0.
      99925    2    3    3    0    0 -0.83320855140E+02  0.26488556630E+01 -0.22615188133E+03  0.35675644336E+03  0.26302301251E+03 0.  0.
         25    1    4    4    0    0 -0.18664223671E+02  0.98665632741E+01 -0.15019932804E+03  0.19660378572E+03  0.12509000000E+03 0.  0.
         25    1    3    3    0    0  0.83320855140E+02 -0.26488556630E+01  0.83802819591E+01  0.15055603131E+03  0.12509000000E+03 0.  0.
         25    1    4    4    0    0 -0.64656631470E+02 -0.72177076111E+01 -0.75952553286E+02  0.16015265763E+03  0.12509000000E+03 0.  0.
<mgrwt>
<rscale>  2 0.45819371E+03</rscale>
<asrwt>0</asrwt>
<pdfrwt beam="1">  1       21 0.21289770E-01 0.45819371E+03</pdfrwt>
<pdfrwt beam="2">  1       21 0.53315005E-01 0.45819371E+03</pdfrwt>
<totfact> 0.63144040E+04</totfact>
</mgrwt>
</event>
<event>
 7    0  0.4831799E-002  0.4631058E+03  0.7546771E-02  0.1023884E+00
         21   -1    0    0  502  501  0.00000000000E+00  0.00000000000E+00  0.15521069460E+03  0.15521069460E+03  0.00000000000E+00 0. -1.
         21   -1    0    0  501  502 -0.00000000000E+00 -0.00000000000E+00 -0.34544498310E+03  0.34544498310E+03  0.00000000000E+00 0. -1.
      99926    2    1    2    0    0  0.00000000000E+00  0.00000000000E+00 -0.19023428850E+03  0.50065567771E+03  0.46310584438E+03 0.  0.
      99925    2    3    3    0    0  0.98055406109E+02  0.60748998072E+01 -0.43126395966E+02  0.28399925103E+03  0.26295231789E+03 0.  0.
         25    1    4    4    0    0  0.85528135122E+02  0.10996816433E+02 -0.30667662038E+01  0.15196349899E+03  0.12509000000E+03 0.  0.
         25    1    4    4    0    0  0.12527270987E+02 -0.49219166255E+01 -0.40059629762E+02  0.13203575205E+03  0.12509000000E+03 0.  0.
         25    1    3    3    0    0 -0.98055406109E+02 -0.60748998072E+01 -0.14710789253E+03  0.21665642668E+03  0.12509000000E+03 0.  0.
<mgrwt>
<rscale>  2 0.46310584E+03</rscale>
<asrwt>0</asrwt>
<pdfrwt beam="1">  1       21 0.22825103E-01 0.46310584E+03</pdfrwt>
<pdfrwt beam="2">  1       21 0.50800732E-01 0.46310584E+03</pdfrwt>
<totfact> 0.61191295E+04</totfact>
</mgrwt>
</event>
<event>
 7    0  0.4831799E-002  0.4680192E+03  0.7546771E-02  0.1022481E+00
         21   -1    0    0  502  501  0.00000000000E+00  0.00000000000E+00  0.29460388872E+03  0.29460388872E+03  0.00000000000E+00 0.  1.
         21   -1    0    0  501  502 -0.00000000000E+00 -0.00000000000E+00 -0.18587841312E+03  0.18587841312E+03  0.00000000000E+00 0.  1.
      99926    2    1    2    0    0 -0.71054273576E-14 -0.14210854715E-13  0.10872547560E+03  0.48048230184E+03  0.46801924462E+03 0.  0.
      99925    2    3    3    0    0 -0.55786919618E+02 -0.96845578645E+02  0.12478141893E+03  0.31196954885E+03  0.26317931225E+03 0.  0.
         25    1    3    3    0    0  0.55786919618E+02  0.96845578645E+02 -0.16055943335E+02  0.16851275299E+03  0.12509000000E+03 0.  0.
         25    1    4    4    0    0 -0.60354850800E+02 -0.23861566793E+02  0.65788676256E+02  0.15552408305E+03  0.12509000000E+03 0.  0.
         25    1    4    4    0    0  0.45679311817E+01 -0.72984011852E+02  0.58992742676E+02  0.15644546580E+03  0.12509000000E+03 0.  0.
<mgrwt>
<rscale>  2 0.46801924E+03</rscale>
<asrwt>0</asrwt>
<pdfrwt beam="1">  1       21 0.43324102E-01 0.46801924E+03</pdfrwt>
<pdfrwt beam="2">  1       21 0.27335061E-01 0.46801924E+03</pdfrwt>
<totfact> 0.60200954E+04</totfact>
</mgrwt>
</event>
<event>
 7    0  0.4831799E-002  0.4533672E+03  0.7546771E-02  0.1026723E+00
         21   -1    0    0  502  501  0.00000000000E+00  0.00000000000E+00  0.96723446546E+02  0.96723446546E+02  0.00000000000E+00 0. -1.
         21   -1    0    0  501  502 -0.00000000000E+00 -0.00000000000E+00 -0.53126172684E+03  0.53126172684E+03  0.00000000000E+00 0. -1.
      99926    2    1    2    0    0  0.00000000000E+00  0.00000000000E+00 -0.43453828030E+03  0.62798517339E+03  0.45336724733E+03 0.  0.
      99925    2    3    3    0    0  0.52514481145E+02 -0.40989817024E+02 -0.39796016607E+03  0.48161781921E+03  0.26295530831E+03 0.  0.
         25    1    4    4    0    0  0.60913535849E+02 -0.34669121686E+00 -0.19240843785E+03  0.23744282280E+03  0.12509000000E+03 0.  0.
         25    1    3    3    0    0 -0.52514481145E+02  0.40989817024E+02 -0.36578114227E+02  0.14636735418E+03  0.12509000000E+03 0.  0.
         25    1    4    4    0    0 -0.83990547042E+01 -0.40643125807E+02 -0.20555172822E+03  0.24417499640E+03  0.12509000000E+03 0.  0.
<mgrwt>
<rscale>  2 0.45336725E+03</rscale>
<asrwt>0</asrwt>
<pdfrwt beam="1">  1       21 0.14224036E-01 0.45336725E+03</pdfrwt>
<pdfrwt beam="2">  1       21 0.78126726E-01 0.45336725E+03</pdfrwt>
<totfact> 0.57728453E+04</totfact>
</mgrwt>
</event>
<event>
 7    0  0.4831799E-002  0.4399606E+03  0.7546771E-02  0.1030759E+00
         21   -1    0    0  502  501  0.00000000000E+00  0.00000000000E+00  0.29804067578E+02  0.29804067578E+02  0.00000000000E+00 0. -1.
         21   -1    0    0  501  502 -0.00000000000E+00 -0.00000000000E+00 -0.16236487622E+04  0.16236487622E+04  0.00000000000E+00 0. -1.
      99926    2    1    2    0    0  0.00000000000E+00  0.00000000000E+00 -0.15938446946E+04  0.16534528297E+04  0.43996062293E+03 0.  0.
      99925    2    3    3    0    0 -0.67925003690E+02 -0.70077368904E+02 -0.10480877411E+04  0.10851018782E+04  0.26350242738E+03 0.  0.
         25    1    4    4    0    0 -0.13441039902E+02 -0.21780052008E+02 -0.62598872868E+03  0.63887747554E+03  0.12509000000E+03 0.  0.
         25    1    4    4    0    0 -0.54483963788E+02 -0.48297316895E+02 -0.42209901245E+03  0.44622440267E+03  0.12509000000E+03 0.  0.
         25    1    3    3    0    0  0.67925003690E+02  0.70077368904E+02 -0.54575695346E+03  0.56835095153E+03  0.12509000000E+03 0.  0.
<mgrwt>
<rscale>  2 0.43996062E+03</rscale>
<asrwt>0</asrwt>
<pdfrwt beam="1">  1       21 0.43829502E-02 0.43996062E+03</pdfrwt>
<pdfrwt beam="2">  1       21 0.23877193E+00 0.43996062E+03</pdfrwt>
<totfact> 0.22796507E+04</totfact>
</mgrwt>
</event>
<event>
 7    0  0.4831799E-002  0.4437613E+03  0.7546771E-02  0.1029599E+00
         21   -1    0    0  502  501  0.00000000000E+00  0.00000000000E+00  0.40949382580E+03  0.40949382580E+03  0.00000000000E+00 0.  1.
         21   -1    0    0  501  502 -0.00000000000E+00 -0.00000000000E+00 -0.12022411649E+03  0.12022411649E+03  0.00000000000E+00 0.  1.
      99926    2    1    2    0    0 -0.88817841970E-15  0.00000000000E+00  0.28926970930E+03  0.52971794229E+03  0.44376134765E+03 0.  0.
      99925    2    3    3    0    0 -0.56215025714E+01  0.94047958365E+02  0.23123021054E+03  0.36270683104E+03  0.26308214545E+03 0.  0.
         25    1    3    3    0    0  0.56215025714E+01 -0.94047958365E+02  0.58039498760E+02  0.16701111125E+03  0.12509000000E+03 0.  0.
         25    1    4    4    0    0  0.29417246530E+01  0.53181205238E+02  0.65504677569E+02  0.15091476143E+03  0.12509000000E+03 0.  0.
         25    1    4    4    0    0 -0.85632272244E+01  0.40866753126E+02  0.16572553297E+03  0.21179206961E+03  0.12509000000E+03 0.  0.
<mgrwt>
<rscale>  2 0.44376135E+03</rscale>
<asrwt>0</asrwt>
<pdfrwt beam="1">  1       21 0.60219680E-01 0.44376135E+03</pdfrwt>
<pdfrwt beam="2">  1       21 0.17680017E-01 0.44376135E+03</pdfrwt>
<totfact> 0.69179041E+04</totfact>
</mgrwt>
</event>
<event>
 7    0  0.4831799E-002  0.4562355E+03  0.7546771E-02  0.1025879E+00
         21   -1    0    0  502  501  0.00000000000E+00  0.00000000000E+00  0.65641995549E+03  0.65641995549E+03  0.00000000000E+00 0.  1.
         21   -1    0    0  501  502 -0.00000000000E+00 -0.00000000000E+00 -0.79275028870E+02  0.79275028870E+02  0.00000000000E+00 0.  1.
      99926    2    1    2    0    0  0.00000000000E+00  0.17763568394E-14  0.57714492662E+03  0.73569498436E+03  0.45623551340E+03 0.  0.
      99925    2    3    3    0    0 -0.11311900415E+03  0.51434051432E+01  0.33679596878E+03  0.44203277475E+03  0.26294312247E+03 0.  0.
         25    1    3    3    0    0  0.11311900415E+03 -0.51434051432E+01  0.24034895785E+03  0.29366220961E+03  0.12509000000E+03 0.  0.
         25    1    4    4    0    0 -0.51526717533E+02  0.36658445498E+02  0.19960227810E+03  0.24390043413E+03  0.12509000000E+03 0.  0.
         25    1    4    4    0    0 -0.61592286614E+02 -0.31515040355E+02  0.13719369068E+03  0.19813234062E+03  0.12509000000E+03 0.  0.
<mgrwt>
<rscale>  2 0.45623551E+03</rscale>
<asrwt>0</asrwt>
<pdfrwt beam="1">  1       21 0.96532343E-01 0.45623551E+03</pdfrwt>
<pdfrwt beam="2">  1       21 0.11658093E-01 0.45623551E+03</pdfrwt>
<totfact> 0.50514951E+04</totfact>
</mgrwt>
</event>
<event>
 7    0  0.4831799E-002  0.4514040E+03  0.7546771E-02  0.1027304E+00
         21   -1    0    0  502  501  0.00000000000E+00  0.00000000000E+00  0.36877848588E+03  0.36877848588E+03  0.00000000000E+00 0. -1.
         21   -1    0    0  501  502 -0.00000000000E+00 -0.00000000000E+00 -0.13813547512E+03  0.13813547512E+03  0.00000000000E+00 0. -1.
      99926    2    1    2    0    0 -0.14210854715E-13  0.00000000000E+00  0.23064301076E+03  0.50691396100E+03  0.45140399361E+03 0.  0.
      99925    2    3    3    0    0  0.67733701029E+02  0.77398330530E+02  0.10246577027E+03  0.30038244064E+03  0.26296771806E+03 0.  0.
         25    1    3    3    0    0 -0.67733701029E+02 -0.77398330530E+02  0.12817724049E+03  0.20653152036E+03  0.12509000000E+03 0.  0.
         25    1    4    4    0    0  0.24638249250E+02  0.24038510701E+02  0.88479008891E+02  0.15703800953E+03  0.12509000000E+03 0.  0.
         25    1    4    4    0    0  0.43095451779E+02  0.53359819829E+02  0.13986761375E+02  0.14334443111E+03  0.12509000000E+03 0.  0.
<mgrwt>
<rscale>  2 0.45140399E+03</rscale>
<asrwt>0</asrwt>
<pdfrwt beam="1">  1       21 0.54232130E-01 0.45140399E+03</pdfrwt>
<pdfrwt beam="2">  1       21 0.20314040E-01 0.45140399E+03</pdfrwt>
<totfact> 0.66670139E+04</totfact>
</mgrwt>
</event>
<event>
 7    0  0.4831799E-002  0.4235835E+03  0.7546771E-02  0.1035906E+00
         21   -1    0    0  502  501  0.00000000000E+00  0.00000000000E+00  0.49363145385E+02  0.49363145385E+02  0.00000000000E+00 0.  1.
         21   -1    0    0  501  502 -0.00000000000E+00 -0.00000000000E+00 -0.90868894196E+03  0.90868894196E+03  0.00000000000E+00 0.  1.
      99926    2    1    2    0    0  0.00000000000E+00 -0.35527136788E-14 -0.85932579657E+03  0.95805208734E+03  0.42358349520E+03 0.  0.
      99925    2    3    3    0    0  0.68626922798E+02 -0.27042121222E+02 -0.62760810404E+03  0.68458997299E+03  0.26330698435E+03 0.  0.
         25    1    3    3    0    0 -0.68626922798E+02  0.27042121222E+02 -0.23171769253E+03  0.27346211435E+03  0.12509000000E+03 0.  0.
         25    1    4    4    0    0  0.29481433137E+02  0.96337348119E+01 -0.39021813200E+03  0.41094970786E+03  0.12509000000E+03 0.  0.
         25    1    4    4    0    0  0.39145489661E+02 -0.36675856034E+02 -0.23738997204E+03  0.27364026513E+03  0.12509000000E+03 0.  0.
<mgrwt>
<rscale>  2 0.42358350E+03</rscale>
<asrwt>0</asrwt>
<pdfrwt beam="1">  1       21 0.72592864E-02 0.42358350E+03</pdfrwt>
<pdfrwt beam="2">  1       21 0.13363072E+00 0.42358350E+03</pdfrwt>
<totfact> 0.52596004E+04</totfact>
</mgrwt>
</event>
<event>
 7    0  0.4831799E-002  0.4536241E+03  0.7546771E-02  0.1026647E+00
         21   -1    0    0  502  501  0.00000000000E+00  0.00000000000E+00  0.84680201348E+02  0.84680201348E+02  0.00000000000E+00 0. -1.
         21   -1    0    0  501  502 -0.00000000000E+00 -0.00000000000E+00 -0.60750577343E+03  0.60750577343E+03  0.00000000000E+00 0. -1.
      99926    2    1    2    0    0  0.35527136788E-14  0.00000000000E+00 -0.52282557208E+03  0.69218597478E+03  0.45362412288E+03 0.  0.
      99925    2    3    3    0    0 -0.45628676974E+01  0.10929325851E+03 -0.36474376158E+03  0.46283209313E+03  0.26307736257E+03 0.  0.
         25    1    4    4    0    0 -0.39619137601E+02  0.72330060889E+02 -0.19443737401E+03  0.24546835699E+03  0.12509000000E+03 0.  0.
         25    1    4    4    0    0  0.35056269904E+02  0.36963197624E+02 -0.17030638758E+03  0.21736373614E+03  0.12509000000E+03 0.  0.
         25    1    3    3    0    0  0.45628676974E+01 -0.10929325851E+03 -0.15808181050E+03  0.22935388165E+03  0.12509000000E+03 0.  0.
<mgrwt>
<rscale>  2 0.45362412E+03</rscale>
<asrwt>0</asrwt>
<pdfrwt beam="1">  1       21 0.12452970E-01 0.45362412E+03</pdfrwt>
<pdfrwt beam="2">  1       21 0.89339087E-01 0.45362412E+03</pdfrwt>
<totfact> 0.53910824E+04</totfact>
</mgrwt>
</event>
<event>
 7    0  0.4831799E-002  0.4563708E+03  0.7546771E-02  0.1025839E+00
         21   -1    0    0  502  501  0.00000000000E+00  0.00000000000E+00  0.20441955962E+03  0.20441955962E+03  0.00000000000E+00 0. -1.
         21   -1    0    0  501  502 -0.00000000000E+00 -0.00000000000E+00 -0.25471421386E+03  0.25471421386E+03  0.00000000000E+00 0. -1.
      99926    2    1    2    0    0  0.71054273576E-14 -0.17763568394E-14 -0.50294654239E+02  0.45913377347E+03  0.45637075903E+03 0.  0.
      99925    2    3    3    0    0 -0.32512609948E+02  0.12919903190E+02  0.77953273232E+02  0.27659875572E+03  0.26307064670E+03 0.  0.
         25    1    3    3    0    0  0.32512609948E+02 -0.12919903190E+02 -0.12824792747E+03  0.18253501775E+03  0.12509000000E+03 0.  0.
         25    1    4    4    0    0  0.24606394304E+02  0.32107655708E+01  0.36812516276E+02  0.13273452117E+03  0.12509000000E+03 0.  0.
         25    1    4    4    0    0 -0.57119004252E+02  0.97091376188E+01  0.41140756956E+02  0.14386423455E+03  0.12509000000E+03 0.  0.
<mgrwt>
<rscale>  2 0.45637076E+03</rscale>
<asrwt>0</asrwt>
<pdfrwt beam="1">  1       21 0.30061700E-01 0.45637076E+03</pdfrwt>
<pdfrwt beam="2">  1       21 0.37457972E-01 0.45637076E+03</pdfrwt>
<totfact> 0.67502682E+04</totfact>
</mgrwt>
</event>
<event>
 7    0  0.4831799E-002  0.4554795E+03  0.7546771E-02  0.1026100E+00
         21   -1    0    0  502  501  0.00000000000E+00  0.00000000000E+00  0.21452272491E+03  0.21452272491E+03  0.00000000000E+00 0. -1.
         21   -1    0    0  501  502 -0.00000000000E+00 -0.00000000000E+00 -0.24177111239E+03  0.24177111239E+03  0.00000000000E+00 0. -1.
      99926    2    1    2    0    0  0.00000000000E+00  0.14210854715E-13 -0.27248387484E+02  0.45629383730E+03  0.45547951802E+03 0.  0.
      99925    2    3    3    0    0 -0.17218772679E+02 -0.11196379524E+03 -0.94441551106E+01  0.28659741315E+03  0.26309030309E+03 0.  0.
         25    1    4    4    0    0  0.68906550984E+01 -0.87368089433E+02 -0.28768562994E+02  0.15542137078E+03  0.12509000000E+03 0.  0.
         25    1    4    4    0    0 -0.24109427778E+02 -0.24595705808E+02  0.19324407884E+02  0.13117604237E+03  0.12509000000E+03 0.  0.
         25    1    3    3    0    0  0.17218772679E+02  0.11196379524E+03 -0.17804232373E+02  0.16969642415E+03  0.12509000000E+03 0.  0.
<mgrwt>
<rscale>  2 0.45547952E+03</rscale>
<asrwt>0</asrwt>
<pdfrwt beam="1">  1       21 0.31547459E-01 0.45547952E+03</pdfrwt>
<pdfrwt beam="2">  1       21 0.35554576E-01 0.45547952E+03</pdfrwt>
<totfact> 0.68189878E+04</totfact>
</mgrwt>
</event>
<event>
 7    0  0.4831799E-002  0.4559927E+03  0.7546771E-02  0.1025950E+00
         21   -1    0    0  502  501  0.00000000000E+00  0.00000000000E+00  0.91930799118E+03  0.91930799118E+03  0.00000000000E+00 0.  1.
         21   -1    0    0  501  502 -0.00000000000E+00 -0.00000000000E+00 -0.56545066024E+02  0.56545066024E+02  0.00000000000E+00 0.  1.
      99926    2    1    2    0    0  0.00000000000E+00 -0.71054273576E-14  0.86276292515E+03  0.97585305720E+03  0.45599268002E+03 0.  0.
      99925    2    3    3    0    0  0.98890236205E+02 -0.47466546592E+02  0.47574198750E+03  0.55458702944E+03  0.26306649861E+03 0.  0.
         25    1    4    4    0    0  0.60205958127E+02 -0.13442523540E+02  0.31497369092E+03  0.34447263012E+03  0.12509000000E+03 0.  0.
         25    1    4    4    0    0  0.38684278077E+02 -0.34024023052E+02  0.16076829658E+03  0.21011439932E+03  0.12509000000E+03 0.  0.
         25    1    3    3    0    0 -0.98890236205E+02  0.47466546592E+02  0.38702093766E+03  0.42126602776E+03  0.12509000000E+03 0.  0.
<mgrwt>
<rscale>  2 0.45599268E+03</rscale>
<asrwt>0</asrwt>
<pdfrwt beam="1">  1       21 0.13519234E+00 0.45599268E+03</pdfrwt>
<pdfrwt beam="2">  1       21 0.83154515E-02 0.45599268E+03</pdfrwt>
<totfact> 0.39801483E+04</totfact>
</mgrwt>
</event>
<event>
 7    0  0.4831799E-002  0.4518121E+03  0.7546771E-02  0.1027183E+00
         21   -1    0    0  502  501  0.00000000000E+00  0.00000000000E+00  0.50853441700E+02  0.50853441700E+02  0.00000000000E+00 0.  1.
         21   -1    0    0  501  502 -0.00000000000E+00 -0.00000000000E+00 -0.10035417113E+04  0.10035417113E+04  0.00000000000E+00 0.  1.
      99926    2    1    2    0    0  0.00000000000E+00 -0.35527136788E-14 -0.95268826962E+03  0.10543951530E+04  0.45181212870E+03 0.  0.
      99925    2    3    3    0    0  0.90069570484E+02  0.16269913450E+02 -0.74432156278E+03  0.79470027392E+03  0.26297661292E+03 0.  0.
         25    1    4    4    0    0  0.30273257766E+02 -0.21609742538E+02 -0.28593228289E+03  0.31430594905E+03  0.12509000000E+03 0.  0.
         25    1    4    4    0    0  0.59796312718E+02  0.37879655988E+02 -0.45838927989E+03  0.48039432487E+03  0.12509000000E+03 0.  0.
         25    1    3    3    0    0 -0.90069570484E+02 -0.16269913450E+02 -0.20836670684E+03  0.25969487910E+03  0.12509000000E+03 0.  0.
<mgrwt>
<rscale>  2 0.45181213E+03</rscale>
<asrwt>0</asrwt>
<pdfrwt beam="1">  1       21 0.74784470E-02 0.45181213E+03</pdfrwt>
<pdfrwt beam="2">  1       21 0.14757967E+00 0.45181213E+03</pdfrwt>
<totfact> 0.38054575E+04</totfact>
</mgrwt>
</event>
<event>
 7    0  0.4831799E-002  0.4516090E+03  0.7546771E-02  0.1027243E+00
         21   -1    0    0  502  501  0.00000000000E+00  0.00000000000E+00  0.23800834865E+03  0.23800834865E+03  0.00000000000E+00 0.  1.
         21   -1    0    0  501  502 -0.00000000000E+00 -0.00000000000E+00 -0.21422639854E+03  0.21422639854E+03  0.00000000000E+00 0.  1.
      99926    2    1    2    0    0  0.00000000000E+00 -0.35527136788E-14  0.23781950112E+02  0.45223474718E+03  0.45160899616E+03 0.  0.
      99925    2    3    3    0    0  0.10402897946E+03  0.26085749129E+02  0.39501227378E+02  0.28671405768E+03  0.26294887151E+03 0.  0.
         25    1    4    4    0    0  0.61383076708E+02 -0.16115282415E+02 -0.68686091039E+01  0.14043600081E+03  0.12509000000E+03 0.  0.
         25    1    3    3    0    0 -0.10402897946E+03 -0.26085749129E+02 -0.15719277266E+02  0.16552068950E+03  0.12509000000E+03 0.  0.
         25    1    4    4    0    0  0.42645902756E+02  0.42201031544E+02  0.46369836482E+02  0.14627805687E+03  0.12509000000E+03 0.  0.
<mgrwt>
<rscale>  2 0.45160900E+03</rscale>
<asrwt>0</asrwt>
<pdfrwt beam="1">  1       21 0.35001228E-01 0.45160900E+03</pdfrwt>
<pdfrwt beam="2">  1       21 0.31503882E-01 0.45160900E+03</pdfrwt>
<totfact> 0.70640900E+04</totfact>
</mgrwt>
</event>
<event>
 7    0  0.4831799E-002  0.4553650E+03  0.7546771E-02  0.1026134E+00
         21   -1    0    0  502  501  0.00000000000E+00  0.00000000000E+00  0.13244575825E+03  0.13244575825E+03  0.00000000000E+00 0. -1.
         21   -1    0    0  501  502 -0.00000000000E+00 -0.00000000000E+00 -0.39140040334E+03  0.39140040334E+03  0.00000000000E+00 0. -1.
      99926    2    1    2    0    0  0.00000000000E+00 -0.17763568394E-14 -0.25895464509E+03  0.52384616158E+03  0.45536501050E+03 0.  0.
      99925    2    3    3    0    0  0.71576790799E+02  0.14007256001E+02 -0.26292297321E+03  0.37899211114E+03  0.26303438988E+03 0.  0.
         25    1    4    4    0    0  0.29756871960E+02  0.46496330886E+02 -0.14203724775E+03  0.19715341251E+03  0.12509000000E+03 0.  0.
         25    1    4    4    0    0  0.41819918839E+02 -0.32489074885E+02 -0.12088572547E+03  0.18183869863E+03  0.12509000000E+03 0.  0.
         25    1    3    3    0    0 -0.71576790799E+02 -0.14007256001E+02  0.39683281236E+01  0.14485405044E+03  0.12509000000E+03 0.  0.
<mgrwt>
<rscale>  2 0.45536501E+03</rscale>
<asrwt>0</asrwt>
<pdfrwt beam="1">  1       21 0.19477318E-01 0.45536501E+03</pdfrwt>
<pdfrwt beam="2">  1       21 0.57558882E-01 0.45536501E+03</pdfrwt>
<totfact> 0.63441218E+04</totfact>
</mgrwt>
</event>
<event>
 7    0  0.4831799E-002  0.4515240E+03  0.7546771E-02  0.1027269E+00
         21   -1    0    0  502  501  0.00000000000E+00  0.00000000000E+00  0.25772714294E+04  0.25772714294E+04  0.00000000000E+00 0. -1.
         21   -1    0    0  501  502 -0.00000000000E+00 -0.00000000000E+00 -0.19776138018E+02  0.19776138018E+02  0.00000000000E+00 0. -1.
      99926    2    1    2    0    0  0.88817841970E-15  0.88817841970E-15  0.25574952914E+04  0.25970475674E+04  0.45152397720E+03 0.  0.
      99925    2    3    3    0    0  0.39165832246E+01  0.78430327089E+01  0.22442604298E+04  0.22596450787E+04  0.26308582654E+03 0.  0.
         25    1    3    3    0    0 -0.39165832246E+01 -0.78430327089E+01  0.31323486162E+03  0.33740248876E+03  0.12509000000E+03 0.  0.
         25    1    4    4    0    0  0.22892825599E+02 -0.28981854794E+02  0.10164696409E+04  0.10248034291E+04  0.12509000000E+03 0.  0.
         25    1    4    4    0    0 -0.18976242374E+02  0.36824887503E+02  0.12277907889E+04  0.12348416495E+04  0.12509000000E+03 0.  0.
<mgrwt>
<rscale>  2 0.45152398E+03</rscale>
<asrwt>0</asrwt>
<pdfrwt beam="1">  1       21 0.37901027E+00 0.45152398E+03</pdfrwt>
<pdfrwt beam="2">  1       21 0.29082574E-02 0.45152398E+03</pdfrwt>
<totfact> 0.63591850E+03</totfact>
</mgrwt>
</event>
<event>
 7    0  0.4831799E-002  0.4586439E+03  0.7546771E-02  0.1025175E+00
         21   -1    0    0  502  501  0.00000000000E+00  0.00000000000E+00  0.46378750805E+03  0.46378750805E+03  0.00000000000E+00 0.  1.
         21   -1    0    0  501  502 -0.00000000000E+00 -0.00000000000E+00 -0.11338933579E+03  0.11338933579E+03  0.00000000000E+00 0.  1.
      99926    2    1    2    0    0  0.00000000000E+00  0.00000000000E+00  0.35039817225E+03  0.57717684384E+03  0.45864390320E+03 0.  0.
      99925    2    3    3    0    0  0.68729292911E+02  0.11332368788E+02  0.10205264545E+03  0.29051476565E+03  0.26292955013E+03 0.  0.
         25    1    3    3    0    0 -0.68729292911E+02 -0.11332368788E+02  0.24834552681E+03  0.28666207819E+03  0.12509000000E+03 0.  0.
         25    1    4    4    0    0  0.36431921824E+02  0.27383844628E+00  0.93890335326E+02  0.16059347148E+03  0.12509000000E+03 0.  0.
         25    1    4    4    0    0  0.32297371087E+02  0.11058530341E+02  0.81623101224E+01  0.12992129417E+03  0.12509000000E+03 0.  0.
<mgrwt>
<rscale>  2 0.45864390E+03</rscale>
<asrwt>0</asrwt>
<pdfrwt beam="1">  1       21 0.68204045E-01 0.45864390E+03</pdfrwt>
<pdfrwt beam="2">  1       21 0.16674902E-01 0.45864390E+03</pdfrwt>
<totfact> 0.58404631E+04</totfact>
</mgrwt>
</event>
<event>
 7    0  0.4831799E-002  0.4621834E+03  0.7546771E-02  0.1024150E+00
         21   -1    0    0  502  501  0.00000000000E+00  0.00000000000E+00  0.12230732505E+03  0.12230732505E+03  0.00000000000E+00 0.  1.
         21   -1    0    0  501  502 -0.00000000000E+00 -0.00000000000E+00 -0.43663272257E+03  0.43663272257E+03  0.00000000000E+00 0.  1.
      99926    2    1    2    0    0  0.71054273576E-14  0.00000000000E+00 -0.31432539753E+03  0.55894004762E+03  0.46218342820E+03 0.  0.
      99925    2    3    3    0    0  0.46225580167E+02  0.11037177932E+03 -0.20355344126E+03  0.35342443184E+03  0.26297545825E+03 0.  0.
         25    1    3    3    0    0 -0.46225580167E+02 -0.11037177932E+03 -0.11077195627E+03  0.20551561578E+03  0.12509000000E+03 0.  0.
         25    1    4    4    0    0  0.55652924986E+02  0.48101040449E+02 -0.13192982083E+03  0.19612226767E+03  0.12509000000E+03 0.  0.
         25    1    4    4    0    0 -0.94273448189E+01  0.62270738872E+02 -0.71623620424E+02  0.15730216417E+03  0.12509000000E+03 0.  0.
<mgrwt>
<rscale>  2 0.46218343E+03</rscale>
<asrwt>0</asrwt>
<pdfrwt beam="1">  1       21 0.17986371E-01 0.46218343E+03</pdfrwt>
<pdfrwt beam="2">  1       21 0.64210694E-01 0.46218343E+03</pdfrwt>
<totfact> 0.57917712E+04</totfact>
</mgrwt>
</event>
<event>
 7    0  0.4831799E-002  0.4516059E+03  0.7546771E-02  0.1027244E+00
         21   -1    0    0  502  501  0.00000000000E+00  0.00000000000E+00  0.17437642729E+03  0.17437642729E+03  0.00000000000E+00 0. -1.
         21   -1    0    0  501  502 -0.00000000000E+00 -0.00000000000E+00 -0.29239596924E+03  0.29239596924E+03  0.00000000000E+00 0. -1.
      99926    2    1    2    0    0  0.00000000000E+00  0.00000000000E+00 -0.11801954195E+03  0.46677239653E+03  0.45160586564E+03 0.  0.
      99925    2    3    3    0    0 -0.74619949983E+02  0.41343710113E+02 -0.14619666653E+03  0.31276298854E+03  0.26300148743E+03 0.  0.
         25    1    3    3    0    0  0.74619949983E+02 -0.41343710113E+02  0.28177124589E+02  0.15400940800E+03  0.12509000000E+03 0.  0.
         25    1    4    4    0    0 -0.30859931185E+02  0.12264077816E+02 -0.11592763687E+03  0.17375116704E+03  0.12509000000E+03 0.  0.
         25    1    4    4    0    0 -0.43760018797E+02  0.29079632297E+02 -0.30269029668E+02  0.13901182150E+03  0.12509000000E+03 0.  0.
<mgrwt>
<rscale>  2 0.45160587E+03</rscale>
<asrwt>0</asrwt>
<pdfrwt beam="1">  1       21 0.25643593E-01 0.45160587E+03</pdfrwt>
<pdfrwt beam="2">  1       21 0.42999407E-01 0.45160587E+03</pdfrwt>
<totfact> 0.69529856E+04</totfact>
</mgrwt>
</event>
<event>
 7    0  0.4831799E-002  0.4390825E+03  0.7546771E-02  0.1031029E+00
         21   -1    0    0  502  501  0.00000000000E+00  0.00000000000E+00  0.50835598749E+03  0.50835598749E+03  0.00000000000E+00 0. -1.
         21   -1    0    0  501  502 -0.00000000000E+00 -0.00000000000E+00 -0.94812215035E+02  0.94812215035E+02  0.00000000000E+00 0. -1.
      99926    2    1    2    0    0  0.14210854715E-13 -0.71054273576E-14  0.41354377245E+03  0.60316820252E+03  0.43908248519E+03 0.  0.
      99925    2    3    3    0    0  0.80759684440E+02 -0.47365844724E+02  0.22684836270E+03  0.35971731631E+03  0.26300326636E+03 0.  0.
         25    1    4    4    0    0  0.65606402465E+02 -0.53197594877E+01  0.82998432014E+02  0.16391689267E+03  0.12509000000E+03 0.  0.
         25    1    4    4    0    0  0.15153281975E+02 -0.42046085236E+02  0.14384993069E+03  0.19580042364E+03  0.12509000000E+03 0.  0.
         25    1    3    3    0    0 -0.80759684440E+02  0.47365844724E+02  0.18669540975E+03  0.24345088622E+03  0.12509000000E+03 0.  0.
<mgrwt>
<rscale>  2 0.43908249E+03</rscale>
<asrwt>0</asrwt>
<pdfrwt beam="1">  1       21 0.74758232E-01 0.43908249E+03</pdfrwt>
<pdfrwt beam="2">  1       21 0.13942973E-01 0.43908249E+03</pdfrwt>
<totfact> 0.66454055E+04</totfact>
</mgrwt>
</event>
<event>
 7    0  0.4831799E-002  0.4506961E+03  0.7546771E-02  0.1027515E+00
         21   -1    0    0  502  501  0.00000000000E+00  0.00000000000E+00  0.73044239716E+03  0.73044239716E+03  0.00000000000E+00 0. -1.
         21   -1    0    0  501  502 -0.00000000000E+00 -0.00000000000E+00 -0.69521905848E+02  0.69521905848E+02  0.00000000000E+00 0. -1.
      99926    2    1    2    0    0  0.00000000000E+00  0.00000000000E+00  0.66092049131E+03  0.79996430300E+03  0.45069611741E+03 0.  0.
      99925    2    3    3    0    0  0.38848921120E+02  0.84520766399E+02  0.51927833629E+03  0.58933902721E+03  0.26271181897E+03 0.  0.
         25    1    4    4    0    0  0.20624435387E+01  0.72704125189E+02  0.22873739588E+03  0.27066297838E+03  0.12509000000E+03 0.  0.
         25    1    4    4    0    0  0.36786477581E+02  0.11816641210E+02  0.29054094041E+03  0.31867604883E+03  0.12509000000E+03 0.  0.
         25    1    3    3    0    0 -0.38848921120E+02 -0.84520766399E+02  0.14164215502E+03  0.21062527579E+03  0.12509000000E+03 0.  0.
<mgrwt>
<rscale>  2 0.45069612E+03</rscale>
<asrwt>0</asrwt>
<pdfrwt beam="1">  1       21 0.10741800E+00 0.45069612E+03</pdfrwt>
<pdfrwt beam="2">  1       21 0.10223810E-01 0.45069612E+03</pdfrwt>
<totfact> 0.49414548E+04</totfact>
</mgrwt>
</event>
<event>
 7    0  0.4831799E-002  0.4550044E+03  0.7546771E-02  0.1026240E+00
         21   -1    0    0  502  501  0.00000000000E+00  0.00000000000E+00  0.41244464766E+02  0.41244464766E+02  0.00000000000E+00 0. -1.
         21   -1    0    0  501  502 -0.00000000000E+00 -0.00000000000E+00 -0.12548895892E+04  0.12548895892E+04  0.00000000000E+00 0. -1.
      99926    2    1    2    0    0  0.71054273576E-14  0.00000000000E+00 -0.12136451245E+04  0.12961340540E+04  0.45500439316E+03 0.  0.
      99925    2    3    3    0    0  0.57536239275E+02 -0.65716504844E+02 -0.96868812520E+03  0.10075504137E+04  0.26300584494E+03 0.  0.
         25    1    4    4    0    0 -0.89815540970E+01 -0.14860652478E+02 -0.46589809326E+03  0.48271114418E+03  0.12509000000E+03 0.  0.
         25    1    3    3    0    0 -0.57536239275E+02  0.65716504844E+02 -0.24495699927E+03  0.28858364027E+03  0.12509000000E+03 0.  0.
         25    1    4    4    0    0  0.66517793372E+02 -0.50855852365E+02 -0.50279003194E+03  0.52483926956E+03  0.12509000000E+03 0.  0.
<mgrwt>
<rscale>  2 0.45500439E+03</rscale>
<asrwt>0</asrwt>
<pdfrwt beam="1">  1       21 0.60653612E-02 0.45500439E+03</pdfrwt>
<pdfrwt beam="2">  1       21 0.18454262E+00 0.45500439E+03</pdfrwt>
<totfact> 0.29226175E+04</totfact>
</mgrwt>
</event>
<event>
 7    0  0.4831799E-002  0.4547958E+03  0.7546771E-02  0.1026301E+00
         21   -1    0    0  502  501  0.00000000000E+00  0.00000000000E+00  0.94192380010E+03  0.94192380010E+03  0.00000000000E+00 0. -1.
         21   -1    0    0  501  502 -0.00000000000E+00 -0.00000000000E+00 -0.54898079929E+02  0.54898079929E+02  0.00000000000E+00 0. -1.
      99926    2    1    2    0    0  0.71054273576E-14 -0.17763568394E-14  0.88702572017E+03  0.99682188003E+03  0.45479581381E+03 0.  0.
      99925    2    3    3    0    0  0.37969381590E+02  0.50579412587E+01  0.32492929709E+03  0.41970217524E+03  0.26287565709E+03 0.  0.
         25    1    4    4    0    0  0.41796758618E+02  0.29886754031E+02  0.19763762811E+03  0.23947510777E+03  0.12509000000E+03 0.  0.
         25    1    4    4    0    0 -0.38273770285E+01 -0.24828812772E+02  0.12729166898E+03  0.18022706747E+03  0.12509000000E+03 0.  0.
         25    1    3    3    0    0 -0.37969381590E+02 -0.50579412587E+01  0.56209642308E+03  0.57711970478E+03  0.12509000000E+03 0.  0.
<mgrwt>
<rscale>  2 0.45479581E+03</rscale>
<asrwt>0</asrwt>
<pdfrwt beam="1">  1       21 0.13851820E+00 0.45479581E+03</pdfrwt>
<pdfrwt beam="2">  1       21 0.80732476E-02 0.45479581E+03</pdfrwt>
<totfact> 0.39353356E+04</totfact>
</mgrwt>
</event>
<event>
 7    0  0.4831799E-002  0.4536809E+03  0.7546771E-02  0.1026630E+00
         21   -1    0    0  502  501  0.00000000000E+00  0.00000000000E+00  0.26336969399E+03  0.26336969399E+03  0.00000000000E+00 0.  1.
         21   -1    0    0  501  502 -0.00000000000E+00 -0.00000000000E+00 -0.19537782554E+03  0.19537782554E+03  0.00000000000E+00 0.  1.
      99926    2    1    2    0    0  0.00000000000E+00  0.00000000000E+00  0.67991868452E+02  0.45874751953E+03  0.45368093690E+03 0.  0.
      99925    2    3    3    0    0 -0.54072288090E+02 -0.97797099796E+02  0.47442503451E+02  0.28975678142E+03  0.26309716109E+03 0.  0.
         25    1    4    4    0    0 -0.35070473843E+01 -0.81766802510E+02  0.33314460759E+02  0.15315178997E+03  0.12509000000E+03 0.  0.
         25    1    3    3    0    0  0.54072288090E+02  0.97797099796E+02  0.20549365001E+02  0.16899073812E+03  0.12509000000E+03 0.  0.
         25    1    4    4    0    0 -0.50565240706E+02 -0.16030297286E+02  0.14128042692E+02  0.13660499145E+03  0.12509000000E+03 0.  0.
<mgrwt>
<rscale>  2 0.45368094E+03</rscale>
<asrwt>0</asrwt>
<pdfrwt beam="1">  1       21 0.38730837E-01 0.45368094E+03</pdfrwt>
<pdfrwt beam="2">  1       21 0.28732033E-01 0.45368094E+03</pdfrwt>
<totfact> 0.68994853E+04</totfact>
</mgrwt>
</event>
<event>
 7    0  0.4831799E-002  0.4413016E+03  0.7546771E-02  0.1030348E+00
         21   -1    0    0  502  501  0.00000000000E+00  0.00000000000E+00  0.38163905082E+03  0.38163905082E+03  0.00000000000E+00 0. -1.
         21   -1    0    0  501  502 -0.00000000000E+00 -0.00000000000E+00 -0.12757282263E+03  0.12757282263E+03  0.00000000000E+00 0. -1.
      99926    2    1    2    0    0  0.00000000000E+00 -0.17763568394E-14  0.25406622819E+03  0.50921187345E+03  0.44130157915E+03 0.  0.
      99925    2    3    3    0    0  0.57123390771E+02 -0.15521716007E+02  0.69081495813E+02  0.27819052216E+03  0.26289486133E+03 0.  0.
         25    1    4    4    0    0  0.53228574134E+02 -0.14433802552E+02  0.68778837705E+02  0.15303480773E+03  0.12509000000E+03 0.  0.
         25    1    4    4    0    0  0.38948166374E+01 -0.10879134551E+01  0.30265810816E+00  0.12515571443E+03  0.12509000000E+03 0.  0.
         25    1    3    3    0    0 -0.57123390771E+02  0.15521716007E+02  0.18498473237E+03  0.23102135129E+03  0.12509000000E+03 0.  0.
<mgrwt>
<rscale>  2 0.44130158E+03</rscale>
<asrwt>0</asrwt>
<pdfrwt beam="1">  1       21 0.56123390E-01 0.44130158E+03</pdfrwt>
<pdfrwt beam="2">  1       21 0.18760709E-01 0.44130158E+03</pdfrwt>
<totfact> 0.72157811E+04</totfact>
</mgrwt>
</event>
<event>
 7    0  0.4831799E-002  0.4532364E+03  0.7546771E-02  0.1026761E+00
         21   -1    0    0  502  501  0.00000000000E+00  0.00000000000E+00  0.22413192099E+03  0.22413192099E+03  0.00000000000E+00 0.  1.
         21   -1    0    0  501  502 -0.00000000000E+00 -0.00000000000E+00 -0.22913201217E+03  0.22913201217E+03  0.00000000000E+00 0.  1.
      99926    2    1    2    0    0  0.00000000000E+00  0.00000000000E+00 -0.50000911870E+01  0.45326393316E+03  0.45323635356E+03 0.  0.
      99925    2    3    3    0    0  0.50271975968E+02  0.29153649108E+02  0.92137058723E+02  0.28456200425E+03  0.26288607770E+03 0.  0.
         25    1    4    4    0    0  0.46443110755E+02  0.49641187597E+02  0.45989780000E+02  0.14961209178E+03  0.12509000000E+03 0.  0.
         25    1    3    3    0    0 -0.50271975968E+02 -0.29153649108E+02 -0.97137149910E+02  0.16870192891E+03  0.12509000000E+03 0.  0.
         25    1    4    4    0    0  0.38288652128E+01 -0.20487538489E+02  0.46147278723E+02  0.13494991247E+03  0.12509000000E+03 0.  0.
<mgrwt>
<rscale>  2 0.45323635E+03</rscale>
<asrwt>0</asrwt>
<pdfrwt beam="1">  1       21 0.32960576E-01 0.45323635E+03</pdfrwt>
<pdfrwt beam="2">  1       21 0.33695884E-01 0.45323635E+03</pdfrwt>
<totfact> 0.69648106E+04</totfact>
</mgrwt>
</event>
<event>
 7    0  0.4831799E-002  0.4724528E+03  0.7546771E-02  0.1021230E+00
         21   -1    0    0  502  501  0.00000000000E+00  0.00000000000E+00  0.14447621992E+03  0.14447621992E+03  0.00000000000E+00 0. -1.
         21   -1    0    0  501  502 -0.00000000000E+00 -0.00000000000E+00 -0.38624284940E+03  0.38624284940E+03  0.00000000000E+00 0. -1.
      99926    2    1    2    0    0  0.14210854715E-13 -0.71054273576E-14 -0.24176662948E+03  0.53071906932E+03  0.47245277796E+03 0.  0.
      99925    2    3    3    0    0 -0.10800768768E+03  0.62612054318E+02 -0.11410815841E+03  0.31270502555E+03  0.26301678890E+03 0.  0.
         25    1    4    4    0    0 -0.40051581912E+02 -0.33662909994E+01 -0.73843005573E+02  0.15071747975E+03  0.12509000000E+03 0.  0.
         25    1    4    4    0    0 -0.67956105769E+02  0.65978345317E+02 -0.40265152834E+02  0.16198754580E+03  0.12509000000E+03 0.  0.
         25    1    3    3    0    0  0.10800768768E+03 -0.62612054318E+02 -0.12765847108E+03  0.21801404377E+03  0.12509000000E+03 0.  0.
<mgrwt>
<rscale>  2 0.47245278E+03</rscale>
<asrwt>0</asrwt>
<pdfrwt beam="1">  1       21 0.21246504E-01 0.47245278E+03</pdfrwt>
<pdfrwt beam="2">  1       21 0.56800417E-01 0.47245278E+03</pdfrwt>
<totfact> 0.55125081E+04</totfact>
</mgrwt>
</event>
<event>
 7    0  0.4831799E-002  0.4601218E+03  0.7546771E-02  0.1024746E+00
         21   -1    0    0  502  501  0.00000000000E+00  0.00000000000E+00  0.58626584031E+02  0.58626584031E+02  0.00000000000E+00 0.  1.
         21   -1    0    0  501  502 -0.00000000000E+00 -0.00000000000E+00 -0.90279901592E+03  0.90279901592E+03  0.00000000000E+00 0.  1.
      99926    2    1    2    0    0  0.00000000000E+00  0.17763568394E-14 -0.84417243189E+03  0.96142559995E+03  0.46012182026E+03 0.  0.
      99925    2    3    3    0    0  0.11653853592E+03  0.15132216876E+02 -0.50920273509E+03  0.58504491472E+03  0.26302074533E+03 0.  0.
         25    1    4    4    0    0  0.10222865536E+03  0.34236476698E+01 -0.29079942701E+03  0.33267737253E+03  0.12509000000E+03 0.  0.
         25    1    4    4    0    0  0.14309880557E+02  0.11708569206E+02 -0.21840330808E+03  0.25236754220E+03  0.12509000000E+03 0.  0.
         25    1    3    3    0    0 -0.11653853592E+03 -0.15132216876E+02 -0.33496969679E+03  0.37638068522E+03  0.12509000000E+03 0.  0.
<mgrwt>
<rscale>  2 0.46012182E+03</rscale>
<asrwt>0</asrwt>
<pdfrwt beam="1">  1       21 0.86215562E-02 0.46012182E+03</pdfrwt>
<pdfrwt beam="2">  1       21 0.13276457E+00 0.46012182E+03</pdfrwt>
<totfact> 0.39092445E+04</totfact>
</mgrwt>
</event>
<event>
 7    0  0.4831799E-002  0.4544719E+03  0.7546771E-02  0.1026397E+00
         21   -1    0    0  502  501  0.00000000000E+00  0.00000000000E+00  0.50113772729E+03  0.50113772729E+03  0.00000000000E+00 0.  1.
         21   -1    0    0  501  502 -0.00000000000E+00 -0.00000000000E+00 -0.10303788814E+03  0.10303788814E+03  0.00000000000E+00 0.  1.
      99926    2    1    2    0    0  0.00000000000E+00  0.35527136788E-14  0.39809983916E+03  0.60417561543E+03  0.45447188289E+03 0.  0.
      99925    2    3    3    0    0 -0.95290780948E+02  0.92128316298E+01  0.17125899666E+03  0.32800631025E+03  0.26285601843E+03 0.  0.
         25    1    4    4    0    0 -0.75107016305E+02  0.35895976442E+02  0.91175402409E+02  0.17575564608E+03  0.12509000000E+03 0.  0.
         25    1    3    3    0    0  0.95290780948E+02 -0.92128316298E+01  0.22684084250E+03  0.27616930518E+03  0.12509000000E+03 0.  0.
         25    1    4    4    0    0 -0.20183764643E+02 -0.26683144812E+02  0.80083594254E+02  0.15225066417E+03  0.12509000000E+03 0.  0.
<mgrwt>
<rscale>  2 0.45447188E+03</rscale>
<asrwt>0</asrwt>
<pdfrwt beam="1">  1       21 0.73696723E-01 0.45447188E+03</pdfrwt>
<pdfrwt beam="2">  1       21 0.15152631E-01 0.45447188E+03</pdfrwt>
<totfact> 0.58666371E+04</totfact>
</mgrwt>
</event>
<event>
 7    0  0.4831799E-002  0.4610462E+03  0.7546771E-02  0.1024478E+00
         21   -1    0    0  502  501  0.00000000000E+00  0.00000000000E+00  0.29197901183E+03  0.29197901183E+03  0.00000000000E+00 0. -1.
         21   -1    0    0  501  502 -0.00000000000E+00 -0.00000000000E+00 -0.18200249985E+03  0.18200249985E+03  0.00000000000E+00 0. -1.
      99926    2    1    2    0    0  0.00000000000E+00  0.00000000000E+00  0.10997651199E+03  0.47398151168E+03  0.46104624521E+03 0.  0.
      99925    2    3    3    0    0  0.34930320778E+02 -0.11071685407E+03  0.43174150898E+02  0.29071009374E+03  0.26300190534E+03 0.  0.
         25    1    4    4    0    0  0.45164838192E+02 -0.24985882500E+02  0.25355689890E+02  0.13767561891E+03  0.12509000000E+03 0.  0.
         25    1    4    4    0    0 -0.10234517414E+02 -0.85730971573E+02  0.17818461008E+02  0.15303447483E+03  0.12509000000E+03 0.  0.
         25    1    3    3    0    0 -0.34930320778E+02  0.11071685407E+03  0.66802361092E+02  0.18327141794E+03  0.12509000000E+03 0.  0.
<mgrwt>
<rscale>  2 0.46104625E+03</rscale>
<asrwt>0</asrwt>
<pdfrwt beam="1">  1       21 0.42938090E-01 0.46104625E+03</pdfrwt>
<pdfrwt beam="2">  1       21 0.26765073E-01 0.46104625E+03</pdfrwt>
<totfact> 0.64014828E+04</totfact>
</mgrwt>
</event>
<event>
 7    0  0.4831799E-002  0.4541001E+03  0.7546771E-02  0.1026506E+00
         21   -1    0    0  502  501  0.00000000000E+00  0.00000000000E+00  0.22971281019E+03  0.22971281019E+03  0.00000000000E+00 0. -1.
         21   -1    0    0  501  502 -0.00000000000E+00 -0.00000000000E+00 -0.22441816874E+03  0.22441816874E+03  0.00000000000E+00 0. -1.
      99926    2    1    2    0    0  0.00000000000E+00  0.35527136788E-14  0.52946414571E+01  0.45413097893E+03  0.45410011318E+03 0.  0.
      99925    2    3    3    0    0 -0.93170836990E+02 -0.31693299003E+02 -0.50979887828E+02  0.28531273106E+03  0.26290518343E+03 0.  0.
         25    1    4    4    0    0 -0.32086098437E+02 -0.53546373006E+02 -0.26447877671E+02  0.14228046285E+03  0.12509000000E+03 0.  0.
         25    1    3    3    0    0  0.93170836990E+02  0.31693299003E+02  0.56274529285E+02  0.16881824787E+03  0.12509000000E+03 0.  0.
         25    1    4    4    0    0 -0.61084738553E+02  0.21853074003E+02 -0.24532010157E+02  0.14303226821E+03  0.12509000000E+03 0.  0.
<mgrwt>
<rscale>  2 0.45410011E+03</rscale>
<asrwt>0</asrwt>
<pdfrwt beam="1">  1       21 0.33781296E-01 0.45410011E+03</pdfrwt>
<pdfrwt beam="2">  1       21 0.33002672E-01 0.45410011E+03</pdfrwt>
<totfact> 0.69104351E+04</totfact>
</mgrwt>
</event>
<event>
 7    0  0.4831799E-002  0.4570612E+03  0.7546771E-02  0.1025637E+00
         21   -1    0    0  502  501  0.00000000000E+00  0.00000000000E+00  0.22617494201E+03  0.22617494201E+03  0.00000000000E+00 0.  1.
         21   -1    0    0  501  502 -0.00000000000E+00 -0.00000000000E+00 -0.23091083860E+03  0.23091083860E+03  0.00000000000E+00 0.  1.
      99926    2    1    2    0    0  0.35527136788E-14  0.00000000000E+00 -0.47358965903E+01  0.45708578061E+03  0.45706124548E+03 0.  0.
      99925    2    3    3    0    0 -0.31906817553E+02 -0.86515579975E+02 -0.72583844887E+02  0.28751619969E+03  0.26247697035E+03 0.  0.
         25    1    4    4    0    0 -0.37606134191E+02 -0.74262942268E+02 -0.21768380313E+02  0.15182416278E+03  0.12509000000E+03 0.  0.
         25    1    4    4    0    0  0.56993166380E+01 -0.12252637708E+02 -0.50815464574E+02  0.13569203691E+03  0.12509000000E+03 0.  0.
         25    1    3    3    0    0  0.31906817553E+02  0.86515579975E+02  0.67847948297E+02  0.16956958092E+03  0.12509000000E+03 0.  0.
<mgrwt>
<rscale>  2 0.45706125E+03</rscale>
<asrwt>0</asrwt>
<pdfrwt beam="1">  1       21 0.33261021E-01 0.45706125E+03</pdfrwt>
<pdfrwt beam="2">  1       21 0.33957476E-01 0.45706125E+03</pdfrwt>
<totfact> 0.67279906E+04</totfact>
</mgrwt>
</event>
<event>
 7    0  0.4831799E-002  0.4535673E+03  0.7546771E-02  0.1026664E+00
         21   -1    0    0  502  501  0.00000000000E+00  0.00000000000E+00  0.31879362995E+03  0.31879362995E+03  0.00000000000E+00 0. -1.
         21   -1    0    0  501  502 -0.00000000000E+00 -0.00000000000E+00 -0.16132951971E+03  0.16132951971E+03  0.00000000000E+00 0. -1.
      99926    2    1    2    0    0  0.14210854715E-13 -0.35527136788E-14  0.15746411023E+03  0.48012314966E+03  0.45356729691E+03 0.  0.
      99925    2    3    3    0    0 -0.91595142616E+02  0.22436518613E+02  0.35604215952E+02  0.28165297696E+03  0.26299747474E+03 0.  0.
         25    1    3    3    0    0  0.91595142616E+02 -0.22436518613E+02  0.12185989428E+03  0.19847017270E+03  0.12509000000E+03 0.  0.
         25    1    4    4    0    0 -0.19987206066E+02 -0.21761861746E+02  0.12617272786E+02  0.12915018663E+03  0.12509000000E+03 0.  0.
         25    1    4    4    0    0 -0.71607936550E+02  0.44198380359E+02  0.22986943166E+02  0.15250279033E+03  0.12509000000E+03 0.  0.
<mgrwt>
<rscale>  2 0.45356730E+03</rscale>
<asrwt>0</asrwt>
<pdfrwt beam="1">  1       21 0.46881416E-01 0.45356730E+03</pdfrwt>
<pdfrwt beam="2">  1       21 0.23724929E-01 0.45356730E+03</pdfrwt>
<totfact> 0.67454997E+04</totfact>
</mgrwt>
</event>
<event>
 7    0  0.4831799E-002  0.4522164E+03  0.7546771E-02  0.1027063E+00
         21   -1    0    0  502  501  0.00000000000E+00  0.00000000000E+00  0.25688525339E+03  0.25688525339E+03  0.00000000000E+00 0. -1.
         21   -1    0    0  501  502 -0.00000000000E+00 -0.00000000000E+00 -0.19901848563E+03  0.19901848563E+03  0.00000000000E+00 0. -1.
      99926    2    1    2    0    0  0.00000000000E+00  0.00000000000E+00  0.57866767763E+02  0.45590373902E+03  0.45221638232E+03 0.  0.
      99925    2    3    3    0    0 -0.98204369794E+02  0.33927703532E+02 -0.19508340750E+01  0.28263850620E+03  0.26284126792E+03 0.  0.
         25    1    4    4    0    0 -0.17918509690E+02  0.31823880474E+01  0.23961205753E+02  0.12865787214E+03  0.12509000000E+03 0.  0.
         25    1    3    3    0    0  0.98204369794E+02 -0.33927703532E+02  0.59817601838E+02  0.17326523282E+03  0.12509000000E+03 0.  0.
         25    1    4    4    0    0 -0.80285860105E+02  0.30745315484E+02 -0.25912039828E+02  0.15398063406E+03  0.12509000000E+03 0.  0.
<mgrwt>
<rscale>  2 0.45221638E+03</rscale>
<asrwt>0</asrwt>
<pdfrwt beam="1">  1       21 0.37777243E-01 0.45221638E+03</pdfrwt>
<pdfrwt beam="2">  1       21 0.29267424E-01 0.45221638E+03</pdfrwt>
<totfact> 0.70021654E+04</totfact>
</mgrwt>
</event>
<event>
 7    0  0.4831799E-002  0.4455224E+03  0.7546771E-02  0.1029066E+00
         21   -1    0    0  502  501  0.00000000000E+00  0.00000000000E+00  0.10475942404E+03  0.10475942404E+03  0.00000000000E+00 0. -1.
         21   -1    0    0  501  502 -0.00000000000E+00 -0.00000000000E+00 -0.47368105410E+03  0.47368105410E+03  0.00000000000E+00 0. -1.
      99926    2    1    2    0    0 -0.88817841970E-15  0.00000000000E+00 -0.36892163007E+03  0.57844047814E+03  0.44552240978E+03 0.  0.
      99925    2    3    3    0    0 -0.62656812955E+01 -0.66502692680E+02 -0.33781591431E+03  0.43326148328E+03  0.26293355441E+03 0.  0.
         25    1    4    4    0    0 -0.12542656000E+02 -0.12548369091E+02 -0.21683986256E+03  0.25096177773E+03  0.12509000000E+03 0.  0.
         25    1    4    4    0    0  0.62769747041E+01 -0.53954323589E+02 -0.12097605176E+03  0.18229970555E+03  0.12509000000E+03 0.  0.
         25    1    3    3    0    0  0.62656812955E+01  0.66502692680E+02 -0.31105715750E+02  0.14517899486E+03  0.12509000000E+03 0.  0.
<mgrwt>
<rscale>  2 0.44552241E+03</rscale>
<asrwt>0</asrwt>
<pdfrwt beam="1">  1       21 0.15405798E-01 0.44552241E+03</pdfrwt>
<pdfrwt beam="2">  1       21 0.69658978E-01 0.44552241E+03</pdfrwt>
<totfact> 0.64741633E+04</totfact>
</mgrwt>
</event>
<event>
 7    0  0.4831799E-002  0.4591228E+03  0.7546771E-02  0.1025036E+00
         21   -1    0    0  502  501  0.00000000000E+00  0.00000000000E+00  0.58899554241E+02  0.58899554241E+02  0.00000000000E+00 0.  1.
         21   -1    0    0  501  502 -0.00000000000E+00 -0.00000000000E+00 -0.89471704398E+03  0.89471704398E+03  0.00000000000E+00 0.  1.
      99926    2    1    2    0    0  0.00000000000E+00  0.00000000000E+00 -0.83581748974E+03  0.95361659823E+03  0.45912279430E+03 0.  0.
      99925    2    3    3    0    0 -0.81393542499E+02  0.80733228682E+02 -0.47606352041E+03  0.55585638211E+03  0.26305337689E+03 0.  0.
         25    1    4    4    0    0 -0.24679946214E+02  0.75958559589E+02 -0.27148509047E+03  0.30940340167E+03  0.12509000000E+03 0.  0.
         25    1    4    4    0    0 -0.56713596285E+02  0.47746690930E+01 -0.20457842994E+03  0.24645298044E+03  0.12509000000E+03 0.  0.
         25    1    3    3    0    0  0.81393542499E+02 -0.80733228682E+02 -0.35975396933E+03  0.39776021612E+03  0.12509000000E+03 0.  0.
<mgrwt>
<rscale>  2 0.45912279E+03</rscale>
<asrwt>0</asrwt>
<pdfrwt beam="1">  1       21 0.86616995E-02 0.45912279E+03</pdfrwt>
<pdfrwt beam="2">  1       21 0.13157603E+00 0.45912279E+03</pdfrwt>
<totfact> 0.39699340E+04</totfact>
</mgrwt>
</event>
<event>
 7    0  0.4831799E-002  0.4332447E+03  0.7546771E-02  0.1032840E+00
         21   -1    0    0  502  501  0.00000000000E+00  0.00000000000E+00  0.10334904080E+04  0.10334904080E+04  0.00000000000E+00 0. -1.
         21   -1    0    0  501  502 -0.00000000000E+00 -0.00000000000E+00 -0.45404619725E+02  0.45404619725E+02  0.00000000000E+00 0. -1.
      99926    2    1    2    0    0 -0.71054273576E-14 -0.71054273576E-14  0.98808578831E+03  0.10788950278E+04  0.43324468359E+03 0.  0.
      99925    2    3    3    0    0 -0.44550348205E+02 -0.45369132814E+02  0.79779568432E+03  0.84246126640E+03  0.26309682574E+03 0.  0.
         25    1    4    4    0    0  0.11596338510E+02 -0.71216790723E+00  0.40471419549E+03  0.42376416836E+03  0.12509000000E+03 0.  0.
         25    1    3    3    0    0  0.44550348205E+02  0.45369132814E+02  0.19029010398E+03  0.23643376136E+03  0.12509000000E+03 0.  0.
         25    1    4    4    0    0 -0.56146686715E+02 -0.44656964907E+02  0.39308148883E+03  0.41869709804E+03  0.12509000000E+03 0.  0.
<mgrwt>
<rscale>  2 0.43324468E+03</rscale>
<asrwt>0</asrwt>
<pdfrwt beam="1">  1       21 0.15198387E+00 0.43324468E+03</pdfrwt>
<pdfrwt beam="2">  1       21 0.66771506E-02 0.43324468E+03</pdfrwt>
<totfact> 0.43099022E+04</totfact>
</mgrwt>
</event>
<event>
 7    0  0.4831799E-002  0.4486995E+03  0.7546771E-02  0.1028111E+00
         21   -1    0    0  502  501  0.00000000000E+00  0.00000000000E+00  0.93653528302E+03  0.93653528302E+03  0.00000000000E+00 0.  1.
         21   -1    0    0  501  502 -0.00000000000E+00 -0.00000000000E+00 -0.53743626792E+02  0.53743626792E+02  0.00000000000E+00 0.  1.
      99926    2    1    2    0    0  0.00000000000E+00  0.14210854715E-13  0.88279165623E+03  0.99027890981E+03  0.44869946614E+03 0.  0.
      99925    2    3    3    0    0  0.16947665948E+02 -0.93153223025E+02  0.44865909456E+03  0.52866940434E+03  0.26311900276E+03 0.  0.
         25    1    3    3    0    0 -0.16947665948E+02  0.93153223025E+02  0.43413256167E+03  0.46160950547E+03  0.12509000000E+03 0.  0.
         25    1    4    4    0    0  0.24617887190E+02 -0.23021168630E+02  0.26977633073E+03  0.29927043171E+03  0.12509000000E+03 0.  0.
         25    1    4    4    0    0 -0.76702212426E+01 -0.70132054396E+02  0.17888276383E+03  0.22939897263E+03  0.12509000000E+03 0.  0.
<mgrwt>
<rscale>  2 0.44869947E+03</rscale>
<asrwt>0</asrwt>
<pdfrwt beam="1">  1       21 0.13772577E+00 0.44869947E+03</pdfrwt>
<pdfrwt beam="2">  1       21 0.79034751E-02 0.44869947E+03</pdfrwt>
<totfact> 0.41554619E+04</totfact>
</mgrwt>
</event>
<event>
 7    0  0.4831799E-002  0.4528180E+03  0.7546771E-02  0.1026885E+00
         21   -1    0    0  502  501  0.00000000000E+00  0.00000000000E+00  0.10831623188E+03  0.10831623188E+03  0.00000000000E+00 0.  1.
         21   -1    0    0  501  502 -0.00000000000E+00 -0.00000000000E+00 -0.47325346917E+03  0.47325346917E+03  0.00000000000E+00 0.  1.
      99926    2    1    2    0    0  0.00000000000E+00  0.00000000000E+00 -0.36493723730E+03  0.58156970105E+03  0.45281798773E+03 0.  0.
      99925    2    3    3    0    0 -0.72610828658E+02  0.83507332696E+02 -0.21537007653E+03  0.35737413746E+03  0.26284253310E+03 0.  0.
         25    1    4    4    0    0 -0.71173221701E+02  0.66035895335E+02 -0.13055751602E+03  0.20522948143E+03  0.12509000000E+03 0.  0.
         25    1    3    3    0    0  0.72610828658E+02 -0.83507332696E+02 -0.14956716077E+03  0.22419556359E+03  0.12509000000E+03 0.  0.
         25    1    4    4    0    0 -0.14376069566E+01  0.17471437361E+02 -0.84812560506E+02  0.15214465602E+03  0.12509000000E+03 0.  0.
<mgrwt>
<rscale>  2 0.45281799E+03</rscale>
<asrwt>0</asrwt>
<pdfrwt beam="1">  1       21 0.15928857E-01 0.45281799E+03</pdfrwt>
<pdfrwt beam="2">  1       21 0.69596099E-01 0.45281799E+03</pdfrwt>
<totfact> 0.60870495E+04</totfact>
</mgrwt>
</event>
<event>
 7    0  0.4831799E-002  0.4715954E+03  0.7546771E-02  0.1021471E+00
         21   -1    0    0  502  501  0.00000000000E+00  0.00000000000E+00  0.77978333782E+03  0.77978333782E+03  0.00000000000E+00 0. -1.
         21   -1    0    0  501  502 -0.00000000000E+00 -0.00000000000E+00 -0.71302564134E+02  0.71302564134E+02  0.00000000000E+00 0. -1.
      99926    2    1    2    0    0  0.00000000000E+00 -0.14210854715E-13  0.70848077369E+03  0.85108590195E+03  0.47159538359E+03 0.  0.
      99925    2    3    3    0    0 -0.57920996357E+02 -0.11422861038E+03  0.43686255834E+03  0.52577531151E+03  0.26303567450E+03 0.  0.
         25    1    4    4    0    0 -0.24730072078E+02 -0.24390194878E+02  0.14901473873E+03  0.19763440624E+03  0.12509000000E+03 0.  0.
         25    1    3    3    0    0  0.57920996357E+02  0.11422861038E+03  0.27161821535E+03  0.32531059045E+03  0.12509000000E+03 0.  0.
         25    1    4    4    0    0 -0.33190924279E+02 -0.89838415506E+02  0.28784781961E+03  0.32814090526E+03  0.12509000000E+03 0.  0.
<mgrwt>
<rscale>  2 0.47159538E+03</rscale>
<asrwt>0</asrwt>
<pdfrwt beam="1">  1       21 0.11467402E+00 0.47159538E+03</pdfrwt>
<pdfrwt beam="2">  1       21 0.10485672E-01 0.47159538E+03</pdfrwt>
<totfact> 0.39932654E+04</totfact>
</mgrwt>
</event>
<event>
 7    0  0.4831799E-002  0.4613977E+03  0.7546771E-02  0.1024377E+00
         21   -1    0    0  502  501  0.00000000000E+00  0.00000000000E+00  0.64969439488E+02  0.64969439488E+02  0.00000000000E+00 0. -1.
         21   -1    0    0  501  502 -0.00000000000E+00 -0.00000000000E+00 -0.81918468106E+03  0.81918468106E+03  0.00000000000E+00 0. -1.
      99926    2    1    2    0    0  0.00000000000E+00  0.00000000000E+00 -0.75421524157E+03  0.88415412054E+03  0.46139774410E+03 0.  0.
      99925    2    3    3    0    0  0.99887373083E+02 -0.31645699895E+02 -0.36352379474E+03  0.46075566477E+03  0.26299675978E+03 0.  0.
         25    1    4    4    0    0  0.53745166240E+02 -0.28049407374E+02 -0.12246397483E+03  0.18525724110E+03  0.12509000000E+03 0.  0.
         25    1    4    4    0    0  0.46142206843E+02 -0.35962925216E+01 -0.24105981992E+03  0.27549842368E+03  0.12509000000E+03 0.  0.
         25    1    3    3    0    0 -0.99887373083E+02  0.31645699895E+02 -0.39069144683E+03  0.42339845577E+03  0.12509000000E+03 0.  0.
<mgrwt>
<rscale>  2 0.46139774E+03</rscale>
<asrwt>0</asrwt>
<pdfrwt beam="1">  1       21 0.95543296E-02 0.46139774E+03</pdfrwt>
<pdfrwt beam="2">  1       21 0.12046833E+00 0.46139774E+03</pdfrwt>
<totfact> 0.41792306E+04</totfact>
</mgrwt>
</event>
<event>
 7    0  0.4831799E-002  0.4263371E+03  0.7546771E-02  0.1035023E+00
         21   -1    0    0  502  501  0.00000000000E+00  0.00000000000E+00  0.17506498913E+02  0.17506498913E+02  0.00000000000E+00 0.  1.
         21   -1    0    0  501  502 -0.00000000000E+00 -0.00000000000E+00 -0.25956546499E+04  0.25956546499E+04  0.00000000000E+00 0.  1.
      99926    2    1    2    0    0  0.14210854715E-13  0.00000000000E+00 -0.25781481510E+04  0.26131611488E+04  0.42633707466E+03 0.  0.
      99925    2    3    3    0    0 -0.82069254977E+02 -0.60331751318E+01 -0.15801342069E+04  0.16039777648E+04  0.26296158738E+03 0.  0.
         25    1    4    4    0    0 -0.66911308462E+02 -0.21201764293E+02 -0.99112617430E+03  0.10014515662E+04  0.12509000000E+03 0.  0.
         25    1    4    4    0    0 -0.15157946515E+02  0.15168589162E+02 -0.58900803257E+03  0.60252619858E+03  0.12509000000E+03 0.  0.
         25    1    3    3    0    0  0.82069254977E+02  0.60331751318E+01 -0.99801394412E+03  0.10091833840E+04  0.12509000000E+03 0.  0.
<mgrwt>
<rscale>  2 0.42633707E+03</rscale>
<asrwt>0</asrwt>
<pdfrwt beam="1">  1       21 0.25744867E-02 0.42633707E+03</pdfrwt>
<pdfrwt beam="2">  1       21 0.38171368E+00 0.42633707E+03</pdfrwt>
<totfact> 0.75995410E+03</totfact>
</mgrwt>
</event>
<event>
 7    0  0.4831799E-002  0.4571215E+03  0.7546771E-02  0.1025619E+00
         21   -1    0    0  502  501  0.00000000000E+00  0.00000000000E+00  0.21695319517E+04  0.21695319517E+04  0.00000000000E+00 0.  1.
         21   -1    0    0  501  502 -0.00000000000E+00 -0.00000000000E+00 -0.24078930365E+02  0.24078930365E+02  0.00000000000E+00 0.  1.
      99926    2    1    2    0    0  0.71054273576E-14 -0.71054273576E-14  0.21454530214E+04  0.21936108821E+04  0.45712146653E+03 0.  0.
      99925    2    3    3    0    0  0.61295323444E+02 -0.47818620822E+02  0.17551361477E+04  0.17764316554E+04  0.26298819815E+03 0.  0.
         25    1    4    4    0    0 -0.65655222151E+00  0.42129954067E+00  0.89668843348E+03  0.90537189232E+03  0.12509000000E+03 0.  0.
         25    1    3    3    0    0 -0.61295323444E+02  0.47818620822E+02  0.39031687370E+03  0.41717922667E+03  0.12509000000E+03 0.  0.
         25    1    4    4    0    0  0.61951875666E+02 -0.48239920363E+02  0.85844771420E+03  0.87105976313E+03  0.12509000000E+03 0.  0.
<mgrwt>
<rscale>  2 0.45712147E+03</rscale>
<asrwt>0</asrwt>
<pdfrwt beam="1">  1       21 0.31904868E+00 0.45712147E+03</pdfrwt>
<pdfrwt beam="2">  1       21 0.35410207E-02 0.45712147E+03</pdfrwt>
<totfact> 0.10622602E+04</totfact>
</mgrwt>
</event>
<event>
 7    0  0.4831799E-002  0.4529107E+03  0.7546771E-02  0.1026858E+00
         21   -1    0    0  502  501  0.00000000000E+00  0.00000000000E+00  0.55270239610E+02  0.55270239610E+02  0.00000000000E+00 0.  1.
         21   -1    0    0  501  502 -0.00000000000E+00 -0.00000000000E+00 -0.92784156588E+03  0.92784156588E+03  0.00000000000E+00 0.  1.
      99926    2    1    2    0    0  0.00000000000E+00 -0.35527136788E-14 -0.87257132627E+03  0.98311180549E+03  0.45291070054E+03 0.  0.
      99925    2    3    3    0    0 -0.10061580446E+03 -0.26174458841E+02 -0.46432384113E+03  0.54365514138E+03  0.26297460126E+03 0.  0.
         25    1    4    4    0    0 -0.40997448024E+02 -0.52466493041E+02 -0.22881388153E+03  0.26914090012E+03  0.12509000000E+03 0.  0.
         25    1    3    3    0    0  0.10061580446E+03  0.26174458841E+02 -0.40824748514E+03  0.43945666411E+03  0.12509000000E+03 0.  0.
         25    1    4    4    0    0 -0.59618356438E+02  0.26292034200E+02 -0.23550995960E+03  0.27451424126E+03  0.12509000000E+03 0.  0.
<mgrwt>
<rscale>  2 0.45291070E+03</rscale>
<asrwt>0</asrwt>
<pdfrwt beam="1">  1       21 0.81279759E-02 0.45291070E+03</pdfrwt>
<pdfrwt beam="2">  1       21 0.13644730E+00 0.45291070E+03</pdfrwt>
<totfact> 0.40485213E+04</totfact>
</mgrwt>
</event>
<event>
 7    0  0.4831799E-002  0.4550130E+03  0.7546771E-02  0.1026238E+00
         21   -1    0    0  502  501  0.00000000000E+00  0.00000000000E+00  0.35608462984E+03  0.35608462984E+03  0.00000000000E+00 0.  1.
         21   -1    0    0  501  502 -0.00000000000E+00 -0.00000000000E+00 -0.14535650074E+03  0.14535650074E+03  0.00000000000E+00 0.  1.
      99926    2    1    2    0    0  0.55511151231E-16  0.00000000000E+00  0.21072812910E+03  0.50144113058E+03  0.45501303612E+03 0.  0.
      99925    2    3    3    0    0 -0.49236849267E+00  0.78961646950E+02  0.22198658857E+03  0.35308532474E+03  0.26297531620E+03 0.  0.
         25    1    4    4    0    0 -0.14800675595E+02  0.22581617832E+02  0.15102305600E+03  0.19795065296E+03  0.12509000000E+03 0.  0.
         25    1    3    3    0    0  0.49236849267E+00 -0.78961646950E+02 -0.11258459467E+02  0.14835580584E+03  0.12509000000E+03 0.  0.
         25    1    4    4    0    0  0.14308307103E+02  0.56380029118E+02  0.70963532565E+02  0.15513467178E+03  0.12509000000E+03 0.  0.
<mgrwt>
<rscale>  2 0.45501304E+03</rscale>
<asrwt>0</asrwt>
<pdfrwt beam="1">  1       21 0.52365387E-01 0.45501304E+03</pdfrwt>
<pdfrwt beam="2">  1       21 0.21375956E-01 0.45501304E+03</pdfrwt>
<totfact> 0.65162793E+04</totfact>
</mgrwt>
</event>
<event>
 7    0  0.4831799E-002  0.3989438E+03  0.7546771E-02  0.1044146E+00
         21   -1    0    0  502  501  0.00000000000E+00  0.00000000000E+00  0.13810577449E+03  0.13810577449E+03  0.00000000000E+00 0.  1.
         21   -1    0    0  501  502 -0.00000000000E+00 -0.00000000000E+00 -0.28810548772E+03  0.28810548772E+03  0.00000000000E+00 0.  1.
      99926    2    1    2    0    0  0.00000000000E+00  0.00000000000E+00 -0.14999971324E+03  0.42621126221E+03  0.39894376304E+03 0.  0.
      99925    2    3    3    0    0  0.11155699857E+02 -0.23702739855E+02 -0.13716445569E+03  0.29776469180E+03  0.26298945656E+03 0.  0.
         25    1    4    4    0    0  0.15190809346E+02  0.20864903424E+01 -0.26634906088E+02  0.12881009453E+03  0.12509000000E+03 0.  0.
         25    1    3    3    0    0 -0.11155699857E+02  0.23702739855E+02 -0.12835257549E+02  0.12844657042E+03  0.12509000000E+03 0.  0.
         25    1    4    4    0    0 -0.40351094890E+01 -0.25789230198E+02 -0.11052954960E+03  0.16895459727E+03  0.12509000000E+03 0.  0.
<mgrwt>
<rscale>  2 0.39894376E+03</rscale>
<asrwt>0</asrwt>
<pdfrwt beam="1">  1       21 0.20309673E-01 0.39894376E+03</pdfrwt>
<pdfrwt beam="2">  1       21 0.42368453E-01 0.39894376E+03</pdfrwt>
<totfact> 0.11353576E+05</totfact>
</mgrwt>
</event>
<event>
 7    0  0.4831799E-002  0.4499433E+03  0.7546771E-02  0.1027739E+00
         21   -1    0    0  502  501  0.00000000000E+00  0.00000000000E+00  0.50537705558E+02  0.50537705558E+02  0.00000000000E+00 0. -1.
         21   -1    0    0  501  502 -0.00000000000E+00 -0.00000000000E+00 -0.10014751043E+04  0.10014751043E+04  0.00000000000E+00 0. -1.
      99926    2    1    2    0    0  0.00000000000E+00  0.00000000000E+00 -0.95093739872E+03  0.10520128098E+04  0.44994334730E+03 0.  0.
      99925    2    3    3    0    0 -0.73053792397E+02  0.65445027054E+02 -0.70880761403E+03  0.76236777038E+03  0.26301421151E+03 0.  0.
         25    1    4    4    0    0 -0.18239103419E+02  0.54832645480E+02 -0.27746705581E+03  0.30979793264E+03  0.12509000000E+03 0.  0.
         25    1    3    3    0    0  0.73053792397E+02 -0.65445027054E+02 -0.24212978469E+03  0.28964503946E+03  0.12509000000E+03 0.  0.
         25    1    4    4    0    0 -0.54814688978E+02  0.10612381573E+02 -0.43134055822E+03  0.45256983774E+03  0.12509000000E+03 0.  0.
<mgrwt>
<rscale>  2 0.44994335E+03</rscale>
<asrwt>0</asrwt>
<pdfrwt beam="1">  1       21 0.74320153E-02 0.44994335E+03</pdfrwt>
<pdfrwt beam="2">  1       21 0.14727576E+00 0.44994335E+03</pdfrwt>
<totfact> 0.38708935E+04</totfact>
</mgrwt>
</event>
<event>
 7    0  0.4831799E-002  0.4509947E+03  0.7546771E-02  0.1027426E+00
         21   -1    0    0  502  501  0.00000000000E+00  0.00000000000E+00  0.99521849578E+03  0.99521849578E+03  0.00000000000E+00 0. -1.
         21   -1    0    0  501  502 -0.00000000000E+00 -0.00000000000E+00 -0.51093361118E+02  0.51093361118E+02  0.00000000000E+00 0. -1.
      99926    2    1    2    0    0  0.35527136788E-14  0.00000000000E+00  0.94412513466E+03  0.10463118569E+04  0.45099471392E+03 0.  0.
      99925    2    3    3    0    0 -0.25474683119E+02  0.10256005167E+03  0.66223585360E+03  0.72031093887E+03  0.26291443319E+03 0.  0.
         25    1    4    4    0    0 -0.38915038010E+02  0.42403738250E+02  0.40409690138E+03  0.42691248635E+03  0.12509000000E+03 0.  0.
         25    1    3    3    0    0  0.25474683119E+02 -0.10256005167E+03  0.28188928106E+03  0.32600091803E+03  0.12509000000E+03 0.  0.
         25    1    4    4    0    0  0.13440354892E+02  0.60156313422E+02  0.25813895222E+03  0.29339845252E+03  0.12509000000E+03 0.  0.
<mgrwt>
<rscale>  2 0.45099471E+03</rscale>
<asrwt>0</asrwt>
<pdfrwt beam="1">  1       21 0.14635565E+00 0.45099471E+03</pdfrwt>
<pdfrwt beam="2">  1       21 0.75137302E-02 0.45099471E+03</pdfrwt>
<totfact> 0.38605910E+04</totfact>
</mgrwt>
</event>
<event>
 7    0  0.4831799E-002  0.4212473E+03  0.7546771E-02  0.1036661E+00
         21   -1    0    0  502  501  0.00000000000E+00  0.00000000000E+00  0.74633469121E+02  0.74633469121E+02  0.00000000000E+00 0. -1.
         21   -1    0    0  501  502 -0.00000000000E+00 -0.00000000000E+00 -0.59440261603E+03  0.59440261603E+03  0.00000000000E+00 0. -1.
      99926    2    1    2    0    0 -0.44408920985E-15  0.00000000000E+00 -0.51976914691E+03  0.66903608515E+03  0.42124733490E+03 0.  0.
      99925    2    3    3    0    0 -0.36453045978E+01 -0.63115695055E+02 -0.26482551343E+03  0.37810543438E+03  0.26236289321E+03 0.  0.
         25    1    3    3    0    0  0.36453045978E+01  0.63115695055E+02 -0.25494363348E+03  0.29093065077E+03  0.12509000000E+03 0.  0.
         25    1    4    4    0    0  0.65509227465E+01 -0.29422570057E+02 -0.18583427888E+03  0.22603205420E+03  0.12509000000E+03 0.  0.
         25    1    4    4    0    0 -0.10196227344E+02 -0.33693124998E+02 -0.78991234552E+02  0.15207338018E+03  0.12509000000E+03 0.  0.
<mgrwt>
<rscale>  2 0.42124733E+03</rscale>
<asrwt>0</asrwt>
<pdfrwt beam="1">  1       21 0.10975510E-01 0.42124733E+03</pdfrwt>
<pdfrwt beam="2">  1       21 0.87412148E-01 0.42124733E+03</pdfrwt>
<totfact> 0.71911877E+04</totfact>
</mgrwt>
</event>
<event>
 7    0  0.4831799E-002  0.4656161E+03  0.7546771E-02  0.1023165E+00
         21   -1    0    0  502  501  0.00000000000E+00  0.00000000000E+00  0.13287711265E+03  0.13287711265E+03  0.00000000000E+00 0. -1.
         21   -1    0    0  501  502 -0.00000000000E+00 -0.00000000000E+00 -0.40789257101E+03  0.40789257101E+03  0.00000000000E+00 0. -1.
      99926    2    1    2    0    0  0.00000000000E+00 -0.14210854715E-13 -0.27501545836E+03  0.54076968366E+03  0.46561609555E+03 0.  0.
      99925    2    3    3    0    0 -0.58793869082E+02  0.10721979265E+03 -0.15633356965E+03  0.32937975537E+03  0.26286505144E+03 0.  0.
         25    1    4    4    0    0  0.43228601225E+01  0.46621154931E+02 -0.99239278229E+02  0.16639760110E+03  0.12509000000E+03 0.  0.
         25    1    3    3    0    0  0.58793869082E+02 -0.10721979265E+03 -0.11868188871E+03  0.21138992830E+03  0.12509000000E+03 0.  0.
         25    1    4    4    0    0 -0.63116729204E+02  0.60598637715E+02 -0.57094291417E+02  0.16298215427E+03  0.12509000000E+03 0.  0.
<mgrwt>
<rscale>  2 0.46561610E+03</rscale>
<asrwt>0</asrwt>
<pdfrwt beam="1">  1       21 0.19540752E-01 0.46561610E+03</pdfrwt>
<pdfrwt beam="2">  1       21 0.59984201E-01 0.46561610E+03</pdfrwt>
<totfact> 0.57491877E+04</totfact>
</mgrwt>
</event>
<event>
 7    0  0.4831799E-002  0.4500855E+03  0.7546771E-02  0.1027697E+00
         21   -1    0    0  502  501  0.00000000000E+00  0.00000000000E+00  0.56716807083E+03  0.56716807083E+03  0.00000000000E+00 0.  1.
         21   -1    0    0  501  502 -0.00000000000E+00 -0.00000000000E+00 -0.89293165395E+02  0.89293165395E+02  0.00000000000E+00 0.  1.
      99926    2    1    2    0    0 -0.17763568394E-14  0.00000000000E+00  0.47787490543E+03  0.65646123623E+03  0.45008546902E+03 0.  0.
      99925    2    3    3    0    0 -0.85905833711E+01  0.72549067261E+02  0.41908024563E+03  0.50012350756E+03  0.26297928674E+03 0.  0.
         25    1    4    4    0    0 -0.20618568772E+02  0.32249031070E+02  0.14111972810E+03  0.19242507929E+03  0.12509000000E+03 0.  0.
         25    1    4    4    0    0  0.12027985401E+02  0.40300036191E+02  0.27796051753E+03  0.30769842826E+03  0.12509000000E+03 0.  0.
         25    1    3    3    0    0  0.85905833711E+01 -0.72549067261E+02  0.58794659806E+02  0.15633772867E+03  0.12509000000E+03 0.  0.
<mgrwt>
<rscale>  2 0.45008547E+03</rscale>
<asrwt>0</asrwt>
<pdfrwt beam="1">  1       21 0.83407068E-01 0.45008547E+03</pdfrwt>
<pdfrwt beam="2">  1       21 0.13131348E-01 0.45008547E+03</pdfrwt>
<totfact> 0.57528142E+04</totfact>
</mgrwt>
</event>
<event>
 7    0  0.4831799E-002  0.4259076E+03  0.7546771E-02  0.1035161E+00
         21   -1    0    0  502  501  0.00000000000E+00  0.00000000000E+00  0.24850306920E+03  0.24850306920E+03  0.00000000000E+00 0. -1.
         21   -1    0    0  501  502 -0.00000000000E+00 -0.00000000000E+00 -0.18248996851E+03  0.18248996851E+03  0.00000000000E+00 0. -1.
      99926    2    1    2    0    0  0.00000000000E+00  0.00000000000E+00  0.66013100692E+02  0.43099303771E+03  0.42590758280E+03 0.  0.
      99925    2    3    3    0    0  0.80406867156E+02 -0.12399854392E+02  0.26431667885E+02  0.27661292695E+03  0.26305333606E+03 0.  0.
         25    1    4    4    0    0  0.63672537349E+02 -0.18619399691E+02  0.45721956102E+02  0.14879139568E+03  0.12509000000E+03 0.  0.
         25    1    4    4    0    0  0.16734329807E+02  0.62195452985E+01 -0.19290288217E+02  0.12782153127E+03  0.12509000000E+03 0.  0.
         25    1    3    3    0    0 -0.80406867156E+02  0.12399854392E+02  0.39581432807E+02  0.15438011076E+03  0.12509000000E+03 0.  0.
<mgrwt>
<rscale>  2 0.42590758E+03</rscale>
<asrwt>0</asrwt>
<pdfrwt beam="1">  1       21 0.36544569E-01 0.42590758E+03</pdfrwt>
<pdfrwt beam="2">  1       21 0.26836760E-01 0.42590758E+03</pdfrwt>
<totfact> 0.89343892E+04</totfact>
</mgrwt>
</event>
<event>
 7    0  0.4831799E-002  0.4581184E+03  0.7546771E-02  0.1025328E+00
         21   -1    0    0  502  501  0.00000000000E+00  0.00000000000E+00  0.15262751927E+03  0.15262751927E+03  0.00000000000E+00 0. -1.
         21   -1    0    0  501  502 -0.00000000000E+00 -0.00000000000E+00 -0.34376584380E+03  0.34376584380E+03  0.00000000000E+00 0. -1.
      99926    2    1    2    0    0  0.00000000000E+00  0.00000000000E+00 -0.19113832453E+03  0.49639336307E+03  0.45811844734E+03 0.  0.
      99925    2    3    3    0    0 -0.82124917931E+02 -0.32652164669E+02 -0.20128096850E+03  0.34289728061E+03  0.26316126381E+03 0.  0.
         25    1    4    4    0    0 -0.22100493100E+02 -0.16752140630E+02 -0.51442358190E+02  0.13806842625E+03  0.12509000000E+03 0.  0.
         25    1    3    3    0    0  0.82124917931E+02  0.32652164669E+02  0.10142643965E+02  0.15349608246E+03  0.12509000000E+03 0.  0.
         25    1    4    4    0    0 -0.60024424831E+02 -0.15900024039E+02 -0.14983861031E+03  0.20482885436E+03  0.12509000000E+03 0.  0.
<mgrwt>
<rscale>  2 0.45811845E+03</rscale>
<asrwt>0</asrwt>
<pdfrwt beam="1">  1       21 0.22445224E-01 0.45811845E+03</pdfrwt>
<pdfrwt beam="2">  1       21 0.50553800E-01 0.45811845E+03</pdfrwt>
<totfact> 0.63927480E+04</totfact>
</mgrwt>
</event>
<event>
 7    0  0.4831799E-002  0.4569376E+03  0.7546771E-02  0.1025673E+00
         21   -1    0    0  502  501  0.00000000000E+00  0.00000000000E+00  0.14152297817E+04  0.14152297817E+04  0.00000000000E+00 0. -1.
         21   -1    0    0  501  502 -0.00000000000E+00 -0.00000000000E+00 -0.36883044267E+02  0.36883044267E+02  0.00000000000E+00 0. -1.
      99926    2    1    2    0    0  0.00000000000E+00  0.00000000000E+00  0.13783467374E+04  0.14521128260E+04  0.45693755673E+03 0.  0.
      99925    2    3    3    0    0  0.33281397632E+02 -0.58810553030E+02  0.56997379896E+03  0.63133231430E+03  0.26295251853E+03 0.  0.
         25    1    3    3    0    0 -0.33281397632E+02  0.58810553030E+02  0.80837293848E+03  0.82078051167E+03  0.12509000000E+03 0.  0.
         25    1    4    4    0    0 -0.95271794911E+01  0.22744630660E+01  0.28054050088E+03  0.30732136448E+03  0.12509000000E+03 0.  0.
         25    1    4    4    0    0  0.42808577123E+02 -0.61085016096E+02  0.28943329807E+03  0.32401094981E+03  0.12509000000E+03 0.  0.
<mgrwt>
<rscale>  2 0.45693756E+03</rscale>
<asrwt>0</asrwt>
<pdfrwt beam="1">  1       21 0.20812199E+00 0.45693756E+03</pdfrwt>
<pdfrwt beam="2">  1       21 0.54239780E-02 0.45693756E+03</pdfrwt>
<totfact> 0.24603281E+04</totfact>
</mgrwt>
</event>
<event>
 7    0  0.4831799E-002  0.4497866E+03  0.7546771E-02  0.1027786E+00
         21   -1    0    0  502  501  0.00000000000E+00  0.00000000000E+00  0.51875157909E+03  0.51875157909E+03  0.00000000000E+00 0. -1.
         21   -1    0    0  501  502 -0.00000000000E+00 -0.00000000000E+00 -0.97497520983E+02  0.97497520983E+02  0.00000000000E+00 0. -1.
      99926    2    1    2    0    0  0.17763568394E-14  0.17763568394E-14  0.42125405810E+03  0.61624910007E+03  0.44978658480E+03 0.  0.
      99925    2    3    3    0    0 -0.70830949765E+01  0.65550100624E+01  0.41393191046E+03  0.49057388240E+03  0.26311588550E+03 0.  0.
         25    1    3    3    0    0  0.70830949765E+01 -0.65550100624E+01  0.73221476459E+01  0.12567521767E+03  0.12509000000E+03 0.  0.
         25    1    4    4    0    0  0.15678557118E+02 -0.21783098551E+02  0.25317835715E+03  0.28366725078E+03  0.12509000000E+03 0.  0.
         25    1    4    4    0    0 -0.22761652094E+02  0.28338108614E+02  0.16075355331E+03  0.20690663162E+03  0.12509000000E+03 0.  0.
<mgrwt>
<rscale>  2 0.44978658E+03</rscale>
<asrwt>0</asrwt>
<pdfrwt beam="1">  1       21 0.76286996E-01 0.44978658E+03</pdfrwt>
<pdfrwt beam="2">  1       21 0.14337871E-01 0.44978658E+03</pdfrwt>
<totfact> 0.60126594E+04</totfact>
</mgrwt>
</event>
<event>
 7    0  0.4831799E-002  0.4527789E+03  0.7546771E-02  0.1026897E+00
         21   -1    0    0  502  501  0.00000000000E+00  0.00000000000E+00  0.61145724646E+03  0.61145724646E+03  0.00000000000E+00 0.  1.
         21   -1    0    0  501  502 -0.00000000000E+00 -0.00000000000E+00 -0.83819726731E+02  0.83819726731E+02  0.00000000000E+00 0.  1.
      99926    2    1    2    0    0  0.00000000000E+00  0.00000000000E+00  0.52763751973E+03  0.69527697320E+03  0.45277888337E+03 0.  0.
      99925    2    3    3    0    0  0.50422147042E+02  0.33678685263E+02  0.18971704226E+03  0.32988074449E+03  0.26296787391E+03 0.  0.
         25    1    3    3    0    0 -0.50422147042E+02 -0.33678685263E+02  0.33792047748E+03  0.36539622871E+03  0.12509000000E+03 0.  0.
         25    1    4    4    0    0  0.30322356232E+02  0.33264631649E+02  0.51997506302E+02  0.14274883456E+03  0.12509000000E+03 0.  0.
         25    1    4    4    0    0  0.20099790810E+02  0.41405361344E+00  0.13771953595E+03  0.18713190993E+03  0.12509000000E+03 0.  0.
<mgrwt>
<rscale>  2 0.45277888E+03</rscale>
<asrwt>0</asrwt>
<pdfrwt beam="1">  1       21 0.89920181E-01 0.45277888E+03</pdfrwt>
<pdfrwt beam="2">  1       21 0.12326431E-01 0.45277888E+03</pdfrwt>
<totfact> 0.54099747E+04</totfact>
</mgrwt>
</event>
<event>
 7    0  0.4831799E-002  0.4461344E+03  0.7546771E-02  0.1028881E+00
         21   -1    0    0  502  501  0.00000000000E+00  0.00000000000E+00  0.32959450747E+03  0.32959450747E+03  0.00000000000E+00 0. -1.
         21   -1    0    0  501  502 -0.00000000000E+00 -0.00000000000E+00 -0.15097027139E+03  0.15097027139E+03  0.00000000000E+00 0. -1.
      99926    2    1    2    0    0  0.00000000000E+00  0.00000000000E+00  0.17862423609E+03  0.48056477886E+03  0.44613438442E+03 0.  0.
      99925    2    3    3    0    0  0.38705009783E+02 -0.39029942543E+02  0.17298540213E+02  0.26915308938E+03  0.26291202299E+03 0.  0.
         25    1    4    4    0    0  0.44279708494E+02 -0.26541072496E+02 -0.22482975639E+02  0.13717912891E+03  0.12509000000E+03 0.  0.
         25    1    3    3    0    0 -0.38705009783E+02  0.39029942543E+02  0.16132569587E+03  0.21141168947E+03  0.12509000000E+03 0.  0.
         25    1    4    4    0    0 -0.55746987110E+01 -0.12488870047E+02  0.39781515852E+02  0.13197396048E+03  0.12509000000E+03 0.  0.
<mgrwt>
<rscale>  2 0.44613438E+03</rscale>
<asrwt>0</asrwt>
<pdfrwt beam="1">  1       21 0.48469781E-01 0.44613438E+03</pdfrwt>
<pdfrwt beam="2">  1       21 0.22201510E-01 0.44613438E+03</pdfrwt>
<totfact> 0.71564559E+04</totfact>
</mgrwt>
</event>
<event>
 7    0  0.4831799E-002  0.4431757E+03  0.7546771E-02  0.1029777E+00
         21   -1    0    0  502  501  0.00000000000E+00  0.00000000000E+00  0.77479378898E+03  0.77479378898E+03  0.00000000000E+00 0.  1.
         21   -1    0    0  501  502 -0.00000000000E+00 -0.00000000000E+00 -0.63373218187E+02  0.63373218187E+02  0.00000000000E+00 0.  1.
      99926    2    1    2    0    0  0.00000000000E+00 -0.17763568394E-14  0.71142057080E+03  0.83816700717E+03  0.44317570258E+03 0.  0.
      99925    2    3    3    0    0 -0.74240441996E+01 -0.91205172224E+01  0.26196365352E+03  0.37147939340E+03  0.26312294405E+03 0.  0.
         25    1    4    4    0    0  0.13487768098E+02 -0.40634538594E+02  0.12043151222E+03  0.17884166978E+03  0.12509000000E+03 0.  0.
         25    1    4    4    0    0 -0.20911812298E+02  0.31514021372E+02  0.14153214130E+03  0.19263772361E+03  0.12509000000E+03 0.  0.
         25    1    3    3    0    0  0.74240441996E+01  0.91205172224E+01  0.44945691727E+03  0.46668761377E+03  0.12509000000E+03 0.  0.
<mgrwt>
<rscale>  2 0.44317570E+03</rscale>
<asrwt>0</asrwt>
<pdfrwt beam="1">  1       21 0.11394026E+00 0.44317570E+03</pdfrwt>
<pdfrwt beam="2">  1       21 0.93195913E-02 0.44317570E+03</pdfrwt>
<totfact> 0.50497416E+04</totfact>
</mgrwt>
</event>
<event>
 7    0  0.4831799E-002  0.4551971E+03  0.7546771E-02  0.1026183E+00
         21   -1    0    0  502  501  0.00000000000E+00  0.00000000000E+00  0.35631666723E+02  0.35631666723E+02  0.00000000000E+00 0. -1.
         21   -1    0    0  501  502 -0.00000000000E+00 -0.00000000000E+00 -0.14537940755E+04  0.14537940755E+04  0.00000000000E+00 0. -1.
      99926    2    1    2    0    0  0.00000000000E+00  0.00000000000E+00 -0.14181624088E+04  0.14894257422E+04  0.45519712645E+03 0.  0.
      99925    2    3    3    0    0  0.10303861748E+03 -0.93485750939E+01 -0.10435619227E+04  0.10811643250E+04  0.26304079252E+03 0.  0.
         25    1    4    4    0    0  0.17380294718E+02 -0.14447788698E+02 -0.38846879351E+03  0.40873747672E+03  0.12509000000E+03 0.  0.
         25    1    4    4    0    0  0.85658322765E+02  0.50992136045E+01 -0.65509312917E+03  0.67242684823E+03  0.12509000000E+03 0.  0.
         25    1    3    3    0    0 -0.10303861748E+03  0.93485750939E+01 -0.37460048610E+03  0.40826141728E+03  0.12509000000E+03 0.  0.
<mgrwt>
<rscale>  2 0.45519713E+03</rscale>
<asrwt>0</asrwt>
<pdfrwt beam="1">  1       21 0.52399527E-02 0.45519713E+03</pdfrwt>
<pdfrwt beam="2">  1       21 0.21379318E+00 0.45519713E+03</pdfrwt>
<totfact> 0.24002714E+04</totfact>
</mgrwt>
</event>
<event>
 7    0  0.4831799E-002  0.4547182E+03  0.7546771E-02  0.1026324E+00
         21   -1    0    0  502  501  0.00000000000E+00  0.00000000000E+00  0.49770063469E+03  0.49770063469E+03  0.00000000000E+00 0. -1.
         21   -1    0    0  501  502 -0.00000000000E+00 -0.00000000000E+00 -0.10386194622E+03  0.10386194622E+03  0.00000000000E+00 0. -1.
      99926    2    1    2    0    0 -0.14210854715E-13 -0.17763568394E-14  0.39383868847E+03  0.60156258091E+03  0.45471818330E+03 0.  0.
      99925    2    3    3    0    0  0.11101156631E+03 -0.68762258250E+01  0.27670087611E+03  0.39725980188E+03  0.26245213852E+03 0.  0.
         25    1    4    4    0    0  0.83354992302E+02 -0.30319622761E+02  0.12947148574E+03  0.20069306910E+03  0.12509000000E+03 0.  0.
         25    1    3    3    0    0 -0.11101156631E+03  0.68762258250E+01  0.11713781236E+03  0.20430277903E+03  0.12509000000E+03 0.  0.
         25    1    4    4    0    0  0.27656574011E+02  0.23443396936E+02  0.14722939037E+03  0.19656673277E+03  0.12509000000E+03 0.  0.
<mgrwt>
<rscale>  2 0.45471818E+03</rscale>
<asrwt>0</asrwt>
<pdfrwt beam="1">  1       21 0.73191269E-01 0.45471818E+03</pdfrwt>
<pdfrwt beam="2">  1       21 0.15273816E-01 0.45471818E+03</pdfrwt>
<totfact> 0.58712811E+04</totfact>
</mgrwt>
</event>
<event>
 7    0  0.4831799E-002  0.4144663E+03  0.7546771E-02  0.1038883E+00
         21   -1    0    0  502  501  0.00000000000E+00  0.00000000000E+00  0.18242224073E+04  0.18242224073E+04  0.00000000000E+00 0. -1.
         21   -1    0    0  501  502 -0.00000000000E+00 -0.00000000000E+00 -0.23541849491E+02  0.23541849491E+02  0.00000000000E+00 0. -1.
      99926    2    1    2    0    0  0.71054273576E-14  0.00000000000E+00  0.18006805578E+04  0.18477642568E+04  0.41446625604E+03 0.  0.
      99925    2    3    3    0    0 -0.35111783873E+02  0.81469473609E+01  0.14415873890E+04  0.14658027115E+04  0.26287673671E+03 0.  0.
         25    1    4    4    0    0  0.18881951194E+02  0.16032207377E+02  0.77022314964E+03  0.78070786348E+03  0.12509000000E+03 0.  0.
         25    1    3    3    0    0  0.35111783873E+02 -0.81469473609E+01  0.35909316877E+03  0.38196154528E+03  0.12509000000E+03 0.  0.
         25    1    4    4    0    0 -0.53993735067E+02 -0.78852600162E+01  0.67136423936E+03  0.68509484799E+03  0.12509000000E+03 0.  0.
<mgrwt>
<rscale>  2 0.41446626E+03</rscale>
<asrwt>0</asrwt>
<pdfrwt beam="1">  1       21 0.26826790E+00 0.41446626E+03</pdfrwt>
<pdfrwt beam="2">  1       21 0.34620379E-02 0.41446626E+03</pdfrwt>
<totfact> 0.22705245E+04</totfact>
</mgrwt>
</event>
<event>
 7    0  0.4831799E-002  0.4537525E+03  0.7546771E-02  0.1026609E+00
         21   -1    0    0  502  501  0.00000000000E+00  0.00000000000E+00  0.37136578501E+03  0.37136578501E+03  0.00000000000E+00 0. -1.
         21   -1    0    0  501  502 -0.00000000000E+00 -0.00000000000E+00 -0.13860410378E+03  0.13860410378E+03  0.00000000000E+00 0. -1.
      99926    2    1    2    0    0  0.00000000000E+00  0.17763568394E-14  0.23276168123E+03  0.50996988879E+03  0.45375245148E+03 0.  0.
      99925    2    3    3    0    0 -0.96099217632E+02 -0.15003989979E+02  0.20804434018E+03  0.34959958483E+03  0.26358536167E+03 0.  0.
         25    1    4    4    0    0 -0.52194622978E+02 -0.48655740865E+02  0.10059558700E+03  0.17566627454E+03  0.12509000000E+03 0.  0.
         25    1    3    3    0    0  0.96099217632E+02  0.15003989979E+02  0.24717341057E+02  0.16037030396E+03  0.12509000000E+03 0.  0.
         25    1    4    4    0    0 -0.43904594654E+02  0.33651750885E+02  0.10744875317E+03  0.17393331029E+03  0.12509000000E+03 0.  0.
<mgrwt>
<rscale>  2 0.45375245E+03</rscale>
<asrwt>0</asrwt>
<pdfrwt beam="1">  1       21 0.54612615E-01 0.45375245E+03</pdfrwt>
<pdfrwt beam="2">  1       21 0.20382957E-01 0.45375245E+03</pdfrwt>
<totfact> 0.65219096E+04</totfact>
</mgrwt>
</event>
<event>
 7    0  0.4831799E-002  0.4554570E+03  0.7546771E-02  0.1026107E+00
         21   -1    0    0  502  501  0.00000000000E+00  0.00000000000E+00  0.24540706220E+03  0.24540706220E+03  0.00000000000E+00 0.  1.
         21   -1    0    0  501  502 -0.00000000000E+00 -0.00000000000E+00 -0.21132341856E+03  0.21132341856E+03  0.00000000000E+00 0.  1.
      99926    2    1    2    0    0  0.00000000000E+00  0.00000000000E+00  0.34083643639E+02  0.45673048076E+03  0.45545695437E+03 0.  0.
      99925    2    3    3    0    0  0.10384436878E+02 -0.76705735864E+02 -0.62110399002E+02  0.28096811737E+03  0.26285694754E+03 0.  0.
         25    1    3    3    0    0 -0.10384436878E+02  0.76705735864E+02  0.96194042641E+02  0.17576236339E+03  0.12509000000E+03 0.  0.
         25    1    4    4    0    0 -0.22168263481E+02 -0.67017706870E+02 -0.22157704855E+02  0.14533161020E+03  0.12509000000E+03 0.  0.
         25    1    4    4    0    0  0.32552700359E+02 -0.96880289944E+01 -0.39952694147E+02  0.13563650717E+03  0.12509000000E+03 0.  0.
<mgrwt>
<rscale>  2 0.45545695E+03</rscale>
<asrwt>0</asrwt>
<pdfrwt beam="1">  1       21 0.36089274E-01 0.45545695E+03</pdfrwt>
<pdfrwt beam="2">  1       21 0.31076973E-01 0.45545695E+03</pdfrwt>
<totfact> 0.68170357E+04</totfact>
</mgrwt>
</event>
<event>
 7    0  0.4831799E-002  0.4558241E+03  0.7546771E-02  0.1025999E+00
         21   -1    0    0  502  501  0.00000000000E+00  0.00000000000E+00  0.81365704899E+03  0.81365704899E+03  0.00000000000E+00 0.  1.
         21   -1    0    0  501  502 -0.00000000000E+00 -0.00000000000E+00 -0.63840048910E+02  0.63840048910E+02  0.00000000000E+00 0.  1.
      99926    2    1    2    0    0 -0.71054273576E-14 -0.14210854715E-13  0.74981700008E+03  0.87749709790E+03  0.45582411434E+03 0.  0.
      99925    2    3    3    0    0 -0.56979118439E+02 -0.98615359954E+02  0.45950139256E+03  0.54148776882E+03  0.26286092304E+03 0.  0.
         25    1    3    3    0    0  0.56979118439E+02  0.98615359954E+02  0.29031560752E+03  0.33600932907E+03  0.12509000000E+03 0.  0.
         25    1    4    4    0    0 -0.68856754866E+02 -0.48256913453E+02  0.25601957887E+03  0.29709176234E+03  0.12509000000E+03 0.  0.
         25    1    4    4    0    0  0.11877636427E+02 -0.50358446501E+02  0.20348181369E+03  0.24439600648E+03  0.12509000000E+03 0.  0.
<mgrwt>
<rscale>  2 0.45582411E+03</rscale>
<asrwt>0</asrwt>
<pdfrwt beam="1">  1       21 0.11965544E+00 0.45582411E+03</pdfrwt>
<pdfrwt beam="2">  1       21 0.93882430E-02 0.45582411E+03</pdfrwt>
<totfact> 0.43936688E+04</totfact>
</mgrwt>
</event>
<event>
 7    0  0.4831799E-002  0.4551841E+03  0.7546771E-02  0.1026187E+00
         21   -1    0    0  502  501  0.00000000000E+00  0.00000000000E+00  0.12952705050E+03  0.12952705050E+03  0.00000000000E+00 0.  1.
         21   -1    0    0  501  502 -0.00000000000E+00 -0.00000000000E+00 -0.39990211650E+03  0.39990211650E+03  0.00000000000E+00 0.  1.
      99926    2    1    2    0    0 -0.35527136788E-14  0.00000000000E+00 -0.27037506600E+03  0.52942916700E+03  0.45518410183E+03 0.  0.
      99925    2    3    3    0    0  0.23189615168E+02 -0.98559220103E+02 -0.22947861858E+03  0.36338186762E+03  0.26293395979E+03 0.  0.
         25    1    3    3    0    0 -0.23189615168E+02  0.98559220103E+02 -0.40896447418E+02  0.16604729938E+03  0.12509000000E+03 0.  0.
         25    1    4    4    0    0  0.82949384523E+01 -0.82019777392E+02 -0.90257257085E+02  0.17489977257E+03  0.12509000000E+03 0.  0.
         25    1    4    4    0    0  0.14894676716E+02 -0.16539442711E+02 -0.13922136150E+03  0.18848209506E+03  0.12509000000E+03 0.  0.
<mgrwt>
<rscale>  2 0.45518410E+03</rscale>
<asrwt>0</asrwt>
<pdfrwt beam="1">  1       21 0.19048096E-01 0.45518410E+03</pdfrwt>
<pdfrwt beam="2">  1       21 0.58809135E-01 0.45518410E+03</pdfrwt>
<totfact> 0.63152990E+04</totfact>
</mgrwt>
</event>
<event>
 7    0  0.4831799E-002  0.4493761E+03  0.7546771E-02  0.1027908E+00
         21   -1    0    0  502  501  0.00000000000E+00  0.00000000000E+00  0.16394313484E+03  0.16394313484E+03  0.00000000000E+00 0.  1.
         21   -1    0    0  501  502 -0.00000000000E+00 -0.00000000000E+00 -0.30794043587E+03  0.30794043587E+03  0.00000000000E+00 0.  1.
      99926    2    1    2    0    0  0.00000000000E+00  0.00000000000E+00 -0.14399730104E+03  0.47188357071E+03  0.44937610261E+03 0.  0.
      99925    2    3    3    0    0 -0.50157847051E+02  0.34836005306E+02 -0.18436338033E+03  0.32694811837E+03  0.26301304001E+03 0.  0.
         25    1    4    4    0    0 -0.63340298210E+02  0.30973270458E+02 -0.87588677549E+02  0.16819816109E+03  0.12509000000E+03 0.  0.
         25    1    4    4    0    0  0.13182451159E+02  0.38627348482E+01 -0.96774702777E+02  0.15874995728E+03  0.12509000000E+03 0.  0.
         25    1    3    3    0    0  0.50157847051E+02 -0.34836005306E+02  0.40366079288E+02  0.14493545234E+03  0.12509000000E+03 0.  0.
<mgrwt>
<rscale>  2 0.44937610E+03</rscale>
<asrwt>0</asrwt>
<pdfrwt beam="1">  1       21 0.24109285E-01 0.44937610E+03</pdfrwt>
<pdfrwt beam="2">  1       21 0.45285358E-01 0.44937610E+03</pdfrwt>
<totfact> 0.70385101E+04</totfact>
</mgrwt>
</event>
<event>
 7    0  0.4831799E-002  0.4549889E+03  0.7546771E-02  0.1026245E+00
         21   -1    0    0  502  501  0.00000000000E+00  0.00000000000E+00  0.62474839486E+02  0.62474839486E+02  0.00000000000E+00 0. -1.
         21   -1    0    0  501  502 -0.00000000000E+00 -0.00000000000E+00 -0.82839294177E+03  0.82839294177E+03  0.00000000000E+00 0. -1.
      99926    2    1    2    0    0 -0.14210854715E-13  0.00000000000E+00 -0.76591810229E+03  0.89086778126E+03  0.45498886170E+03 0.  0.
      99925    2    3    3    0    0  0.98214911678E+02 -0.27916058460E+02 -0.38686399089E+03  0.47885442873E+03  0.26308238495E+03 0.  0.
         25    1    4    4    0    0  0.63937007686E+01 -0.19835974271E+02 -0.17516634788E+03  0.21625240534E+03  0.12509000000E+03 0.  0.
         25    1    4    4    0    0  0.91821210910E+02 -0.80800841887E+01 -0.21169764301E+03  0.26260202339E+03  0.12509000000E+03 0.  0.
         25    1    3    3    0    0 -0.98214911678E+02  0.27916058460E+02 -0.37905411140E+03  0.41201335253E+03  0.12509000000E+03 0.  0.
<mgrwt>
<rscale>  2 0.45498886E+03</rscale>
<asrwt>0</asrwt>
<pdfrwt beam="1">  1       21 0.91874764E-02 0.45498886E+03</pdfrwt>
<pdfrwt beam="2">  1       21 0.12182249E+00 0.45498886E+03</pdfrwt>
<totfact> 0.43634694E+04</totfact>
</mgrwt>
</event>
<event>
 7    0  0.4831799E-002  0.4519933E+03  0.7546771E-02  0.1027129E+00
         21   -1    0    0  502  501  0.00000000000E+00  0.00000000000E+00  0.11135714179E+03  0.11135714179E+03  0.00000000000E+00 0. -1.
         21   -1    0    0  501  502 -0.00000000000E+00 -0.00000000000E+00 -0.45865485337E+03  0.45865485337E+03  0.00000000000E+00 0. -1.
      99926    2    1    2    0    0  0.00000000000E+00  0.00000000000E+00 -0.34729771158E+03  0.57001199517E+03  0.45199333420E+03 0.  0.
      99925    2    3    3    0    0  0.10100529236E+03 -0.39022369785E+02 -0.19262898617E+03  0.34352858043E+03  0.26302308802E+03 0.  0.
         25    1    4    4    0    0  0.13673979962E+02  0.38053852796E+01 -0.80987816666E+02  0.14969299661E+03  0.12509000000E+03 0.  0.
         25    1    3    3    0    0 -0.10100529236E+03  0.39022369785E+02 -0.15466872541E+03  0.22648341473E+03  0.12509000000E+03 0.  0.
         25    1    4    4    0    0  0.87331312394E+02 -0.42827755065E+02 -0.11164116950E+03  0.19383558382E+03  0.12509000000E+03 0.  0.
<mgrwt>
<rscale>  2 0.45199333E+03</rscale>
<asrwt>0</asrwt>
<pdfrwt beam="1">  1       21 0.16376050E-01 0.45199333E+03</pdfrwt>
<pdfrwt beam="2">  1       21 0.67449243E-01 0.45199333E+03</pdfrwt>
<totfact> 0.62024749E+04</totfact>
</mgrwt>
</event>
<event>
 7    0  0.4831799E-002  0.4606414E+03  0.7546771E-02  0.1024595E+00
         21   -1    0    0  502  501  0.00000000000E+00  0.00000000000E+00  0.58219176735E+03  0.58219176735E+03  0.00000000000E+00 0.  1.
         21   -1    0    0  501  502 -0.00000000000E+00 -0.00000000000E+00 -0.91117102485E+02  0.91117102485E+02  0.00000000000E+00 0.  1.
      99926    2    1    2    0    0  0.00000000000E+00  0.00000000000E+00  0.49107466486E+03  0.67330886983E+03  0.46064140904E+03 0.  0.
      99925    2    3    3    0    0 -0.21724491858E+02 -0.10097782568E+03  0.22388594998E+03  0.36072961222E+03  0.26331057653E+03 0.  0.
         25    1    4    4    0    0 -0.22483161649E+02 -0.86461258640E+02  0.14972487720E+03  0.21458352396E+03  0.12509000000E+03 0.  0.
         25    1    4    4    0    0  0.75866979109E+00 -0.14516567044E+02  0.74161072784E+02  0.14614608826E+03  0.12509000000E+03 0.  0.
         25    1    3    3    0    0  0.21724491858E+02  0.10097782568E+03  0.26718871488E+03  0.31257925761E+03  0.12509000000E+03 0.  0.
<mgrwt>
<rscale>  2 0.46064141E+03</rscale>
<asrwt>0</asrwt>
<pdfrwt beam="1">  1       21 0.85616434E-01 0.46064141E+03</pdfrwt>
<pdfrwt beam="2">  1       21 0.13399574E-01 0.46064141E+03</pdfrwt>
<totfact> 0.52024153E+04</totfact>
</mgrwt>
</event>
<event>
 7    0  0.4831799E-002  0.4270038E+03  0.7546771E-02  0.1034811E+00
         21   -1    0    0  502  501  0.00000000000E+00  0.00000000000E+00  0.15265534698E+03  0.15265534698E+03  0.00000000000E+00 0. -1.
         21   -1    0    0  501  502 -0.00000000000E+00 -0.00000000000E+00 -0.29860119564E+03  0.29860119564E+03  0.00000000000E+00 0. -1.
      99926    2    1    2    0    0 -0.71054273576E-14  0.00000000000E+00 -0.14594584866E+03  0.45125654263E+03  0.42700383666E+03 0.  0.
      99925    2    3    3    0    0  0.32374064473E+02  0.50754805196E+02 -0.15646883013E+03  0.31203595672E+03  0.26317259200E+03 0.  0.
         25    1    4    4    0    0  0.53288615569E+02  0.31402823084E+02 -0.10100831394E+03  0.17226723842E+03  0.12509000000E+03 0.  0.
         25    1    3    3    0    0 -0.32374064473E+02 -0.50754805196E+02  0.10522981472E+02  0.13922058591E+03  0.12509000000E+03 0.  0.
         25    1    4    4    0    0 -0.20914551096E+02  0.19351982113E+02 -0.55460516192E+02  0.13976871830E+03  0.12509000000E+03 0.  0.
<mgrwt>
<rscale>  2 0.42700384E+03</rscale>
<asrwt>0</asrwt>
<pdfrwt beam="1">  1       21 0.22449316E-01 0.42700384E+03</pdfrwt>
<pdfrwt beam="2">  1       21 0.43911940E-01 0.42700384E+03</pdfrwt>
<totfact> 0.86538484E+04</totfact>
</mgrwt>
</event>
<event>
 7    0  0.4831799E-002  0.4594600E+03  0.7546771E-02  0.1024938E+00
         21   -1    0    0  502  501  0.00000000000E+00  0.00000000000E+00  0.40661776620E+03  0.40661776620E+03  0.00000000000E+00 0. -1.
         21   -1    0    0  501  502 -0.00000000000E+00 -0.00000000000E+00 -0.12979234657E+03  0.12979234657E+03  0.00000000000E+00 0. -1.
      99926    2    1    2    0    0 -0.14210854715E-13  0.00000000000E+00  0.27682541963E+03  0.53641011276E+03  0.45946000492E+03 0.  0.
      99925    2    3    3    0    0 -0.94640124112E+02  0.66721441945E+02  0.15143019827E+03  0.32479732121E+03  0.26297089385E+03 0.  0.
         25    1    4    4    0    0 -0.13697805732E+02  0.65337218018E+01  0.55861204160E+02  0.13783432676E+03  0.12509000000E+03 0.  0.
         25    1    4    4    0    0 -0.80942318381E+02  0.60187720143E+02  0.95568994112E+02  0.18696299446E+03  0.12509000000E+03 0.  0.
         25    1    3    3    0    0  0.94640124112E+02 -0.66721441945E+02  0.12539522136E+03  0.21161279155E+03  0.12509000000E+03 0.  0.
<mgrwt>
<rscale>  2 0.45946000E+03</rscale>
<asrwt>0</asrwt>
<pdfrwt beam="1">  1       21 0.59796730E-01 0.45946000E+03</pdfrwt>
<pdfrwt beam="2">  1       21 0.19087110E-01 0.45946000E+03</pdfrwt>
<totfact> 0.60603995E+04</totfact>
</mgrwt>
</event>
<event>
 7    0  0.4831799E-002  0.4658408E+03  0.7546771E-02  0.1023101E+00
         21   -1    0    0  502  501  0.00000000000E+00  0.00000000000E+00  0.17795257563E+03  0.17795257563E+03  0.00000000000E+00 0.  1.
         21   -1    0    0  501  502 -0.00000000000E+00 -0.00000000000E+00 -0.30486723113E+03  0.30486723113E+03  0.00000000000E+00 0.  1.
      99926    2    1    2    0    0 -0.35527136788E-14  0.00000000000E+00 -0.12691465550E+03  0.48281980676E+03  0.46584078398E+03 0.  0.
      99925    2    3    3    0    0 -0.18494190478E+02  0.69138188098E+02 -0.18286628890E+03  0.32822285493E+03  0.26299817251E+03 0.  0.
         25    1    3    3    0    0  0.18494190478E+02 -0.69138188098E+02  0.55951633404E+02  0.15459695183E+03  0.12509000000E+03 0.  0.
         25    1    4    4    0    0 -0.40732751418E+02  0.28499173290E+02 -0.61929530161E+02  0.14816927726E+03  0.12509000000E+03 0.  0.
         25    1    4    4    0    0  0.22238560940E+02  0.40639014808E+02 -0.12093675874E+03  0.18005357767E+03  0.12509000000E+03 0.  0.
<mgrwt>
<rscale>  2 0.46584078E+03</rscale>
<asrwt>0</asrwt>
<pdfrwt beam="1">  1       21 0.26169496E-01 0.46584078E+03</pdfrwt>
<pdfrwt beam="2">  1       21 0.44833416E-01 0.46584078E+03</pdfrwt>
<totfact> 0.61069684E+04</totfact>
</mgrwt>
</event>
<event>
 7    0  0.4831799E-002  0.4588376E+03  0.7546771E-02  0.1025119E+00
         21   -1    0    0  502  501  0.00000000000E+00  0.00000000000E+00  0.45161792690E+03  0.45161792690E+03  0.00000000000E+00 0. -1.
         21   -1    0    0  501  502 -0.00000000000E+00 -0.00000000000E+00 -0.11654318841E+03  0.11654318841E+03  0.00000000000E+00 0. -1.
      99926    2    1    2    0    0  0.00000000000E+00  0.00000000000E+00  0.33507473849E+03  0.56816111530E+03  0.45883763204E+03 0.  0.
      99925    2    3    3    0    0 -0.36374869614E+02  0.10485951462E+03  0.16541426211E+03  0.32993677925E+03  0.26301663682E+03 0.  0.
         25    1    4    4    0    0 -0.37635643966E+02  0.27562781002E+02  0.10931108145E+03  0.17254729561E+03  0.12509000000E+03 0.  0.
         25    1    4    4    0    0  0.12607743522E+01  0.77296733619E+02  0.56103180659E+02  0.15738948364E+03  0.12509000000E+03 0.  0.
         25    1    3    3    0    0  0.36374869614E+02 -0.10485951462E+03  0.16966047637E+03  0.23822433606E+03  0.12509000000E+03 0.  0.
<mgrwt>
<rscale>  2 0.45883763E+03</rscale>
<asrwt>0</asrwt>
<pdfrwt beam="1">  1       21 0.66414400E-01 0.45883763E+03</pdfrwt>
<pdfrwt beam="2">  1       21 0.17138704E-01 0.45883763E+03</pdfrwt>
<totfact> 0.58874875E+04</totfact>
</mgrwt>
</event>
<event>
 7    0  0.4831799E-002  0.4546510E+03  0.7546771E-02  0.1026344E+00
         21   -1    0    0  502  501  0.00000000000E+00  0.00000000000E+00  0.92759879043E+03  0.92759879043E+03  0.00000000000E+00 0.  1.
         21   -1    0    0  501  502 -0.00000000000E+00 -0.00000000000E+00 -0.55710371447E+02  0.55710371447E+02  0.00000000000E+00 0.  1.
      99926    2    1    2    0    0  0.00000000000E+00  0.00000000000E+00  0.87188841898E+03  0.98330916187E+03  0.45465095697E+03 0.  0.
      99925    2    3    3    0    0  0.49710875610E+02  0.87630366397E+02  0.43876685865E+03  0.52136539214E+03  0.26297388389E+03 0.  0.
         25    1    4    4    0    0  0.34820170869E+02  0.27950565694E+02  0.14766993378E+03  0.19861418848E+03  0.12509000000E+03 0.  0.
         25    1    3    3    0    0 -0.49710875610E+02 -0.87630366397E+02  0.43312156033E+03  0.46194376973E+03  0.12509000000E+03 0.  0.
         25    1    4    4    0    0  0.14890704741E+02  0.59679800703E+02  0.29109692487E+03  0.32275120366E+03  0.12509000000E+03 0.  0.
<mgrwt>
<rscale>  2 0.45465096E+03</rscale>
<asrwt>0</asrwt>
<pdfrwt beam="1">  1       21 0.13641158E+00 0.45465096E+03</pdfrwt>
<pdfrwt beam="2">  1       21 0.81927023E-02 0.45465096E+03</pdfrwt>
<totfact> 0.39929245E+04</totfact>
</mgrwt>
</event>
<event>
 7    0  0.4831799E-002  0.4413054E+03  0.7546771E-02  0.1030347E+00
         21   -1    0    0  502  501  0.00000000000E+00  0.00000000000E+00  0.18309361718E+03  0.18309361718E+03  0.00000000000E+00 0. -1.
         21   -1    0    0  501  502 -0.00000000000E+00 -0.00000000000E+00 -0.26591649228E+03  0.26591649228E+03  0.00000000000E+00 0. -1.
      99926    2    1    2    0    0  0.71054273576E-14  0.00000000000E+00 -0.82822875104E+02  0.44901010946E+03  0.44130539285E+03 0.  0.
      99925    2    3    3    0    0 -0.39166059060E+02  0.77169427279E+02 -0.20746618082E+01  0.27679837136E+03  0.26291430824E+03 0.  0.
         25    1    3    3    0    0  0.39166059060E+02 -0.77169427279E+02 -0.80748213296E+02  0.17221173810E+03  0.12509000000E+03 0.  0.
         25    1    4    4    0    0 -0.49495283935E+02  0.45424185701E+02  0.25929385738E+02  0.14433634651E+03  0.12509000000E+03 0.  0.
         25    1    4    4    0    0  0.10329224876E+02  0.31745241578E+02 -0.28004047546E+02  0.13246202485E+03  0.12509000000E+03 0.  0.
<mgrwt>
<rscale>  2 0.44130539E+03</rscale>
<asrwt>0</asrwt>
<pdfrwt beam="1">  1       21 0.26925532E-01 0.44130539E+03</pdfrwt>
<pdfrwt beam="2">  1       21 0.39105366E-01 0.44130539E+03</pdfrwt>
<totfact> 0.77065681E+04</totfact>
</mgrwt>
</event>
<event>
 7    0  0.4831799E-002  0.4548217E+03  0.7546771E-02  0.1026294E+00
         21   -1    0    0  502  501  0.00000000000E+00  0.00000000000E+00  0.14284240797E+03  0.14284240797E+03  0.00000000000E+00 0. -1.
         21   -1    0    0  501  502 -0.00000000000E+00 -0.00000000000E+00 -0.36204725727E+03  0.36204725727E+03  0.00000000000E+00 0. -1.
      99926    2    1    2    0    0 -0.71054273576E-14 -0.14210854715E-13 -0.21920484930E+03  0.50488966524E+03  0.45482173223E+03 0.  0.
      99925    2    3    3    0    0 -0.37897526414E+02 -0.10665165322E+03 -0.14384183678E+03  0.32012524929E+03  0.26263835132E+03 0.  0.
         25    1    4    4    0    0  0.15698934340E+02 -0.37564763588E+02 -0.48677800660E+02  0.14026619115E+03  0.12509000000E+03 0.  0.
         25    1    3    3    0    0  0.37897526414E+02  0.10665165322E+03 -0.75363012520E+02  0.18476441594E+03  0.12509000000E+03 0.  0.
         25    1    4    4    0    0 -0.53596460754E+02 -0.69086889634E+02 -0.95164036118E+02  0.17985905814E+03  0.12509000000E+03 0.  0.
<mgrwt>
<rscale>  2 0.45482173E+03</rscale>
<asrwt>0</asrwt>
<pdfrwt beam="1">  1       21 0.21006237E-01 0.45482173E+03</pdfrwt>
<pdfrwt beam="2">  1       21 0.53242243E-01 0.45482173E+03</pdfrwt>
<totfact> 0.65020449E+04</totfact>
</mgrwt>
</event>
<event>
 7    0  0.4831799E-002  0.4694382E+03  0.7546771E-02  0.1022079E+00
         21   -1    0    0  502  501  0.00000000000E+00  0.00000000000E+00  0.22921337352E+03  0.22921337352E+03  0.00000000000E+00 0. -1.
         21   -1    0    0  501  502 -0.00000000000E+00 -0.00000000000E+00 -0.24035711652E+03  0.24035711652E+03  0.00000000000E+00 0. -1.
      99926    2    1    2    0    0  0.00000000000E+00  0.00000000000E+00 -0.11143742995E+02  0.46957049004E+03  0.46943824100E+03 0.  0.
      99925    2    3    3    0    0 -0.10214356720E+03  0.21473774267E+02  0.64216773002E+02  0.29006799208E+03  0.26290913791E+03 0.  0.
         25    1    4    4    0    0 -0.39575072928E+02 -0.90607884370E+01 -0.38080508037E+01  0.13156858909E+03  0.12509000000E+03 0.  0.
         25    1    3    3    0    0  0.10214356720E+03 -0.21473774267E+02 -0.75360515997E+02  0.17950249796E+03  0.12509000000E+03 0.  0.
         25    1    4    4    0    0 -0.62568494274E+02  0.30534562704E+02  0.68024823806E+02  0.15849940299E+03  0.12509000000E+03 0.  0.
<mgrwt>
<rscale>  2 0.46943824E+03</rscale>
<asrwt>0</asrwt>
<pdfrwt beam="1">  1       21 0.33707849E-01 0.46943824E+03</pdfrwt>
<pdfrwt beam="2">  1       21 0.35346635E-01 0.46943824E+03</pdfrwt>
<totfact> 0.60245926E+04</totfact>
</mgrwt>
</event>
<event>
 7    0  0.4831799E-002  0.4421624E+03  0.7546771E-02  0.1030085E+00
         21   -1    0    0  502  501  0.00000000000E+00  0.00000000000E+00  0.55005715139E+03  0.55005715139E+03  0.00000000000E+00 0. -1.
         21   -1    0    0  501  502 -0.00000000000E+00 -0.00000000000E+00 -0.88857836729E+02  0.88857836729E+02  0.00000000000E+00 0. -1.
      99926    2    1    2    0    0  0.00000000000E+00 -0.71054273576E-14  0.46119931466E+03  0.63891498812E+03  0.44216236181E+03 0.  0.
      99925    2    3    3    0    0  0.63125561911E+02  0.45126833759E+02  0.38636114580E+03  0.47378011200E+03  0.26300454721E+03 0.  0.
         25    1    4    4    0    0  0.33996689765E+02  0.47027784467E+02  0.14333856513E+03  0.19889906933E+03  0.12509000000E+03 0.  0.
         25    1    4    4    0    0  0.29128872146E+02 -0.19009507075E+01  0.24302258067E+03  0.27488104267E+03  0.12509000000E+03 0.  0.
         25    1    3    3    0    0 -0.63125561911E+02 -0.45126833759E+02  0.74838168867E+02  0.16513487612E+03  0.12509000000E+03 0.  0.
<mgrwt>
<rscale>  2 0.44216236E+03</rscale>
<asrwt>0</asrwt>
<pdfrwt beam="1">  1       21 0.80890756E-01 0.44216236E+03</pdfrwt>
<pdfrwt beam="2">  1       21 0.13067329E-01 0.44216236E+03</pdfrwt>
<totfact> 0.62432904E+04</totfact>
</mgrwt>
</event>
<event>
 7    0  0.4831799E-002  0.4536964E+03  0.7546771E-02  0.1026625E+00
         21   -1    0    0  502  501  0.00000000000E+00  0.00000000000E+00  0.13039701733E+04  0.13039701733E+04  0.00000000000E+00 0. -1.
         21   -1    0    0  501  502 -0.00000000000E+00 -0.00000000000E+00 -0.39464178002E+02  0.39464178002E+02  0.00000000000E+00 0. -1.
      99926    2    1    2    0    0  0.00000000000E+00 -0.71054273576E-14  0.12645059953E+04  0.13434343513E+04  0.45369642285E+03 0.  0.
      99925    2    3    3    0    0 -0.10526661163E+03 -0.37833813165E+02  0.78544205920E+03  0.83582995819E+03  0.26302097577E+03 0.  0.
         25    1    4    4    0    0 -0.17642424904E+02 -0.39185495912E+02  0.39623634694E+03  0.41772898988E+03  0.12509000000E+03 0.  0.
         25    1    3    3    0    0  0.10526661163E+03  0.37833813165E+02  0.47906393607E+03  0.50760439309E+03  0.12509000000E+03 0.  0.
         25    1    4    4    0    0 -0.87624186721E+02  0.13516827471E+01  0.38920571226E+03  0.41810096831E+03  0.12509000000E+03 0.  0.
<mgrwt>
<rscale>  2 0.45369642E+03</rscale>
<asrwt>0</asrwt>
<pdfrwt beam="1">  1       21 0.19176029E+00 0.45369642E+03</pdfrwt>
<pdfrwt beam="2">  1       21 0.58035565E-02 0.45369642E+03</pdfrwt>
<totfact> 0.28163307E+04</totfact>
</mgrwt>
</event>
<event>
 7    0  0.4831799E-002  0.4582055E+03  0.7546771E-02  0.1025303E+00
         21   -1    0    0  502  501  0.00000000000E+00  0.00000000000E+00  0.13347357143E+03  0.13347357143E+03  0.00000000000E+00 0. -1.
         21   -1    0    0  501  502 -0.00000000000E+00 -0.00000000000E+00 -0.39324686859E+03  0.39324686859E+03  0.00000000000E+00 0. -1.
      99926    2    1    2    0    0  0.00000000000E+00  0.17763568394E-14 -0.25977329716E+03  0.52672044003E+03  0.45820547359E+03 0.  0.
      99925    2    3    3    0    0 -0.10403539113E+03 -0.13644179896E+02 -0.22019640178E+03  0.35872232992E+03  0.26303180106E+03 0.  0.
         25    1    3    3    0    0  0.10403539113E+03  0.13644179896E+02 -0.39576895376E+02  0.16799811011E+03  0.12509000000E+03 0.  0.
         25    1    4    4    0    0 -0.89968935069E+02  0.74869715232E+01 -0.10343103284E+03  0.18573085547E+03  0.12509000000E+03 0.  0.
         25    1    4    4    0    0 -0.14066456061E+02 -0.21131151419E+02 -0.11676536894E+03  0.17299147444E+03  0.12509000000E+03 0.  0.
<mgrwt>
<rscale>  2 0.45820547E+03</rscale>
<asrwt>0</asrwt>
<pdfrwt beam="1">  1       21 0.19628467E-01 0.45820547E+03</pdfrwt>
<pdfrwt beam="2">  1       21 0.57830421E-01 0.45820547E+03</pdfrwt>
<totfact> 0.61842603E+04</totfact>
</mgrwt>
</event>
<event>
 7    0  0.4831799E-002  0.4564700E+03  0.7546771E-02  0.1025810E+00
         21   -1    0    0  502  501  0.00000000000E+00  0.00000000000E+00  0.90915774396E+02  0.90915774396E+02  0.00000000000E+00 0.  1.
         21   -1    0    0  501  502 -0.00000000000E+00 -0.00000000000E+00 -0.57296128173E+03  0.57296128173E+03  0.00000000000E+00 0.  1.
      99926    2    1    2    0    0  0.00000000000E+00  0.00000000000E+00 -0.48204550733E+03  0.66387705612E+03  0.45647001490E+03 0.  0.
      99925    2    3    3    0    0  0.53943663683E+02 -0.10089484040E+03 -0.30979872983E+03  0.42220341641E+03  0.26304141148E+03 0.  0.
         25    1    4    4    0    0  0.31552932803E+02 -0.81759389402E+02 -0.20908915961E+03  0.25893236586E+03  0.12509000000E+03 0.  0.
         25    1    3    3    0    0 -0.53943663683E+02  0.10089484040E+03 -0.17224677750E+03  0.24167363971E+03  0.12509000000E+03 0.  0.
         25    1    4    4    0    0  0.22390730880E+02 -0.19135450999E+02 -0.10070957022E+03  0.16327105055E+03  0.12509000000E+03 0.  0.
<mgrwt>
<rscale>  2 0.45647001E+03</rscale>
<asrwt>0</asrwt>
<pdfrwt beam="1">  1       21 0.13369967E-01 0.45647001E+03</pdfrwt>
<pdfrwt beam="2">  1       21 0.84259010E-01 0.45647001E+03</pdfrwt>
<totfact> 0.54276358E+04</totfact>
</mgrwt>
</event>
<event>
 7    0  0.4831799E-002  0.4589543E+03  0.7546771E-02  0.1025085E+00
         21   -1    0    0  502  501  0.00000000000E+00  0.00000000000E+00  0.95448883206E+02  0.95448883206E+02  0.00000000000E+00 0. -1.
         21   -1    0    0  501  502 -0.00000000000E+00 -0.00000000000E+00 -0.55170631304E+03  0.55170631304E+03  0.00000000000E+00 0. -1.
      99926    2    1    2    0    0  0.00000000000E+00  0.00000000000E+00 -0.45625742984E+03  0.64715519625E+03  0.45895425235E+03 0.  0.
      99925    2    3    3    0    0  0.40440495217E+02  0.40735831680E+02 -0.42957472940E+03  0.50696134389E+03  0.26302188963E+03 0.  0.
         25    1    4    4    0    0  0.37606649986E+02  0.51041279084E+02 -0.26662132694E+03  0.30125390018E+03  0.12509000000E+03 0.  0.
         25    1    4    4    0    0  0.28338452310E+01 -0.10305447404E+02 -0.16295340245E+03  0.20570744371E+03  0.12509000000E+03 0.  0.
         25    1    3    3    0    0 -0.40440495217E+02 -0.40735831680E+02 -0.26682700437E+02  0.14019385236E+03  0.12509000000E+03 0.  0.
<mgrwt>
<rscale>  2 0.45895425E+03</rscale>
<asrwt>0</asrwt>
<pdfrwt beam="1">  1       21 0.14036600E-01 0.45895425E+03</pdfrwt>
<pdfrwt beam="2">  1       21 0.81133283E-01 0.45895425E+03</pdfrwt>
<totfact> 0.54156181E+04</totfact>
</mgrwt>
</event>
<event>
 7    0  0.4831799E-002  0.4325140E+03  0.7546771E-02  0.1033069E+00
         21   -1    0    0  502  501  0.00000000000E+00  0.00000000000E+00  0.17465659940E+03  0.17465659940E+03  0.00000000000E+00 0.  1.
         21   -1    0    0  501  502 -0.00000000000E+00 -0.00000000000E+00 -0.26776599875E+03  0.26776599875E+03  0.00000000000E+00 0.  1.
      99926    2    1    2    0    0  0.00000000000E+00  0.00000000000E+00 -0.93109399355E+02  0.44242259815E+03  0.43251404036E+03 0.  0.
      99925    2    3    3    0    0 -0.41052943537E+02 -0.53279407928E+02 -0.12203184016E+03  0.29748104040E+03  0.26282914584E+03 0.  0.
         25    1    4    4    0    0 -0.11777651179E+02  0.60192760071E+01 -0.32078544096E+02  0.12981327298E+03  0.12509000000E+03 0.  0.
         25    1    3    3    0    0  0.41052943537E+02  0.53279407928E+02  0.28922440801E+02  0.14494155775E+03  0.12509000000E+03 0.  0.
         25    1    4    4    0    0 -0.29275292358E+02 -0.59298683935E+02 -0.89953296060E+02  0.16766776742E+03  0.12509000000E+03 0.  0.
<mgrwt>
<rscale>  2 0.43251404E+03</rscale>
<asrwt>0</asrwt>
<pdfrwt beam="1">  1       21 0.25684794E-01 0.43251404E+03</pdfrwt>
<pdfrwt beam="2">  1       21 0.39377353E-01 0.43251404E+03</pdfrwt>
<totfact> 0.83464220E+04</totfact>
</mgrwt>
</event>
<event>
 7    0  0.4831799E-002  0.4513288E+03  0.7546771E-02  0.1027327E+00
         21   -1    0    0  502  501  0.00000000000E+00  0.00000000000E+00  0.63749469444E+03  0.63749469444E+03  0.00000000000E+00 0.  1.
         21   -1    0    0  501  502 -0.00000000000E+00 -0.00000000000E+00 -0.79882099944E+02  0.79882099944E+02  0.00000000000E+00 0.  1.
      99926    2    1    2    0    0 -0.71054273576E-14  0.00000000000E+00  0.55761259450E+03  0.71737679439E+03  0.45132877105E+03 0.  0.
      99925    2    3    3    0    0  0.33896934497E+02  0.43070458960E+02  0.50317179163E+03  0.57035510986E+03  0.26290498826E+03 0.  0.
         25    1    3    3    0    0 -0.33896934497E+02 -0.43070458960E+02  0.54440802870E+02  0.14702168452E+03  0.12509000000E+03 0.  0.
         25    1    4    4    0    0 -0.49196337752E+00  0.56552476724E+02  0.23535435396E+03  0.27246578626E+03  0.12509000000E+03 0.  0.
         25    1    4    4    0    0  0.34388897874E+02 -0.13482017764E+02  0.26781743766E+03  0.29788932360E+03  0.12509000000E+03 0.  0.
<mgrwt>
<rscale>  2 0.45132877E+03</rscale>
<asrwt>0</asrwt>
<pdfrwt beam="1">  1       21 0.93749217E-01 0.45132877E+03</pdfrwt>
<pdfrwt beam="2">  1       21 0.11747368E-01 0.45132877E+03</pdfrwt>
<totfact> 0.53497942E+04</totfact>
</mgrwt>
</event>
<event>
 7    0  0.4831799E-002  0.4522873E+03  0.7546771E-02  0.1027042E+00
         21   -1    0    0  502  501  0.00000000000E+00  0.00000000000E+00  0.18297260919E+04  0.18297260919E+04  0.00000000000E+00 0.  1.
         21   -1    0    0  501  502 -0.00000000000E+00 -0.00000000000E+00 -0.27950053048E+02  0.27950053048E+02  0.00000000000E+00 0.  1.
      99926    2    1    2    0    0  0.17763568394E-14  0.00000000000E+00  0.18017760389E+04  0.18576761450E+04  0.45228725975E+03 0.  0.
      99925    2    3    3    0    0 -0.90006248138E+01  0.20026156138E+02  0.69284197921E+03  0.74149322315E+03  0.26324918546E+03 0.  0.
         25    1    4    4    0    0  0.34428434668E+02  0.22737354960E+02  0.34701372266E+03  0.37117157251E+03  0.12509000000E+03 0.  0.
         25    1    3    3    0    0  0.90006248138E+01 -0.20026156138E+02  0.11089340597E+04  0.11161829218E+04  0.12509000000E+03 0.  0.
         25    1    4    4    0    0 -0.43429059481E+02 -0.27111988212E+01  0.34582825655E+03  0.37032165064E+03  0.12509000000E+03 0.  0.
<mgrwt>
<rscale>  2 0.45228726E+03</rscale>
<asrwt>0</asrwt>
<pdfrwt beam="1">  1       21 0.26907729E+00 0.45228726E+03</pdfrwt>
<pdfrwt beam="2">  1       21 0.41103031E-02 0.45228726E+03</pdfrwt>
<totfact> 0.16520978E+04</totfact>
</mgrwt>
</event>
<event>
 7    0  0.4831799E-002  0.4574208E+03  0.7546771E-02  0.1025532E+00
         21   -1    0    0  502  501  0.00000000000E+00  0.00000000000E+00  0.19820370220E+03  0.19820370220E+03  0.00000000000E+00 0. -1.
         21   -1    0    0  501  502 -0.00000000000E+00 -0.00000000000E+00 -0.26391256507E+03  0.26391256507E+03  0.00000000000E+00 0. -1.
      99926    2    1    2    0    0  0.00000000000E+00  0.00000000000E+00 -0.65708862865E+02  0.46211626727E+03  0.45742080169E+03 0.  0.
      99925    2    3    3    0    0 -0.84930734717E+02 -0.63662786869E+02 -0.87199913593E+02  0.29666067355E+03  0.26294020265E+03 0.  0.
         25    1    3    3    0    0  0.84930734717E+02  0.63662786869E+02  0.21491050728E+02  0.16545559372E+03  0.12509000000E+03 0.  0.
         25    1    4    4    0    0 -0.31122059898E+02 -0.50649306462E+02 -0.83017884738E+01  0.13874567615E+03  0.12509000000E+03 0.  0.
         25    1    4    4    0    0 -0.53808674819E+02 -0.13013480407E+02 -0.78898125119E+02  0.15791499740E+03  0.12509000000E+03 0.  0.
<mgrwt>
<rscale>  2 0.45742080E+03</rscale>
<asrwt>0</asrwt>
<pdfrwt beam="1">  1       21 0.29147603E-01 0.45742080E+03</pdfrwt>
<pdfrwt beam="2">  1       21 0.38810671E-01 0.45742080E+03</pdfrwt>
<totfact> 0.66729068E+04</totfact>
</mgrwt>
</event>
<event>
 7    0  0.4831799E-002  0.4495082E+03  0.7546771E-02  0.1027869E+00
         21   -1    0    0  502  501  0.00000000000E+00  0.00000000000E+00  0.96766636404E+03  0.96766636404E+03  0.00000000000E+00 0.  1.
         21   -1    0    0  501  502 -0.00000000000E+00 -0.00000000000E+00 -0.52202285298E+02  0.52202285298E+02  0.00000000000E+00 0.  1.
      99926    2    1    2    0    0  0.14210854715E-13  0.00000000000E+00  0.91546407875E+03  0.10198686493E+04  0.44950815614E+03 0.  0.
      99925    2    3    3    0    0 -0.77442334834E+02  0.74881593623E+02  0.59426881329E+03  0.65873366774E+03  0.26300200431E+03 0.  0.
         25    1    4    4    0    0 -0.22773698975E+02  0.13394389710E+00  0.23473284564E+03  0.26695631896E+03  0.12509000000E+03 0.  0.
         25    1    4    4    0    0 -0.54668635859E+02  0.74747649726E+02  0.35953596765E+03  0.39177734878E+03  0.12509000000E+03 0.  0.
         25    1    3    3    0    0  0.77442334834E+02 -0.74881593623E+02  0.32119526545E+03  0.36113498160E+03  0.12509000000E+03 0.  0.
<mgrwt>
<rscale>  2 0.44950816E+03</rscale>
<asrwt>0</asrwt>
<pdfrwt beam="1">  1       21 0.14230387E+00 0.44950816E+03</pdfrwt>
<pdfrwt beam="2">  1       21 0.76768073E-02 0.44950816E+03</pdfrwt>
<totfact> 0.40094601E+04</totfact>
</mgrwt>
</event>
<event>
 7    0  0.4831799E-002  0.4578125E+03  0.7546771E-02  0.1025418E+00
         21   -1    0    0  502  501  0.00000000000E+00  0.00000000000E+00  0.44677614219E+03  0.44677614219E+03  0.00000000000E+00 0. -1.
         21   -1    0    0  501  502 -0.00000000000E+00 -0.00000000000E+00 -0.11728037864E+03  0.11728037864E+03  0.00000000000E+00 0. -1.
      99926    2    1    2    0    0  0.00000000000E+00  0.00000000000E+00  0.32949576355E+03  0.56405652082E+03  0.45781251674E+03 0.  0.
      99925    2    3    3    0    0  0.30369328225E+02 -0.10763272793E+03  0.16971886412E+03  0.33236002558E+03  0.26296690580E+03 0.  0.
         25    1    4    4    0    0 -0.17370286991E+02 -0.73934266282E+02  0.10345421327E+03  0.17921574971E+03  0.12509000000E+03 0.  0.
         25    1    3    3    0    0 -0.30369328225E+02  0.10763272793E+03  0.15977689943E+03  0.23169649525E+03  0.12509000000E+03 0.  0.
         25    1    4    4    0    0  0.47739615216E+02 -0.33698461646E+02  0.66264650850E+02  0.15314427587E+03  0.12509000000E+03 0.  0.
<mgrwt>
<rscale>  2 0.45781252E+03</rscale>
<asrwt>0</asrwt>
<pdfrwt beam="1">  1       21 0.65702373E-01 0.45781252E+03</pdfrwt>
<pdfrwt beam="2">  1       21 0.17247115E-01 0.45781252E+03</pdfrwt>
<totfact> 0.59609990E+04</totfact>
</mgrwt>
</event>
<event>
 7    0  0.4831799E-002  0.4612998E+03  0.7546771E-02  0.1024405E+00
         21   -1    0    0  502  501  0.00000000000E+00  0.00000000000E+00  0.19410775208E+04  0.19410775208E+04  0.00000000000E+00 0.  1.
         21   -1    0    0  501  502 -0.00000000000E+00 -0.00000000000E+00 -0.27407134442E+02  0.27407134442E+02  0.00000000000E+00 0.  1.
      99926    2    1    2    0    0  0.00000000000E+00  0.35527136788E-14  0.19136703864E+04  0.19684846552E+04  0.46129978354E+03 0.  0.
      99925    2    3    3    0    0 -0.10700224033E+03  0.19366484395E+02  0.97812475674E+03  0.10183700972E+04  0.26177294556E+03 0.  0.
         25    1    4    4    0    0 -0.85935015529E+02 -0.50173503460E+01  0.59428483496E+03  0.61337751333E+03  0.12509000000E+03 0.  0.
         25    1    3    3    0    0  0.10700224033E+03 -0.19366484395E+02  0.93554562962E+03  0.95011455802E+03  0.12509000000E+03 0.  0.
         25    1    4    4    0    0 -0.21067224804E+02  0.24383834741E+02  0.38383992178E+03  0.40499258390E+03  0.12509000000E+03 0.  0.
<mgrwt>
<rscale>  2 0.46129978E+03</rscale>
<asrwt>0</asrwt>
<pdfrwt beam="1">  1       21 0.28545248E+00 0.46129978E+03</pdfrwt>
<pdfrwt beam="2">  1       21 0.40304623E-02 0.46129978E+03</pdfrwt>
<totfact> 0.13556270E+04</totfact>
</mgrwt>
</event>
<event>
 7    0  0.4831799E-002  0.4308872E+03  0.7546771E-02  0.1033580E+00
         21   -1    0    0  502  501  0.00000000000E+00  0.00000000000E+00  0.17576244466E+03  0.17576244466E+03  0.00000000000E+00 0.  1.
         21   -1    0    0  501  502 -0.00000000000E+00 -0.00000000000E+00 -0.26408346489E+03  0.26408346489E+03  0.00000000000E+00 0.  1.
      99926    2    1    2    0    0 -0.35527136788E-14  0.00000000000E+00 -0.88321020226E+02  0.43984590955E+03  0.43088724921E+03 0.  0.
      99925    2    3    3    0    0  0.23568405108E+02 -0.82331929174E+01  0.30149909476E+02  0.26575936650E+03  0.26286074005E+03 0.  0.
         25    1    4    4    0    0  0.48422782185E+02 -0.17361934082E+02  0.26620717714E+02  0.13784909612E+03  0.12509000000E+03 0.  0.
         25    1    4    4    0    0 -0.24854377078E+02  0.91287411649E+01  0.35291917618E+01  0.12791027038E+03  0.12509000000E+03 0.  0.
         25    1    3    3    0    0 -0.23568405108E+02  0.82331929174E+01 -0.11847092970E+03  0.17408654304E+03  0.12509000000E+03 0.  0.
<mgrwt>
<rscale>  2 0.43088725E+03</rscale>
<asrwt>0</asrwt>
<pdfrwt beam="1">  1       21 0.25847419E-01 0.43088725E+03</pdfrwt>
<pdfrwt beam="2">  1       21 0.38835803E-01 0.43088725E+03</pdfrwt>
<totfact> 0.84845574E+04</totfact>
</mgrwt>
</event>
<event>
 7    0  0.4831799E-002  0.4561731E+03  0.7546771E-02  0.1025897E+00
         21   -1    0    0  502  501  0.00000000000E+00  0.00000000000E+00  0.89085317912E+02  0.89085317912E+02  0.00000000000E+00 0.  1.
         21   -1    0    0  501  502 -0.00000000000E+00 -0.00000000000E+00 -0.58397372052E+03  0.58397372052E+03  0.00000000000E+00 0.  1.
      99926    2    1    2    0    0  0.00000000000E+00  0.00000000000E+00 -0.49488840261E+03  0.67305903844E+03  0.45617314496E+03 0.  0.
      99925    2    3    3    0    0  0.10036514935E+02  0.72240566941E+02 -0.44102365143E+03  0.51856518528E+03  0.26284702607E+03 0.  0.
         25    1    4    4    0    0  0.60978353410E+00  0.51221954502E+02 -0.15579205397E+03  0.20625889711E+03  0.12509000000E+03 0.  0.
         25    1    4    4    0    0  0.94267314004E+01  0.21018612439E+02 -0.28523159747E+03  0.31230628817E+03  0.12509000000E+03 0.  0.
         25    1    3    3    0    0 -0.10036514935E+02 -0.72240566941E+02 -0.53864751177E+02  0.15449385316E+03  0.12509000000E+03 0.  0.
<mgrwt>
<rscale>  2 0.45617314E+03</rscale>
<asrwt>0</asrwt>
<pdfrwt beam="1">  1       21 0.13100782E-01 0.45617314E+03</pdfrwt>
<pdfrwt beam="2">  1       21 0.85878487E-01 0.45617314E+03</pdfrwt>
<totfact> 0.53890434E+04</totfact>
</mgrwt>
</event>
<event>
 7    0  0.4831799E-002  0.4280742E+03  0.7546771E-02  0.1034470E+00
         21   -1    0    0  502  501  0.00000000000E+00  0.00000000000E+00  0.40297901760E+02  0.40297901760E+02  0.00000000000E+00 0. -1.
         21   -1    0    0  501  502 -0.00000000000E+00 -0.00000000000E+00 -0.11368302949E+04  0.11368302949E+04  0.00000000000E+00 0. -1.
      99926    2    1    2    0    0  0.00000000000E+00  0.35527136788E-14 -0.10965323931E+04  0.11771281966E+04  0.42807417835E+03 0.  0.
      99925    2    3    3    0    0 -0.70162134595E+02 -0.21825701840E+02 -0.82893101168E+03  0.87273191900E+03  0.26293591221E+03 0.  0.
         25    1    3    3    0    0  0.70162134595E+02  0.21825701840E+02 -0.26760138144E+03  0.30439627764E+03  0.12509000000E+03 0.  0.
         25    1    4    4    0    0 -0.10248864917E+02  0.13794587136E+02 -0.31912389306E+03  0.34319512975E+03  0.12509000000E+03 0.  0.
         25    1    4    4    0    0 -0.59913269678E+02 -0.35620288976E+02 -0.50980711862E+03  0.52953678925E+03  0.12509000000E+03 0.  0.
<mgrwt>
<rscale>  2 0.42807418E+03</rscale>
<asrwt>0</asrwt>
<pdfrwt beam="1">  1       21 0.59261625E-02 0.42807418E+03</pdfrwt>
<pdfrwt beam="2">  1       21 0.16718091E+00 0.42807418E+03</pdfrwt>
<totfact> 0.40799041E+04</totfact>
</mgrwt>
</event>
<event>
 7    0  0.4831799E-002  0.4552459E+03  0.7546771E-02  0.1026169E+00
         21   -1    0    0  502  501  0.00000000000E+00  0.00000000000E+00  0.58768979321E+02  0.58768979321E+02  0.00000000000E+00 0. -1.
         21   -1    0    0  501  502 -0.00000000000E+00 -0.00000000000E+00 -0.88162503687E+03  0.88162503687E+03  0.00000000000E+00 0. -1.
      99926    2    1    2    0    0  0.00000000000E+00  0.00000000000E+00 -0.82285605755E+03  0.94039401619E+03  0.45524588328E+03 0.  0.
      99925    2    3    3    0    0  0.10272224715E+03 -0.47428311233E+02 -0.52354764044E+03  0.59683275321E+03  0.26326013510E+03 0.  0.
         25    1    4    4    0    0  0.36276309097E+02 -0.24833794679E+02 -0.17217180279E+03  0.21730928589E+03  0.12509000000E+03 0.  0.
         25    1    4    4    0    0  0.66445938050E+02 -0.22594516554E+02 -0.35137583765E+03  0.37952346732E+03  0.12509000000E+03 0.  0.
         25    1    3    3    0    0 -0.10272224715E+03  0.47428311233E+02 -0.29930841711E+03  0.34356126298E+03  0.12509000000E+03 0.  0.
<mgrwt>
<rscale>  2 0.45524588E+03</rscale>
<asrwt>0</asrwt>
<pdfrwt beam="1">  1       21 0.86424981E-02 0.45524588E+03</pdfrwt>
<pdfrwt beam="2">  1       21 0.12965072E+00 0.45524588E+03</pdfrwt>
<totfact> 0.41452476E+04</totfact>
</mgrwt>
</event>
<event>
 7    0  0.4831799E-002  0.4549903E+03  0.7546771E-02  0.1026244E+00
         21   -1    0    0  502  501  0.00000000000E+00  0.00000000000E+00  0.21924362135E+03  0.21924362135E+03  0.00000000000E+00 0. -1.
         21   -1    0    0  501  502 -0.00000000000E+00 -0.00000000000E+00 -0.23605718725E+03  0.23605718725E+03  0.00000000000E+00 0. -1.
      99926    2    1    2    0    0  0.00000000000E+00  0.00000000000E+00 -0.16813565906E+02  0.45530080860E+03  0.45499025299E+03 0.  0.
      99925    2    3    3    0    0  0.10269142248E+03 -0.47413984880E+02 -0.82885461719E+01  0.28644051642E+03  0.26303204223E+03 0.  0.
         25    1    3    3    0    0 -0.10269142248E+03  0.47413984880E+02 -0.85250197345E+01  0.16886029218E+03  0.12509000000E+03 0.  0.
         25    1    4    4    0    0  0.88151890190E+02 -0.42987983738E+02 -0.18454292696E+02  0.16002122206E+03  0.12509000000E+03 0.  0.
         25    1    4    4    0    0  0.14539532286E+02 -0.44260011423E+01  0.10165746525E+02  0.12641929436E+03  0.12509000000E+03 0.  0.
<mgrwt>
<rscale>  2 0.45499025E+03</rscale>
<asrwt>0</asrwt>
<pdfrwt beam="1">  1       21 0.32241709E-01 0.45499025E+03</pdfrwt>
<pdfrwt beam="2">  1       21 0.34714292E-01 0.45499025E+03</pdfrwt>
<totfact> 0.68529107E+04</totfact>
</mgrwt>
</event>
<event>
 7    0  0.4831799E-002  0.4491326E+03  0.7546771E-02  0.1027981E+00
         21   -1    0    0  502  501  0.00000000000E+00  0.00000000000E+00  0.19287818054E+03  0.19287818054E+03  0.00000000000E+00 0.  1.
         21   -1    0    0  501  502 -0.00000000000E+00 -0.00000000000E+00 -0.26146043133E+03  0.26146043133E+03  0.00000000000E+00 0.  1.
      99926    2    1    2    0    0  0.35527136788E-14 -0.71054273576E-14 -0.68582250794E+02  0.45433861187E+03  0.44913255182E+03 0.  0.
      99925    2    3    3    0    0 -0.17375297551E+02  0.59712280648E+02  0.45556947909E+02  0.27394259693E+03  0.26287193362E+03 0.  0.
         25    1    3    3    0    0  0.17375297551E+02 -0.59712280648E+02 -0.11413919870E+03  0.18039601494E+03  0.12509000000E+03 0.  0.
         25    1    4    4    0    0  0.18062389136E+02  0.25753909722E+02  0.52799812549E+02  0.13937303208E+03  0.12509000000E+03 0.  0.
         25    1    4    4    0    0 -0.35437686687E+02  0.33958370926E+02 -0.72428646404E+01  0.13456956484E+03  0.12509000000E+03 0.  0.
<mgrwt>
<rscale>  2 0.44913255E+03</rscale>
<asrwt>0</asrwt>
<pdfrwt beam="1">  1       21 0.28364439E-01 0.44913255E+03</pdfrwt>
<pdfrwt beam="2">  1       21 0.38450063E-01 0.44913255E+03</pdfrwt>
<totfact> 0.71900984E+04</totfact>
</mgrwt>
</event>
<event>
 7    0  0.4831799E-002  0.4570181E+03  0.7546771E-02  0.1025650E+00
         21   -1    0    0  502  501  0.00000000000E+00  0.00000000000E+00  0.61027145222E+02  0.61027145222E+02  0.00000000000E+00 0. -1.
         21   -1    0    0  501  502 -0.00000000000E+00 -0.00000000000E+00 -0.85562541871E+03  0.85562541871E+03  0.00000000000E+00 0. -1.
      99926    2    1    2    0    0  0.00000000000E+00  0.17763568394E-14 -0.79459827348E+03  0.91665256393E+03  0.45701805952E+03 0.  0.
      99925    2    3    3    0    0  0.63558026401E+02 -0.12105343931E+01 -0.30797609919E+03  0.41020440594E+03  0.26339568878E+03 0.  0.
         25    1    3    3    0    0 -0.63558026401E+02  0.12105343931E+01 -0.48662217429E+03  0.50644815799E+03  0.12509000000E+03 0.  0.
         25    1    4    4    0    0  0.58260401072E+02 -0.26424040087E+02 -0.19025949165E+03  0.23651360741E+03  0.12509000000E+03 0.  0.
         25    1    4    4    0    0  0.52976253294E+01  0.25213505694E+02 -0.11771660754E+03  0.17369079853E+03  0.12509000000E+03 0.  0.
<mgrwt>
<rscale>  2 0.45701806E+03</rscale>
<asrwt>0</asrwt>
<pdfrwt beam="1">  1       21 0.89745803E-02 0.45701806E+03</pdfrwt>
<pdfrwt beam="2">  1       21 0.12582727E+00 0.45701806E+03</pdfrwt>
<totfact> 0.41856511E+04</totfact>
</mgrwt>
</event>
<event>
 7    0  0.4831799E-002  0.4560629E+03  0.7546771E-02  0.1025929E+00
         21   -1    0    0  502  501  0.00000000000E+00  0.00000000000E+00  0.50658713421E+02  0.50658713421E+02  0.00000000000E+00 0.  1.
         21   -1    0    0  501  502 -0.00000000000E+00 -0.00000000000E+00 -0.10264440213E+04  0.10264440213E+04  0.00000000000E+00 0.  1.
      99926    2    1    2    0    0 -0.14210854715E-13 -0.14210854715E-13 -0.97578530790E+03  0.10771027347E+04  0.45606286198E+03 0.  0.
      99925    2    3    3    0    0  0.76078066552E+02  0.77760203386E+02 -0.53229620234E+03  0.60364247634E+03  0.26307882995E+03 0.  0.
         25    1    3    3    0    0 -0.76078066552E+02 -0.77760203386E+02 -0.44348910555E+03  0.47346025840E+03  0.12509000000E+03 0.  0.
         25    1    4    4    0    0  0.66234988650E+02  0.32461601215E+02 -0.33886307816E+03  0.36866858168E+03  0.12509000000E+03 0.  0.
         25    1    4    4    0    0  0.98430779016E+01  0.45298602171E+02 -0.19343312418E+03  0.23497389466E+03  0.12509000000E+03 0.  0.
<mgrwt>
<rscale>  2 0.45606286E+03</rscale>
<asrwt>0</asrwt>
<pdfrwt beam="1">  1       21 0.74498113E-02 0.45606286E+03</pdfrwt>
<pdfrwt beam="2">  1       21 0.15094764E+00 0.45606286E+03</pdfrwt>
<totfact> 0.35998873E+04</totfact>
</mgrwt>
</event>
<event>
 7    0  0.4831799E-002  0.4305304E+03  0.7546771E-02  0.1033693E+00
         21   -1    0    0  502  501  0.00000000000E+00  0.00000000000E+00  0.36670827299E+03  0.36670827299E+03  0.00000000000E+00 0. -1.
         21   -1    0    0  501  502 -0.00000000000E+00 -0.00000000000E+00 -0.12636502259E+03  0.12636502259E+03  0.00000000000E+00 0. -1.
      99926    2    1    2    0    0 -0.14210854715E-13 -0.71054273576E-14  0.24034325040E+03  0.49307329558E+03  0.43053036687E+03 0.  0.
      99925    2    3    3    0    0 -0.67604919661E+02 -0.50173514475E+02  0.12531492583E+03  0.30342406602E+03  0.26320054424E+03 0.  0.
         25    1    3    3    0    0  0.67604919661E+02  0.50173514475E+02  0.11502832457E+03  0.18964922955E+03  0.12509000000E+03 0.  0.
         25    1    4    4    0    0 -0.22647139285E+01  0.75444154684E+00  0.43026371547E+02  0.13230447785E+03  0.12509000000E+03 0.  0.
         25    1    4    4    0    0 -0.65340205732E+02 -0.50927956022E+02  0.82288554286E+02  0.17111958817E+03  0.12509000000E+03 0.  0.
<mgrwt>
<rscale>  2 0.43053037E+03</rscale>
<asrwt>0</asrwt>
<pdfrwt beam="1">  1       21 0.53927687E-01 0.43053037E+03</pdfrwt>
<pdfrwt beam="2">  1       21 0.18583092E-01 0.43053037E+03</pdfrwt>
<totfact> 0.80247714E+04</totfact>
</mgrwt>
</event>
<event>
 7    0  0.4831799E-002  0.4486746E+03  0.7546771E-02  0.1028118E+00
         21   -1    0    0  502  501  0.00000000000E+00  0.00000000000E+00  0.18940858855E+04  0.18940858855E+04  0.00000000000E+00 0. -1.
         21   -1    0    0  501  502 -0.00000000000E+00 -0.00000000000E+00 -0.26570724557E+02  0.26570724557E+02  0.00000000000E+00 0. -1.
      99926    2    1    2    0    0 -0.71054273576E-14  0.00000000000E+00  0.18675151609E+04  0.19206566100E+04  0.44867464537E+03 0.  0.
      99925    2    3    3    0    0  0.61134728839E+02 -0.72418146597E+02  0.13963074726E+04  0.14240017634E+04  0.26291561608E+03 0.  0.
         25    1    3    3    0    0 -0.61134728839E+02  0.72418146597E+02  0.47120768836E+03  0.49665484664E+03  0.12509000000E+03 0.  0.
         25    1    4    4    0    0  0.60744906272E+02 -0.15241304288E+02  0.61801989957E+03  0.63365475249E+03  0.12509000000E+03 0.  0.
         25    1    4    4    0    0  0.38982256697E+00 -0.57176842309E+02  0.77828757299E+03  0.79034701090E+03  0.12509000000E+03 0.  0.
<mgrwt>
<rscale>  2 0.44867465E+03</rscale>
<asrwt>0</asrwt>
<pdfrwt beam="1">  1       21 0.27854195E+00 0.44867465E+03</pdfrwt>
<pdfrwt beam="2">  1       21 0.39074608E-02 0.44867465E+03</pdfrwt>
<totfact> 0.15810770E+04</totfact>
</mgrwt>
</event>
<event>
 7    0  0.4831799E-002  0.4528626E+03  0.7546771E-02  0.1026872E+00
         21   -1    0    0  502  501  0.00000000000E+00  0.00000000000E+00  0.24394926012E+03  0.24394926012E+03  0.00000000000E+00 0. -1.
         21   -1    0    0  501  502 -0.00000000000E+00 -0.00000000000E+00 -0.21017132798E+03  0.21017132798E+03  0.00000000000E+00 0. -1.
      99926    2    1    2    0    0  0.00000000000E+00  0.00000000000E+00  0.33777932140E+02  0.45412058810E+03  0.45286262800E+03 0.  0.
      99925    2    3    3    0    0 -0.47737880482E+02  0.56747333128E+02 -0.61800074912E+02  0.28010384011E+03  0.26294437992E+03 0.  0.
         25    1    3    3    0    0  0.47737880482E+02 -0.56747333128E+02  0.95578007051E+02  0.17401674799E+03  0.12509000000E+03 0.  0.
         25    1    4    4    0    0 -0.25312964021E+02  0.11138500042E+02  0.75145126181E+01  0.12833077702E+03  0.12509000000E+03 0.  0.
         25    1    4    4    0    0 -0.22424916461E+02  0.45608833086E+02 -0.69314587530E+02  0.15177306308E+03  0.12509000000E+03 0.  0.
<mgrwt>
<rscale>  2 0.45286263E+03</rscale>
<asrwt>0</asrwt>
<pdfrwt beam="1">  1       21 0.35874891E-01 0.45286263E+03</pdfrwt>
<pdfrwt beam="2">  1       21 0.30907548E-01 0.45286263E+03</pdfrwt>
<totfact> 0.69792944E+04</totfact>
</mgrwt>
</event>
<event>
 7    0  0.4831799E-002  0.4435641E+03  0.7546771E-02  0.1029659E+00
         21   -1    0    0  502  501  0.00000000000E+00  0.00000000000E+00  0.36320297530E+03  0.36320297530E+03  0.00000000000E+00 0. -1.
         21   -1    0    0  501  502 -0.00000000000E+00 -0.00000000000E+00 -0.13542641707E+03  0.13542641707E+03  0.00000000000E+00 0. -1.
      99926    2    1    2    0    0 -0.44408920985E-15  0.71054273576E-14  0.22777655823E+03  0.49862939237E+03  0.44356409960E+03 0.  0.
      99925    2    3    3    0    0  0.35576324764E+01  0.55175062473E+02  0.24064528957E+03  0.36126106773E+03  0.26370904307E+03 0.  0.
         25    1    4    4    0    0  0.21498156633E+02  0.61139300061E+02  0.14890065285E+03  0.20498560259E+03  0.12509000000E+03 0.  0.
         25    1    4    4    0    0 -0.17940524157E+02 -0.59642375878E+01  0.91744636725E+02  0.15627546514E+03  0.12509000000E+03 0.  0.
         25    1    3    3    0    0 -0.35576324764E+01 -0.55175062473E+02 -0.12868731338E+02  0.13736832464E+03  0.12509000000E+03 0.  0.
<mgrwt>
<rscale>  2 0.44356410E+03</rscale>
<asrwt>0</asrwt>
<pdfrwt beam="1">  1       21 0.53412202E-01 0.44356410E+03</pdfrwt>
<pdfrwt beam="2">  1       21 0.19915650E-01 0.44356410E+03</pdfrwt>
<totfact> 0.71653414E+04</totfact>
</mgrwt>
</event>
<event>
 7    0  0.4831799E-002  0.4442972E+03  0.7546771E-02  0.1029436E+00
         21   -1    0    0  502  501  0.00000000000E+00  0.00000000000E+00  0.10284066841E+04  0.10284066841E+04  0.00000000000E+00 0.  1.
         21   -1    0    0  501  502 -0.00000000000E+00 -0.00000000000E+00 -0.47986853512E+02  0.47986853512E+02  0.00000000000E+00 0.  1.
      99926    2    1    2    0    0  0.00000000000E+00  0.00000000000E+00  0.98041983058E+03  0.10763935376E+04  0.44429720188E+03 0.  0.
      99925    2    3    3    0    0 -0.86356045623E+02 -0.39003018205E+02  0.53399584262E+03  0.60319116317E+03  0.26402541042E+03 0.  0.
         25    1    4    4    0    0 -0.34830020981E+02  0.21323710279E+02  0.27400177248E+03  0.30396103435E+03  0.12509000000E+03 0.  0.
         25    1    3    3    0    0  0.86356045623E+02  0.39003018205E+02  0.44642398796E+03  0.47320237443E+03  0.12509000000E+03 0.  0.
         25    1    4    4    0    0 -0.51526024642E+02 -0.60326728484E+02  0.25999407015E+03  0.29923012882E+03  0.12509000000E+03 0.  0.
<mgrwt>
<rscale>  2 0.44429720E+03</rscale>
<asrwt>0</asrwt>
<pdfrwt beam="1">  1       21 0.15123626E+00 0.44429720E+03</pdfrwt>
<pdfrwt beam="2">  1       21 0.70568908E-02 0.44429720E+03</pdfrwt>
<totfact> 0.39522532E+04</totfact>
</mgrwt>
</event>
<event>
 7    0  0.4831799E-002  0.4534980E+03  0.7546771E-02  0.1026684E+00
         21   -1    0    0  502  501  0.00000000000E+00  0.00000000000E+00  0.16517941277E+04  0.16517941277E+04  0.00000000000E+00 0.  1.
         21   -1    0    0  501  502 -0.00000000000E+00 -0.00000000000E+00 -0.31126821928E+02  0.31126821928E+02  0.00000000000E+00 0.  1.
      99926    2    1    2    0    0  0.17763568394E-14  0.00000000000E+00  0.16206673058E+04  0.16829209497E+04  0.45349796769E+03 0.  0.
      99925    2    3    3    0    0 -0.68447032713E+01  0.10675821717E+03  0.90185572673E+03  0.94550535367E+03  0.26304458765E+03 0.  0.
         25    1    4    4    0    0 -0.26105736746E+02  0.65437298158E+02  0.57321837674E+03  0.59092331568E+03  0.12509000000E+03 0.  0.
         25    1    4    4    0    0  0.19261033475E+02  0.41320919007E+02  0.32863734999E+03  0.35458203799E+03  0.12509000000E+03 0.  0.
         25    1    3    3    0    0  0.68447032713E+01 -0.10675821717E+03  0.71881157908E+03  0.73741559599E+03  0.12509000000E+03 0.  0.
<mgrwt>
<rscale>  2 0.45349797E+03</rscale>
<asrwt>0</asrwt>
<pdfrwt beam="1">  1       21 0.24291084E+00 0.45349797E+03</pdfrwt>
<pdfrwt beam="2">  1       21 0.45774749E-02 0.45349797E+03</pdfrwt>
<totfact> 0.19849778E+04</totfact>
</mgrwt>
</event>
<event>
 7    0  0.4831799E-002  0.4580560E+03  0.7546771E-02  0.1025347E+00
         21   -1    0    0  502  501  0.00000000000E+00  0.00000000000E+00  0.70104649123E+03  0.70104649123E+03  0.00000000000E+00 0. -1.
         21   -1    0    0  501  502 -0.00000000000E+00 -0.00000000000E+00 -0.74822161505E+02  0.74822161505E+02  0.00000000000E+00 0. -1.
      99926    2    1    2    0    0 -0.14210854715E-13  0.35527136788E-14  0.62622432973E+03  0.77586865274E+03  0.45805595199E+03 0.  0.
      99925    2    3    3    0    0 -0.90473472509E+02  0.15097807033E+02  0.51331600347E+03  0.58401143697E+03  0.26298792004E+03 0.  0.
         25    1    3    3    0    0  0.90473472509E+02 -0.15097807033E+02  0.11290832626E+03  0.19185721577E+03  0.12509000000E+03 0.  0.
         25    1    4    4    0    0 -0.42027359566E+02 -0.26630292232E+02  0.20571881304E+03  0.24585200743E+03  0.12509000000E+03 0.  0.
         25    1    4    4    0    0 -0.48446112943E+02  0.41728099266E+02  0.30759719043E+03  0.33815942954E+03  0.12509000000E+03 0.  0.
<mgrwt>
<rscale>  2 0.45805595E+03</rscale>
<asrwt>0</asrwt>
<pdfrwt beam="1">  1       21 0.10309507E+00 0.45805595E+03</pdfrwt>
<pdfrwt beam="2">  1       21 0.11003259E-01 0.45805595E+03</pdfrwt>
<totfact> 0.47797281E+04</totfact>
</mgrwt>
</event>
<event>
 6    0  0.4831799E-002  0.4521181E+03  0.7546771E-02  0.1027092E+00
         21   -1    0    0  502  501  0.00000000000E+00  0.00000000000E+00  0.51377930674E+02  0.51377930674E+02  0.00000000000E+00 0. -1.
         21   -1    0    0  501  502 -0.00000000000E+00 -0.00000000000E+00 -0.99464287554E+03  0.99464287554E+03  0.00000000000E+00 0. -1.
      99926    2    1    2    0    0  0.35527136788E-14  0.00000000000E+00 -0.94326494487E+03  0.10460208062E+04  0.45211809388E+03 0.  0.
         25    1    3    3    0    0 -0.38562664364E+02  0.82885751631E+02 -0.32174229618E+03  0.35710326260E+03  0.12509000000E+03 0.  0.
         25    1    3    3    0    0  0.13138562086E+02  0.61600128707E+01 -0.39096387231E+03  0.41074423322E+03  0.12509000000E+03 0.  0.
         25    1    3    3    0    0  0.25424102277E+02 -0.89045764502E+02 -0.23055877637E+03  0.27817331039E+03  0.12509000000E+03 0.  0.
<mgrwt>
<rscale>  2 0.45211809E+03</rscale>
<asrwt>0</asrwt>
<pdfrwt beam="1">  1       21 0.75555770E-02 0.45211809E+03</pdfrwt>
<pdfrwt beam="2">  1       21 0.14627103E+00 0.45211809E+03</pdfrwt>
<totfact> 0.38277556E+04</totfact>
</mgrwt>
</event>
<event>
 7    0  0.4831799E-002  0.4538445E+03  0.7546771E-02  0.1026582E+00
         21   -1    0    0  502  501  0.00000000000E+00  0.00000000000E+00  0.23718231722E+03  0.23718231722E+03  0.00000000000E+00 0.  1.
         21   -1    0    0  501  502 -0.00000000000E+00 -0.00000000000E+00 -0.21710596788E+03  0.21710596788E+03  0.00000000000E+00 0.  1.
      99926    2    1    2    0    0  0.35527136788E-14  0.71054273576E-14  0.20076349337E+02  0.45428828510E+03  0.45384445152E+03 0.  0.
      99925    2    3    3    0    0  0.30839988854E+02  0.58477876104E+02 -0.77936379260E+02  0.28216980854E+03  0.26301132054E+03 0.  0.
         25    1    4    4    0    0  0.52071047133E+02  0.41050873211E+02 -0.25873986103E+02  0.14392199067E+03  0.12509000000E+03 0.  0.
         25    1    4    4    0    0 -0.21231058278E+02  0.17427002894E+02 -0.52062393158E+02  0.13824781787E+03  0.12509000000E+03 0.  0.
         25    1    3    3    0    0 -0.30839988854E+02 -0.58477876104E+02  0.98012728597E+02  0.17211847656E+03  0.12509000000E+03 0.  0.
<mgrwt>
<rscale>  2 0.45384445E+03</rscale>
<asrwt>0</asrwt>
<pdfrwt beam="1">  1       21 0.34879753E-01 0.45384445E+03</pdfrwt>
<pdfrwt beam="2">  1       21 0.31927348E-01 0.45384445E+03</pdfrwt>
<totfact> 0.69234125E+04</totfact>
</mgrwt>
</event>
<event>
 7    0  0.4831799E-002  0.4558927E+03  0.7546771E-02  0.1025979E+00
         21   -1    0    0  502  501  0.00000000000E+00  0.00000000000E+00  0.49476500188E+02  0.49476500188E+02  0.00000000000E+00 0.  1.
         21   -1    0    0  501  502 -0.00000000000E+00 -0.00000000000E+00 -0.10501862167E+04  0.10501862167E+04  0.00000000000E+00 0.  1.
      99926    2    1    2    0    0  0.88817841970E-15  0.71054273576E-14 -0.10007097165E+04  0.10996627169E+04  0.45589270030E+03 0.  0.
      99925    2    3    3    0    0  0.44210587466E+01  0.34469436782E+02 -0.36711328088E+03  0.45290183435E+03  0.26294528467E+03 0.  0.
         25    1    4    4    0    0  0.31785460910E+01  0.20482325944E+02 -0.11530222471E+03  0.17138185422E+03  0.12509000000E+03 0.  0.
         25    1    4    4    0    0  0.12425126557E+01  0.13987110838E+02 -0.25181105617E+03  0.28151998013E+03  0.12509000000E+03 0.  0.
         25    1    3    3    0    0 -0.44210587466E+01 -0.34469436782E+02 -0.63359643560E+03  0.64676088251E+03  0.12509000000E+03 0.  0.
<mgrwt>
<rscale>  2 0.45589270E+03</rscale>
<asrwt>0</asrwt>
<pdfrwt beam="1">  1       21 0.72759561E-02 0.45589270E+03</pdfrwt>
<pdfrwt beam="2">  1       21 0.15443915E+00 0.45589270E+03</pdfrwt>
<totfact> 0.35259746E+04</totfact>
</mgrwt>
</event>
<event>
 7    0  0.4831799E-002  0.4546363E+03  0.7546771E-02  0.1026348E+00
         21   -1    0    0  502  501  0.00000000000E+00  0.00000000000E+00  0.17263894041E+03  0.17263894041E+03  0.00000000000E+00 0.  1.
         21   -1    0    0  501  502 -0.00000000000E+00 -0.00000000000E+00 -0.29931564538E+03  0.29931564538E+03  0.00000000000E+00 0.  1.
      99926    2    1    2    0    0  0.00000000000E+00  0.17763568394E-14 -0.12667670497E+03  0.47195458579E+03  0.45463627602E+03 0.  0.
      99925    2    3    3    0    0  0.10591664353E+03 -0.90709997488E+01 -0.11888505767E+03  0.30761093280E+03  0.26304032129E+03 0.  0.
         25    1    3    3    0    0 -0.10591664353E+03  0.90709997488E+01 -0.77916472980E+01  0.16434365300E+03  0.12509000000E+03 0.  0.
         25    1    4    4    0    0  0.70942907120E+02  0.21633362533E+02 -0.33707995980E+02  0.14928039234E+03  0.12509000000E+03 0.  0.
         25    1    4    4    0    0  0.34973736411E+02 -0.30704362282E+02 -0.85177061691E+02  0.15833054045E+03  0.12509000000E+03 0.  0.
<mgrwt>
<rscale>  2 0.45463628E+03</rscale>
<asrwt>0</asrwt>
<pdfrwt beam="1">  1       21 0.25388080E-01 0.45463628E+03</pdfrwt>
<pdfrwt beam="2">  1       21 0.44017006E-01 0.45463628E+03</pdfrwt>
<totfact> 0.67485189E+04</totfact>
</mgrwt>
</event>
<event>
 7    0  0.4831799E-002  0.4508304E+03  0.7546771E-02  0.1027475E+00
         21   -1    0    0  502  501  0.00000000000E+00  0.00000000000E+00  0.52717696052E+03  0.52717696052E+03  0.00000000000E+00 0. -1.
         21   -1    0    0  501  502 -0.00000000000E+00 -0.00000000000E+00 -0.96385129488E+02  0.96385129488E+02  0.00000000000E+00 0. -1.
      99926    2    1    2    0    0 -0.88817841970E-15  0.00000000000E+00  0.43079183103E+03  0.62356209000E+03  0.45083043199E+03 0.  0.
      99925    2    3    3    0    0 -0.22383720340E+01 -0.70715330942E+02  0.38758730306E+03  0.47349607894E+03  0.26261940320E+03 0.  0.
         25    1    4    4    0    0 -0.36327692099E+02 -0.34975390486E+02  0.16126466121E+03  0.21023029802E+03  0.12509000000E+03 0.  0.
         25    1    3    3    0    0  0.22383720340E+01  0.70715330942E+02  0.43204527968E+02  0.15006601106E+03  0.12509000000E+03 0.  0.
         25    1    4    4    0    0  0.34089320065E+02 -0.35739940456E+02  0.22632264186E+03  0.26326578092E+03  0.12509000000E+03 0.  0.
<mgrwt>
<rscale>  2 0.45083043E+03</rscale>
<asrwt>0</asrwt>
<pdfrwt beam="1">  1       21 0.77526022E-01 0.45083043E+03</pdfrwt>
<pdfrwt beam="2">  1       21 0.14174284E-01 0.45083043E+03</pdfrwt>
<totfact> 0.59175049E+04</totfact>
</mgrwt>
</event>
<event>
 7    0  0.4831799E-002  0.4492252E+03  0.7546771E-02  0.1027953E+00
         21   -1    0    0  502  501  0.00000000000E+00  0.00000000000E+00  0.42796225336E+03  0.42796225336E+03  0.00000000000E+00 0.  1.
         21   -1    0    0  501  502 -0.00000000000E+00 -0.00000000000E+00 -0.11788615253E+03  0.11788615253E+03  0.00000000000E+00 0.  1.
      99926    2    1    2    0    0  0.14210854715E-13  0.00000000000E+00  0.31007610082E+03  0.54584840589E+03  0.44922521513E+03 0.  0.
      99925    2    3    3    0    0 -0.10039412756E+03 -0.34663320179E+02  0.17465860586E+03  0.33309048558E+03  0.26298881415E+03 0.  0.
         25    1    4    4    0    0 -0.19633682292E+02  0.12995572173E+02  0.79109965719E+02  0.14986747864E+03  0.12509000000E+03 0.  0.
         25    1    4    4    0    0 -0.80760445265E+02 -0.47658892352E+02  0.95548640145E+02  0.18322300694E+03  0.12509000000E+03 0.  0.
         25    1    3    3    0    0  0.10039412756E+03  0.34663320179E+02  0.13541749496E+03  0.21275792031E+03  0.12509000000E+03 0.  0.
<mgrwt>
<rscale>  2 0.44922522E+03</rscale>
<asrwt>0</asrwt>
<pdfrwt beam="1">  1       21 0.62935625E-01 0.44922522E+03</pdfrwt>
<pdfrwt beam="2">  1       21 0.17336199E-01 0.44922522E+03</pdfrwt>
<totfact> 0.65064146E+04</totfact>
</mgrwt>
</event>
<event>
 7    0  0.4831799E-002  0.4605973E+03  0.7546771E-02  0.1024608E+00
         21   -1    0    0  502  501  0.00000000000E+00  0.00000000000E+00  0.11503578026E+04  0.11503578026E+04  0.00000000000E+00 0. -1.
         21   -1    0    0  501  502 -0.00000000000E+00 -0.00000000000E+00 -0.46105184129E+02  0.46105184129E+02  0.00000000000E+00 0. -1.
      99926    2    1    2    0    0  0.00000000000E+00  0.00000000000E+00  0.11042526185E+04  0.11964629867E+04  0.46059725706E+03 0.  0.
      99925    2    3    3    0    0  0.95544224056E+02  0.45449137589E+02  0.55084472291E+03  0.61931298038E+03  0.26253444736E+03 0.  0.
         25    1    3    3    0    0 -0.95544224056E+02 -0.45449137589E+02  0.55340789557E+03  0.57715000636E+03  0.12509000000E+03 0.  0.
         25    1    4    4    0    0  0.30276069569E+02  0.28362633897E+02  0.18769687908E+03  0.22934407755E+03  0.12509000000E+03 0.  0.
         25    1    4    4    0    0  0.65268154487E+02  0.17086503691E+02  0.36314784382E+03  0.38996890283E+03  0.12509000000E+03 0.  0.
<mgrwt>
<rscale>  2 0.46059726E+03</rscale>
<asrwt>0</asrwt>
<pdfrwt beam="1">  1       21 0.16917025E+00 0.46059726E+03</pdfrwt>
<pdfrwt beam="2">  1       21 0.67801749E-02 0.46059726E+03</pdfrwt>
<totfact> 0.30898793E+04</totfact>
</mgrwt>
</event>
<event>
 7    0  0.4831799E-002  0.4564972E+03  0.7546771E-02  0.1025802E+00
         21   -1    0    0  502  501  0.00000000000E+00  0.00000000000E+00  0.10890117261E+03  0.10890117261E+03  0.00000000000E+00 0.  1.
         21   -1    0    0  501  502 -0.00000000000E+00 -0.00000000000E+00 -0.47839170633E+03  0.47839170633E+03  0.00000000000E+00 0.  1.
      99926    2    1    2    0    0 -0.35527136788E-14  0.00000000000E+00 -0.36949053372E+03  0.58729287894E+03  0.45649717539E+03 0.  0.
      99925    2    3    3    0    0 -0.18254024821E+02 -0.61090636086E+02 -0.35463943976E+03  0.44610740401E+03  0.26301598514E+03 0.  0.
         25    1    3    3    0    0  0.18254024821E+02  0.61090636086E+02 -0.14851093960E+02  0.14118547493E+03  0.12509000000E+03 0.  0.
         25    1    4    4    0    0 -0.20086028667E+02 -0.62749471793E+02 -0.22660469761E+03  0.26709201005E+03  0.12509000000E+03 0.  0.
         25    1    4    4    0    0  0.18320038456E+01  0.16588357065E+01 -0.12803474215E+03  0.17901539395E+03  0.12509000000E+03 0.  0.
<mgrwt>
<rscale>  2 0.45649718E+03</rscale>
<asrwt>0</asrwt>
<pdfrwt beam="1">  1       21 0.16014878E-01 0.45649718E+03</pdfrwt>
<pdfrwt beam="2">  1       21 0.70351723E-01 0.45649718E+03</pdfrwt>
<totfact> 0.58768760E+04</totfact>
</mgrwt>
</event>
<event>
 7    0  0.4831799E-002  0.4532002E+03  0.7546771E-02  0.1026772E+00
         21   -1    0    0  502  501  0.00000000000E+00  0.00000000000E+00  0.18802698442E+03  0.18802698442E+03  0.00000000000E+00 0.  1.
         21   -1    0    0  501  502 -0.00000000000E+00 -0.00000000000E+00 -0.27308642172E+03  0.27308642172E+03  0.00000000000E+00 0.  1.
      99926    2    1    2    0    0 -0.35527136788E-14 -0.14210854715E-13 -0.85059437302E+02  0.46111340613E+03  0.45320024872E+03 0.  0.
      99925    2    3    3    0    0 -0.29330597048E+02 -0.85027780433E+02 -0.12035309431E+03  0.30305279215E+03  0.26318457430E+03 0.  0.
         25    1    3    3    0    0  0.29330597048E+02  0.85027780433E+02  0.35293657012E+02  0.15806061399E+03  0.12509000000E+03 0.  0.
         25    1    4    4    0    0  0.86139392366E+01 -0.74685686669E+02 -0.50179873938E+02  0.15432977545E+03  0.12509000000E+03 0.  0.
         25    1    4    4    0    0 -0.37944536285E+02 -0.10342093764E+02 -0.70173220376E+02  0.14872301670E+03  0.12509000000E+03 0.  0.
<mgrwt>
<rscale>  2 0.45320025E+03</rscale>
<asrwt>0</asrwt>
<pdfrwt beam="1">  1       21 0.27651027E-01 0.45320025E+03</pdfrwt>
<pdfrwt beam="2">  1       21 0.40159767E-01 0.45320025E+03</pdfrwt>
<totfact> 0.69082716E+04</totfact>
</mgrwt>
</event>
<event>
 7    0  0.4831799E-002  0.4481952E+03  0.7546771E-02  0.1028262E+00
         21   -1    0    0  502  501  0.00000000000E+00  0.00000000000E+00  0.35402526393E+02  0.35402526393E+02  0.00000000000E+00 0. -1.
         21   -1    0    0  501  502 -0.00000000000E+00 -0.00000000000E+00 -0.14185350887E+04  0.14185350887E+04  0.00000000000E+00 0. -1.
      99926    2    1    2    0    0  0.00000000000E+00  0.00000000000E+00 -0.13831325623E+04  0.14539376151E+04  0.44819516248E+03 0.  0.
      99925    2    3    3    0    0  0.82711711061E+02 -0.64441595091E+02 -0.81280860906E+03  0.86071685848E+03  0.26302419887E+03 0.  0.
         25    1    4    4    0    0  0.32535424354E+02 -0.21496153808E+02 -0.50895467733E+03  0.52555019755E+03  0.12509000000E+03 0.  0.
         25    1    4    4    0    0  0.50176286707E+02 -0.42945441283E+02 -0.30385393172E+03  0.33516666093E+03  0.12509000000E+03 0.  0.
         25    1    3    3    0    0 -0.82711711061E+02  0.64441595091E+02 -0.57032395325E+03  0.59322075661E+03  0.12509000000E+03 0.  0.
<mgrwt>
<rscale>  2 0.44819516E+03</rscale>
<asrwt>0</asrwt>
<pdfrwt beam="1">  1       21 0.52062549E-02 0.44819516E+03</pdfrwt>
<pdfrwt beam="2">  1       21 0.20860806E+00 0.44819516E+03</pdfrwt>
<totfact> 0.26292243E+04</totfact>
</mgrwt>
</event>
<event>
 7    0  0.4831799E-002  0.4545281E+03  0.7546771E-02  0.1026380E+00
         21   -1    0    0  502  501  0.00000000000E+00  0.00000000000E+00  0.10385499809E+03  0.10385499809E+03  0.00000000000E+00 0. -1.
         21   -1    0    0  501  502 -0.00000000000E+00 -0.00000000000E+00 -0.49731793737E+03  0.49731793737E+03  0.00000000000E+00 0. -1.
      99926    2    1    2    0    0  0.00000000000E+00  0.71054273576E-14 -0.39346293928E+03  0.60117293546E+03  0.45452812207E+03 0.  0.
      99925    2    3    3    0    0  0.67592881153E+02  0.62401962730E+02 -0.16364444009E+03  0.32381602964E+03  0.26384562863E+03 0.  0.
         25    1    4    4    0    0  0.26153234657E+02  0.15139958101E+01 -0.42317679251E+02  0.13462755269E+03  0.12509000000E+03 0.  0.
         25    1    3    3    0    0 -0.67592881153E+02 -0.62401962730E+02 -0.22981849919E+03  0.27735690582E+03  0.12509000000E+03 0.  0.
         25    1    4    4    0    0  0.41439646496E+02  0.60887966920E+02 -0.12132676084E+03  0.18918847695E+03  0.12509000000E+03 0.  0.
<mgrwt>
<rscale>  2 0.45452812E+03</rscale>
<asrwt>0</asrwt>
<pdfrwt beam="1">  1       21 0.15272794E-01 0.45452812E+03</pdfrwt>
<pdfrwt beam="2">  1       21 0.73134990E-01 0.45452812E+03</pdfrwt>
<totfact> 0.58825140E+04</totfact>
</mgrwt>
</event>
<event>
 7    0  0.4831799E-002  0.4676732E+03  0.7546771E-02  0.1022579E+00
         21   -1    0    0  502  501  0.00000000000E+00  0.00000000000E+00  0.72170929365E+02  0.72170929365E+02  0.00000000000E+00 0.  1.
         21   -1    0    0  501  502 -0.00000000000E+00 -0.00000000000E+00 -0.75763949124E+03  0.75763949124E+03  0.00000000000E+00 0.  1.
      99926    2    1    2    0    0  0.00000000000E+00  0.00000000000E+00 -0.68546856187E+03  0.82981042060E+03  0.46767316026E+03 0.  0.
      99925    2    3    3    0    0 -0.91316816339E+02 -0.81644024461E+02 -0.38548554249E+03  0.48247509603E+03  0.26301826390E+03 0.  0.
         25    1    4    4    0    0 -0.71238517105E+02 -0.68893525341E+02 -0.24956751352E+03  0.29623081551E+03  0.12509000000E+03 0.  0.
         25    1    4    4    0    0 -0.20078299234E+02 -0.12750499120E+02 -0.13591802897E+03  0.18624428052E+03  0.12509000000E+03 0.  0.
         25    1    3    3    0    0  0.91316816339E+02  0.81644024461E+02 -0.29998301939E+03  0.34733532457E+03  0.12509000000E+03 0.  0.
<mgrwt>
<rscale>  2 0.46767316E+03</rscale>
<asrwt>0</asrwt>
<pdfrwt beam="1">  1       21 0.10613372E-01 0.46767316E+03</pdfrwt>
<pdfrwt beam="2">  1       21 0.11141757E+00 0.46767316E+03</pdfrwt>
<totfact> 0.42019760E+04</totfact>
</mgrwt>
</event>
<event>
 7    0  0.4831799E-002  0.4482266E+03  0.7546771E-02  0.1028252E+00
         21   -1    0    0  502  501  0.00000000000E+00  0.00000000000E+00  0.17277486001E+04  0.17277486001E+04  0.00000000000E+00 0. -1.
         21   -1    0    0  501  502 -0.00000000000E+00 -0.00000000000E+00 -0.29070646971E+02  0.29070646971E+02  0.00000000000E+00 0. -1.
      99926    2    1    2    0    0 -0.71054273576E-14  0.00000000000E+00  0.16986779532E+04  0.17568192471E+04  0.44822659274E+03 0.  0.
      99925    2    3    3    0    0 -0.32193256212E+02  0.77388083803E+02  0.13343651331E+04  0.13626154163E+04  0.26299266728E+03 0.  0.
         25    1    4    4    0    0  0.10146289099E+02  0.27966441401E+02  0.49166916964E+03  0.50820384640E+03  0.12509000000E+03 0.  0.
         25    1    4    4    0    0 -0.42339545310E+02  0.49421642402E+02  0.84269596348E+03  0.85441156992E+03  0.12509000000E+03 0.  0.
         25    1    3    3    0    0  0.32193256212E+02 -0.77388083803E+02  0.36431282005E+03  0.39420383079E+03  0.12509000000E+03 0.  0.
<mgrwt>
<rscale>  2 0.44822659E+03</rscale>
<asrwt>0</asrwt>
<pdfrwt beam="1">  1       21 0.25408061E+00 0.44822659E+03</pdfrwt>
<pdfrwt beam="2">  1       21 0.42750963E-02 0.44822659E+03</pdfrwt>
<totfact> 0.19088342E+04</totfact>
</mgrwt>
</event>
<event>
 7    0  0.4831799E-002  0.4586200E+03  0.7546771E-02  0.1025182E+00
         21   -1    0    0  502  501  0.00000000000E+00  0.00000000000E+00  0.55202869477E+02  0.55202869477E+02  0.00000000000E+00 0. -1.
         21   -1    0    0  501  502 -0.00000000000E+00 -0.00000000000E+00 -0.95254225786E+03  0.95254225786E+03  0.00000000000E+00 0. -1.
      99926    2    1    2    0    0 -0.17763568394E-14  0.00000000000E+00 -0.89733938838E+03  0.10077451273E+04  0.45861995566E+03 0.  0.
      99925    2    3    3    0    0 -0.11197187435E+02 -0.98853908499E+02 -0.69616561840E+03  0.75080959834E+03  0.26300382599E+03 0.  0.
         25    1    3    3    0    0  0.11197187435E+02  0.98853908499E+02 -0.20117376998E+03  0.25693552900E+03  0.12509000000E+03 0.  0.
         25    1    4    4    0    0  0.34523376302E+02 -0.54072303558E+02 -0.35812339076E+03  0.38472788907E+03  0.12509000000E+03 0.  0.
         25    1    4    4    0    0 -0.45720563738E+02 -0.44781604941E+02 -0.33804222764E+03  0.36608170927E+03  0.12509000000E+03 0.  0.
<mgrwt>
<rscale>  2 0.45861996E+03</rscale>
<asrwt>0</asrwt>
<pdfrwt beam="1">  1       21 0.81180693E-02 0.45861996E+03</pdfrwt>
<pdfrwt beam="2">  1       21 0.14007974E+00 0.45861996E+03</pdfrwt>
<totfact> 0.37787342E+04</totfact>
</mgrwt>
</event>
<event>
 7    0  0.4831799E-002  0.4564525E+03  0.7546771E-02  0.1025815E+00
         21   -1    0    0  502  501  0.00000000000E+00  0.00000000000E+00  0.33387314195E+03  0.33387314195E+03  0.00000000000E+00 0. -1.
         21   -1    0    0  501  502 -0.00000000000E+00 -0.00000000000E+00 -0.15600899260E+03  0.15600899260E+03  0.00000000000E+00 0. -1.
      99926    2    1    2    0    0 -0.35527136788E-14  0.14210854715E-13  0.17786414934E+03  0.48988213455E+03  0.45645246207E+03 0.  0.
      99925    2    3    3    0    0 -0.88864523779E+01  0.11397512769E+03  0.11927251355E+03  0.31057851871E+03  0.26299008542E+03 0.  0.
         25    1    4    4    0    0 -0.42776604985E+02  0.70262039969E+02  0.69136835643E+02  0.16490604094E+03  0.12509000000E+03 0.  0.
         25    1    3    3    0    0  0.88864523779E+01 -0.11397512769E+03  0.58591635796E+02  0.17930361584E+03  0.12509000000E+03 0.  0.
         25    1    4    4    0    0  0.33890152607E+02  0.43713087719E+02  0.50135677904E+02  0.14567247777E+03  0.12509000000E+03 0.  0.
<mgrwt>
<rscale>  2 0.45645246E+03</rscale>
<asrwt>0</asrwt>
<pdfrwt beam="1">  1       21 0.49098992E-01 0.45645246E+03</pdfrwt>
<pdfrwt beam="2">  1       21 0.22942499E-01 0.45645246E+03</pdfrwt>
<totfact> 0.65232068E+04</totfact>
</mgrwt>
</event>
<event>
 7    0  0.4831799E-002  0.4569085E+03  0.7546771E-02  0.1025682E+00
         21   -1    0    0  502  501  0.00000000000E+00  0.00000000000E+00  0.43256000243E+02  0.43256000243E+02  0.00000000000E+00 0.  1.
         21   -1    0    0  501  502 -0.00000000000E+00 -0.00000000000E+00 -0.12065691082E+04  0.12065691082E+04  0.00000000000E+00 0.  1.
      99926    2    1    2    0    0 -0.14210854715E-13  0.00000000000E+00 -0.11633131080E+04  0.12498251085E+04  0.45690854069E+03 0.  0.
      99925    2    3    3    0    0 -0.96194609287E+02  0.61822924004E+02 -0.76142769102E+03  0.81366587922E+03  0.26306759126E+03 0.  0.
         25    1    3    3    0    0  0.96194609287E+02 -0.61822924004E+02 -0.40188541695E+03  0.43615922923E+03  0.12509000000E+03 0.  0.
         25    1    4    4    0    0 -0.24194929231E+02 -0.49808096330E+01 -0.35732050094E+03  0.37938852323E+03  0.12509000000E+03 0.  0.
         25    1    4    4    0    0 -0.71999680056E+02  0.66803733637E+02 -0.40410719008E+03  0.43427735599E+03  0.12509000000E+03 0.  0.
<mgrwt>
<rscale>  2 0.45690854E+03</rscale>
<asrwt>0</asrwt>
<pdfrwt beam="1">  1       21 0.63611766E-02 0.45690854E+03</pdfrwt>
<pdfrwt beam="2">  1       21 0.17743663E+00 0.45690854E+03</pdfrwt>
<totfact> 0.30156857E+04</totfact>
</mgrwt>
</event>
<event>
 7    0  0.4831799E-002  0.4458301E+03  0.7546771E-02  0.1028973E+00
         21   -1    0    0  502  501  0.00000000000E+00  0.00000000000E+00  0.12156386578E+04  0.12156386578E+04  0.00000000000E+00 0.  1.
         21   -1    0    0  501  502 -0.00000000000E+00 -0.00000000000E+00 -0.40876548694E+02  0.40876548694E+02  0.00000000000E+00 0.  1.
      99926    2    1    2    0    0  0.00000000000E+00  0.00000000000E+00  0.11747621091E+04  0.12565152064E+04  0.44583006982E+03 0.  0.
      99925    2    3    3    0    0 -0.43198798203E+02  0.76893465012E+02  0.58833110593E+03  0.65043965781E+03  0.26298197109E+03 0.  0.
         25    1    4    4    0    0 -0.40858737729E+02  0.57936548398E+02  0.23924829817E+03  0.27912960496E+03  0.12509000000E+03 0.  0.
         25    1    4    4    0    0 -0.23400604745E+01  0.18956916613E+02  0.34908280776E+03  0.37131005285E+03  0.12509000000E+03 0.  0.
         25    1    3    3    0    0  0.43198798203E+02 -0.76893465012E+02  0.58643100313E+03  0.60607554864E+03  0.12509000000E+03 0.  0.
<mgrwt>
<rscale>  2 0.44583007E+03</rscale>
<asrwt>0</asrwt>
<pdfrwt beam="1">  1       21 0.17877037E+00 0.44583007E+03</pdfrwt>
<pdfrwt beam="2">  1       21 0.60112579E-02 0.44583007E+03</pdfrwt>
<totfact> 0.32674276E+04</totfact>
</mgrwt>
</event>
<event>
 7    0  0.4831799E-002  0.4181924E+03  0.7546771E-02  0.1037656E+00
         21   -1    0    0  502  501  0.00000000000E+00  0.00000000000E+00  0.62104147562E+02  0.62104147562E+02  0.00000000000E+00 0. -1.
         21   -1    0    0  501  502 -0.00000000000E+00 -0.00000000000E+00 -0.70399856790E+03  0.70399856790E+03  0.00000000000E+00 0. -1.
      99926    2    1    2    0    0  0.00000000000E+00 -0.35527136788E-14 -0.64189442034E+03  0.76610271547E+03  0.41819244826E+03 0.  0.
      99925    2    3    3    0    0  0.54009829793E+02  0.18081862609E+02 -0.33404791012E+03  0.42896624840E+03  0.26302095077E+03 0.  0.
         25    1    4    4    0    0  0.45310330376E+02 -0.20507178468E+02 -0.20263759211E+03  0.24327571240E+03  0.12509000000E+03 0.  0.
         25    1    3    3    0    0 -0.54009829793E+02 -0.18081862609E+02 -0.30784651022E+03  0.33713646706E+03  0.12509000000E+03 0.  0.
         25    1    4    4    0    0  0.86994994173E+01  0.38589041077E+02 -0.13141031801E+03  0.18569053601E+03  0.12509000000E+03 0.  0.
<mgrwt>
<rscale>  2 0.41819245E+03</rscale>
<asrwt>0</asrwt>
<pdfrwt beam="1">  1       21 0.91329634E-02 0.41819245E+03</pdfrwt>
<pdfrwt beam="2">  1       21 0.10352920E+00 0.41819245E+03</pdfrwt>
<totfact> 0.66745667E+04</totfact>
</mgrwt>
</event>
<event>
 7    0  0.4831799E-002  0.4533795E+03  0.7546771E-02  0.1026719E+00
         21   -1    0    0  502  501  0.00000000000E+00  0.00000000000E+00  0.11163095824E+04  0.11163095824E+04  0.00000000000E+00 0.  1.
         21   -1    0    0  501  502 -0.00000000000E+00 -0.00000000000E+00 -0.46034035114E+02  0.46034035114E+02  0.00000000000E+00 0.  1.
      99926    2    1    2    0    0  0.00000000000E+00 -0.14210854715E-13  0.10702755473E+04  0.11623436175E+04  0.45337946365E+03 0.  0.
      99925    2    3    3    0    0 -0.18971108591E+02  0.10839368922E+03  0.62704708776E+03  0.68883747156E+03  0.26305877125E+03 0.  0.
         25    1    4    4    0    0 -0.27235520572E+02  0.41598142260E+02  0.38898221782E+03  0.41161493280E+03  0.12509000000E+03 0.  0.
         25    1    4    4    0    0  0.82644119813E+01  0.66795546957E+02  0.23806486994E+03  0.27722253876E+03  0.12509000000E+03 0.  0.
         25    1    3    3    0    0  0.18971108591E+02 -0.10839368922E+03  0.44322845952E+03  0.47350614595E+03  0.12509000000E+03 0.  0.
<mgrwt>
<rscale>  2 0.45337946E+03</rscale>
<asrwt>0</asrwt>
<pdfrwt beam="1">  1       21 0.16416316E+00 0.45337946E+03</pdfrwt>
<pdfrwt beam="2">  1       21 0.67697118E-02 0.45337946E+03</pdfrwt>
<totfact> 0.33797703E+04</totfact>
</mgrwt>
</event>
<event>
 7    0  0.4831799E-002  0.4598849E+03  0.7546771E-02  0.1024815E+00
         21   -1    0    0  502  501  0.00000000000E+00  0.00000000000E+00  0.20223227612E+03  0.20223227612E+03  0.00000000000E+00 0.  1.
         21   -1    0    0  501  502 -0.00000000000E+00 -0.00000000000E+00 -0.26144955768E+03  0.26144955768E+03  0.00000000000E+00 0.  1.
      99926    2    1    2    0    0  0.00000000000E+00  0.00000000000E+00 -0.59217281559E+02  0.46368183380E+03  0.45988493839E+03 0.  0.
      99925    2    3    3    0    0  0.77594651999E+02  0.84477627305E+02 -0.93523226849E+01  0.28678801888E+03  0.26268327373E+03 0.  0.
         25    1    3    3    0    0 -0.77594651999E+02 -0.84477627305E+02 -0.49864958874E+02  0.17689381492E+03  0.12509000000E+03 0.  0.
         25    1    4    4    0    0  0.55694739529E+02  0.21583180798E+02  0.25276076243E+02  0.14090466932E+03  0.12509000000E+03 0.  0.
         25    1    4    4    0    0  0.21899912470E+02  0.62894446507E+02 -0.34628398927E+02  0.14588334956E+03  0.12509000000E+03 0.  0.
<mgrwt>
<rscale>  2 0.45988494E+03</rscale>
<asrwt>0</asrwt>
<pdfrwt beam="1">  1       21 0.29740041E-01 0.45988494E+03</pdfrwt>
<pdfrwt beam="2">  1       21 0.38448464E-01 0.45988494E+03</pdfrwt>
<totfact> 0.65330651E+04</totfact>
</mgrwt>
</event>
<event>
 7    0  0.4831799E-002  0.4503738E+03  0.7546771E-02  0.1027611E+00
         21   -1    0    0  502  501  0.00000000000E+00  0.00000000000E+00  0.27122932885E+03  0.27122932885E+03  0.00000000000E+00 0.  1.
         21   -1    0    0  501  502 -0.00000000000E+00 -0.00000000000E+00 -0.18696034584E+03  0.18696034584E+03  0.00000000000E+00 0.  1.
      99926    2    1    2    0    0  0.00000000000E+00  0.00000000000E+00  0.84268983013E+02  0.45818967469E+03  0.45037375201E+03 0.  0.
      99925    2    3    3    0    0 -0.86290523784E+02  0.66024852490E+02  0.58286494701E+02  0.29047583078E+03  0.26300866366E+03 0.  0.
         25    1    4    4    0    0 -0.70835659091E+02  0.52487281218E+02  0.58144293183E+02  0.16370971938E+03  0.12509000000E+03 0.  0.
         25    1    3    3    0    0  0.86290523784E+02 -0.66024852490E+02  0.25982488311E+02  0.16771384391E+03  0.12509000000E+03 0.  0.
         25    1    4    4    0    0 -0.15454864693E+02  0.13537571272E+02  0.14220151861E+00  0.12676611140E+03  0.12509000000E+03 0.  0.
<mgrwt>
<rscale>  2 0.45037375E+03</rscale>
<asrwt>0</asrwt>
<pdfrwt beam="1">  1       21 0.39886666E-01 0.45037375E+03</pdfrwt>
<pdfrwt beam="2">  1       21 0.27494168E-01 0.45037375E+03</pdfrwt>
<totfact> 0.70890077E+04</totfact>
</mgrwt>
</event>
<event>
 7    0  0.4831799E-002  0.4552027E+03  0.7546771E-02  0.1026182E+00
         21   -1    0    0  502  501  0.00000000000E+00  0.00000000000E+00  0.23760851586E+03  0.23760851586E+03  0.00000000000E+00 0.  1.
         21   -1    0    0  501  502 -0.00000000000E+00 -0.00000000000E+00 -0.21801561468E+03  0.21801561468E+03  0.00000000000E+00 0.  1.
      99926    2    1    2    0    0  0.00000000000E+00  0.00000000000E+00  0.19592901176E+02  0.45562413054E+03  0.45520266537E+03 0.  0.
      99925    2    3    3    0    0  0.74828460184E+02  0.65264615847E+02  0.65891057443E+02  0.28934185275E+03  0.26366324690E+03 0.  0.
         25    1    4    4    0    0  0.27706660151E+02 -0.90967300525E+01  0.23082216922E+02  0.13050174846E+03  0.12509000000E+03 0.  0.
         25    1    4    4    0    0  0.47121800033E+02  0.74361345900E+02  0.42808840520E+02  0.15884010428E+03  0.12509000000E+03 0.  0.
         25    1    3    3    0    0 -0.74828460184E+02 -0.65264615847E+02 -0.46298156267E+02  0.16628227780E+03  0.12509000000E+03 0.  0.
<mgrwt>
<rscale>  2 0.45520267E+03</rscale>
<asrwt>0</asrwt>
<pdfrwt beam="1">  1       21 0.34942429E-01 0.45520267E+03</pdfrwt>
<pdfrwt beam="2">  1       21 0.32061120E-01 0.45520267E+03</pdfrwt>
<totfact> 0.68389459E+04</totfact>
</mgrwt>
</event>
<event>
 7    0  0.4831799E-002  0.4361316E+03  0.7546771E-02  0.1031940E+00
         21   -1    0    0  502  501  0.00000000000E+00  0.00000000000E+00  0.62612428642E+02  0.62612428642E+02  0.00000000000E+00 0.  1.
         21   -1    0    0  501  502 -0.00000000000E+00 -0.00000000000E+00 -0.75947698339E+03  0.75947698339E+03  0.00000000000E+00 0.  1.
      99926    2    1    2    0    0  0.00000000000E+00  0.00000000000E+00 -0.69686455475E+03  0.82208941203E+03  0.43613162430E+03 0.  0.
      99925    2    3    3    0    0 -0.60008459340E+02 -0.60548046813E+02 -0.52287759571E+03  0.59146840002E+03  0.26299583070E+03 0.  0.
         25    1    3    3    0    0  0.60008459340E+02  0.60548046813E+02 -0.17398695904E+03  0.23062101201E+03  0.12509000000E+03 0.  0.
         25    1    4    4    0    0 -0.53258125866E+02 -0.63853558020E+02 -0.26053257795E+03  0.30072984075E+03  0.12509000000E+03 0.  0.
         25    1    4    4    0    0 -0.67503334731E+01  0.33055112061E+01 -0.26234501776E+03  0.29073855927E+03  0.12509000000E+03 0.  0.
<mgrwt>
<rscale>  2 0.43613162E+03</rscale>
<asrwt>0</asrwt>
<pdfrwt beam="1">  1       21 0.92077108E-02 0.43613162E+03</pdfrwt>
<pdfrwt beam="2">  1       21 0.11168778E+00 0.43613162E+03</pdfrwt>
<totfact> 0.54321679E+04</totfact>
</mgrwt>
</event>
<event>
 7    0  0.4831799E-002  0.4564380E+03  0.7546771E-02  0.1025819E+00
         21   -1    0    0  502  501  0.00000000000E+00  0.00000000000E+00  0.24872903497E+03  0.24872903497E+03  0.00000000000E+00 0. -1.
         21   -1    0    0  501  502 -0.00000000000E+00 -0.00000000000E+00 -0.20940018446E+03  0.20940018446E+03  0.00000000000E+00 0. -1.
      99926    2    1    2    0    0  0.00000000000E+00  0.14210854715E-13  0.39328850513E+02  0.45812921944E+03  0.45643797302E+03 0.  0.
      99925    2    3    3    0    0  0.81125748354E+02 -0.80766802961E+02  0.20963651431E+02  0.28757291746E+03  0.26297156627E+03 0.  0.
         25    1    4    4    0    0  0.46184498897E+02 -0.51453123993E+02 -0.28123851196E+02  0.14566705535E+03  0.12509000000E+03 0.  0.
         25    1    3    3    0    0 -0.81125748354E+02  0.80766802961E+02  0.18365199082E+02  0.17055630198E+03  0.12509000000E+03 0.  0.
         25    1    4    4    0    0  0.34941249456E+02 -0.29313678968E+02  0.49087502627E+02  0.14190586211E+03  0.12509000000E+03 0.  0.
<mgrwt>
<rscale>  2 0.45643797E+03</rscale>
<asrwt>0</asrwt>
<pdfrwt beam="1">  1       21 0.36577799E-01 0.45643797E+03</pdfrwt>
<pdfrwt beam="2">  1       21 0.30794145E-01 0.45643797E+03</pdfrwt>
<totfact> 0.67538965E+04</totfact>
</mgrwt>
</event>
<event>
 7    0  0.4831799E-002  0.4552576E+03  0.7546771E-02  0.1026166E+00
         21   -1    0    0  502  501  0.00000000000E+00  0.00000000000E+00  0.14644064820E+03  0.14644064820E+03  0.00000000000E+00 0.  1.
         21   -1    0    0  501  502 -0.00000000000E+00 -0.00000000000E+00 -0.35382841536E+03  0.35382841536E+03  0.00000000000E+00 0.  1.
      99926    2    1    2    0    0  0.00000000000E+00  0.00000000000E+00 -0.20738776716E+03  0.50026906355E+03  0.45525756444E+03 0.  0.
      99925    2    3    3    0    0  0.58680132974E+02  0.95777668333E+02 -0.14796835640E+03  0.32195783499E+03  0.26295530658E+03 0.  0.
         25    1    4    4    0    0  0.24097454873E+02  0.43111396857E+02 -0.11757741059E+03  0.17863716145E+03  0.12509000000E+03 0.  0.
         25    1    4    4    0    0  0.34582678102E+02  0.52666271475E+02 -0.30390945811E+02  0.14332067354E+03  0.12509000000E+03 0.  0.
         25    1    3    3    0    0 -0.58680132974E+02 -0.95777668333E+02 -0.59419410762E+02  0.17831122857E+03  0.12509000000E+03 0.  0.
<mgrwt>
<rscale>  2 0.45525756E+03</rscale>
<asrwt>0</asrwt>
<pdfrwt beam="1">  1       21 0.21535390E-01 0.45525756E+03</pdfrwt>
<pdfrwt beam="2">  1       21 0.52033589E-01 0.45525756E+03</pdfrwt>
<totfact> 0.65118523E+04</totfact>
</mgrwt>
</event>
<event>
 7    0  0.4831799E-002  0.4563010E+03  0.7546771E-02  0.1025860E+00
         21   -1    0    0  502  501  0.00000000000E+00  0.00000000000E+00  0.21899378551E+04  0.21899378551E+04  0.00000000000E+00 0.  1.
         21   -1    0    0  501  502 -0.00000000000E+00 -0.00000000000E+00 -0.23769009882E+02  0.23769009882E+02  0.00000000000E+00 0.  1.
      99926    2    1    2    0    0  0.14210854715E-13  0.00000000000E+00  0.21661688452E+04  0.22137068650E+04  0.45630101696E+03 0.  0.
      99925    2    3    3    0    0  0.65953828618E+02 -0.89603619740E+02  0.14912168986E+04  0.15183031300E+04  0.26294075368E+03 0.  0.
         25    1    4    4    0    0  0.70408164730E+02 -0.34841186005E+02  0.84318892342E+03  0.85602937250E+03  0.12509000000E+03 0.  0.
         25    1    3    3    0    0 -0.65953828618E+02  0.89603619740E+02  0.67495194667E+03  0.69540373496E+03  0.12509000000E+03 0.  0.
         25    1    4    4    0    0 -0.44543361118E+01 -0.54762433735E+02  0.64802797514E+03  0.66227375754E+03  0.12509000000E+03 0.  0.
<mgrwt>
<rscale>  2 0.45630102E+03</rscale>
<asrwt>0</asrwt>
<pdfrwt beam="1">  1       21 0.32204955E+00 0.45630102E+03</pdfrwt>
<pdfrwt beam="2">  1       21 0.34954441E-02 0.45630102E+03</pdfrwt>
<totfact> 0.10418433E+04</totfact>
</mgrwt>
</event>
<event>
 7    0  0.4831799E-002  0.4596506E+03  0.7546771E-02  0.1024883E+00
         21   -1    0    0  502  501  0.00000000000E+00  0.00000000000E+00  0.71443682124E+02  0.71443682124E+02  0.00000000000E+00 0.  1.
         21   -1    0    0  501  502 -0.00000000000E+00 -0.00000000000E+00 -0.73931897149E+03  0.73931897149E+03  0.00000000000E+00 0.  1.
      99926    2    1    2    0    0  0.00000000000E+00  0.53290705182E-14 -0.66787528937E+03  0.81076265362E+03  0.45965060465E+03 0.  0.
      99925    2    3    3    0    0  0.11075867285E+03 -0.10831655939E+02 -0.35194091251E+03  0.45320587916E+03  0.26296074731E+03 0.  0.
         25    1    4    4    0    0  0.42313779306E+02  0.29619686333E+02 -0.14141788200E+03  0.19574040765E+03  0.12509000000E+03 0.  0.
         25    1    3    3    0    0 -0.11075867285E+03  0.10831655939E+02 -0.31593437686E+03  0.35755677446E+03  0.12509000000E+03 0.  0.
         25    1    4    4    0    0  0.68444893539E+02 -0.40451342273E+02 -0.21052303051E+03  0.25746547151E+03  0.12509000000E+03 0.  0.
<mgrwt>
<rscale>  2 0.45965060E+03</rscale>
<asrwt>0</asrwt>
<pdfrwt beam="1">  1       21 0.10506424E-01 0.45965060E+03</pdfrwt>
<pdfrwt beam="2">  1       21 0.10872338E+00 0.45965060E+03</pdfrwt>
<totfact> 0.45562958E+04</totfact>
</mgrwt>
</event>
<event>
 7    0  0.4831799E-002  0.4632412E+03  0.7546771E-02  0.1023845E+00
         21   -1    0    0  502  501  0.00000000000E+00  0.00000000000E+00  0.34025023377E+03  0.34025023377E+03  0.00000000000E+00 0.  1.
         21   -1    0    0  501  502 -0.00000000000E+00 -0.00000000000E+00 -0.15767248431E+03  0.15767248431E+03  0.00000000000E+00 0.  1.
      99926    2    1    2    0    0  0.00000000000E+00  0.35527136788E-14  0.18257774946E+03  0.49792271808E+03  0.46324118835E+03 0.  0.
      99925    2    3    3    0    0 -0.81977115789E+02  0.22466457961E+02  0.20629686702E+03  0.34483746770E+03  0.26292488004E+03 0.  0.
         25    1    3    3    0    0  0.81977115789E+02 -0.22466457961E+02 -0.23719117561E+02  0.15308525038E+03  0.12509000000E+03 0.  0.
         25    1    4    4    0    0 -0.19217631344E+02 -0.45893618902E+01  0.13624371677E+03  0.18601139228E+03  0.12509000000E+03 0.  0.
         25    1    4    4    0    0 -0.62759484445E+02  0.27055819851E+02  0.70053150247E+02  0.15882607543E+03  0.12509000000E+03 0.  0.
<mgrwt>
<rscale>  2 0.46324119E+03</rscale>
<asrwt>0</asrwt>
<pdfrwt beam="1">  1       21 0.50036799E-01 0.46324119E+03</pdfrwt>
<pdfrwt beam="2">  1       21 0.23187130E-01 0.46324119E+03</pdfrwt>
<totfact> 0.61306705E+04</totfact>
</mgrwt>
</event>
<event>
 7    0  0.4831799E-002  0.4555804E+03  0.7546771E-02  0.1026071E+00
         21   -1    0    0  502  501  0.00000000000E+00  0.00000000000E+00  0.13078812393E+03  0.13078812393E+03  0.00000000000E+00 0. -1.
         21   -1    0    0  501  502 -0.00000000000E+00 -0.00000000000E+00 -0.39673605138E+03  0.39673605138E+03  0.00000000000E+00 0. -1.
      99926    2    1    2    0    0  0.71054273576E-14  0.17763568394E-14 -0.26594792744E+03  0.52752417531E+03  0.45558035013E+03 0.  0.
      99925    2    3    3    0    0  0.34318412443E+02  0.15848707514E+02 -0.42418575466E+02  0.26859983452E+03  0.26252161929E+03 0.  0.
         25    1    4    4    0    0 -0.15784941806E+02 -0.15013306345E+02 -0.21801283208E+02  0.12883077196E+03  0.12509000000E+03 0.  0.
         25    1    4    4    0    0  0.50103354248E+02  0.30862013860E+02 -0.20617292258E+02  0.13976906255E+03  0.12509000000E+03 0.  0.
         25    1    3    3    0    0 -0.34318412443E+02 -0.15848707514E+02 -0.22352935198E+03  0.25892434080E+03  0.12509000000E+03 0.  0.
<mgrwt>
<rscale>  2 0.45558035E+03</rscale>
<asrwt>0</asrwt>
<pdfrwt beam="1">  1       21 0.19233548E-01 0.45558035E+03</pdfrwt>
<pdfrwt beam="2">  1       21 0.58343537E-01 0.45558035E+03</pdfrwt>
<totfact> 0.63083746E+04</totfact>
</mgrwt>
</event>
<event>
 7    0  0.4831799E-002  0.4474551E+03  0.7546771E-02  0.1028484E+00
         21   -1    0    0  502  501  0.00000000000E+00  0.00000000000E+00  0.85307824156E+02  0.85307824156E+02  0.00000000000E+00 0. -1.
         21   -1    0    0  501  502 -0.00000000000E+00 -0.00000000000E+00 -0.58674587517E+03  0.58674587517E+03  0.00000000000E+00 0. -1.
      99926    2    1    2    0    0  0.00000000000E+00 -0.14210854715E-13 -0.50143805102E+03  0.67205369933E+03  0.44745508800E+03 0.  0.
      99925    2    3    3    0    0 -0.35496308870E+02 -0.94458753951E+02 -0.26950927252E+03  0.38988192445E+03  0.26304034462E+03 0.  0.
         25    1    4    4    0    0 -0.24433953116E+02 -0.10091009203E+02 -0.14993773372E+03  0.19704740197E+03  0.12509000000E+03 0.  0.
         25    1    3    3    0    0  0.35496308870E+02  0.94458753951E+02 -0.23192877850E+03  0.28217177488E+03  0.12509000000E+03 0.  0.
         25    1    4    4    0    0 -0.11062355754E+02 -0.84367744748E+02 -0.11957153880E+03  0.19283452248E+03  0.12509000000E+03 0.  0.
<mgrwt>
<rscale>  2 0.44745509E+03</rscale>
<asrwt>0</asrwt>
<pdfrwt beam="1">  1       21 0.12545269E-01 0.44745509E+03</pdfrwt>
<pdfrwt beam="2">  1       21 0.86286154E-01 0.44745509E+03</pdfrwt>
<totfact> 0.57806741E+04</totfact>
</mgrwt>
</event>
<event>
 7    0  0.4831799E-002  0.4547951E+03  0.7546771E-02  0.1026302E+00
         21   -1    0    0  502  501  0.00000000000E+00  0.00000000000E+00  0.22284396707E+03  0.22284396707E+03  0.00000000000E+00 0.  1.
         21   -1    0    0  501  502 -0.00000000000E+00 -0.00000000000E+00 -0.23204422198E+03  0.23204422198E+03  0.00000000000E+00 0.  1.
      99926    2    1    2    0    0 -0.71054273576E-14 -0.14210854715E-13 -0.92002549047E+01  0.45488818905E+03  0.45479514053E+03 0.  0.
      99925    2    3    3    0    0  0.41686505515E+02 -0.92572903635E+02 -0.55430599730E+02  0.28728073065E+03  0.26296417928E+03 0.  0.
         25    1    4    4    0    0 -0.60299519459E+01 -0.13258705034E+02 -0.31764511677E+02  0.12987935125E+03  0.12509000000E+03 0.  0.
         25    1    3    3    0    0 -0.41686505515E+02  0.92572903635E+02  0.46230344825E+02  0.16760745840E+03  0.12509000000E+03 0.  0.
         25    1    4    4    0    0  0.47716457461E+02 -0.79314198601E+02 -0.23666088053E+02  0.15740137940E+03  0.12509000000E+03 0.  0.
<mgrwt>
<rscale>  2 0.45479514E+03</rscale>
<asrwt>0</asrwt>
<pdfrwt beam="1">  1       21 0.32771172E-01 0.45479514E+03</pdfrwt>
<pdfrwt beam="2">  1       21 0.34124150E-01 0.45479514E+03</pdfrwt>
<totfact> 0.68666158E+04</totfact>
</mgrwt>
</event>
<event>
 7    0  0.4831799E-002  0.4556776E+03  0.7546771E-02  0.1026042E+00
         21   -1    0    0  502  501  0.00000000000E+00  0.00000000000E+00  0.59608302356E+03  0.59608302356E+03  0.00000000000E+00 0.  1.
         21   -1    0    0  501  502 -0.00000000000E+00 -0.00000000000E+00 -0.87086049809E+02  0.87086049809E+02  0.00000000000E+00 0.  1.
      99926    2    1    2    0    0  0.00000000000E+00  0.71054273576E-14  0.50899697375E+03  0.68316907337E+03  0.45567758725E+03 0.  0.
      99925    2    3    3    0    0 -0.99342463507E+02  0.54727598753E+02  0.33428424990E+03  0.44019566105E+03  0.26298711974E+03 0.  0.
         25    1    4    4    0    0 -0.74802575691E+02  0.42649449735E+02  0.22717369586E+03  0.27325774844E+03  0.12509000000E+03 0.  0.
         25    1    3    3    0    0  0.99342463507E+02 -0.54727598753E+02  0.17471272385E+03  0.24297341232E+03  0.12509000000E+03 0.  0.
         25    1    4    4    0    0 -0.24539887815E+02  0.12078149018E+02  0.10711055404E+03  0.16693791260E+03  0.12509000000E+03 0.  0.
<mgrwt>
<rscale>  2 0.45567759E+03</rscale>
<asrwt>0</asrwt>
<pdfrwt beam="1">  1       21 0.87659266E-01 0.45567759E+03</pdfrwt>
<pdfrwt beam="2">  1       21 0.12806772E-01 0.45567759E+03</pdfrwt>
<totfact> 0.53540413E+04</totfact>
</mgrwt>
</event>
<event>
 7    0  0.4831799E-002  0.4539945E+03  0.7546771E-02  0.1026537E+00
         21   -1    0    0  502  501  0.00000000000E+00  0.00000000000E+00  0.21955632088E+03  0.21955632088E+03  0.00000000000E+00 0.  1.
         21   -1    0    0  501  502 -0.00000000000E+00 -0.00000000000E+00 -0.23469036528E+03  0.23469036528E+03  0.00000000000E+00 0.  1.
      99926    2    1    2    0    0 -0.14210854715E-13  0.00000000000E+00 -0.15134044392E+02  0.45424668616E+03  0.45399450722E+03 0.  0.
      99925    2    3    3    0    0  0.11033448524E+03  0.14269317707E+02 -0.24252956843E+02  0.28659235509E+03  0.26300125479E+03 0.  0.
         25    1    3    3    0    0 -0.11033448524E+03 -0.14269317707E+02  0.91189124507E+01  0.16765433107E+03  0.12509000000E+03 0.  0.
         25    1    4    4    0    0  0.89923688384E+02  0.27150449853E+02 -0.29043591711E+02  0.15910516956E+03  0.12509000000E+03 0.  0.
         25    1    4    4    0    0  0.20410796856E+02 -0.12881132146E+02  0.47906348683E+01  0.12748718554E+03  0.12509000000E+03 0.  0.
<mgrwt>
<rscale>  2 0.45399451E+03</rscale>
<asrwt>0</asrwt>
<pdfrwt beam="1">  1       21 0.32287695E-01 0.45399451E+03</pdfrwt>
<pdfrwt beam="2">  1       21 0.34513289E-01 0.45399451E+03</pdfrwt>
<totfact> 0.69154171E+04</totfact>
</mgrwt>
</event>
<event>
 7    0  0.4831799E-002  0.4533375E+03  0.7546771E-02  0.1026731E+00
         21   -1    0    0  502  501  0.00000000000E+00  0.00000000000E+00  0.46623933392E+03  0.46623933392E+03  0.00000000000E+00 0.  1.
         21   -1    0    0  501  502 -0.00000000000E+00 -0.00000000000E+00 -0.11019818154E+03  0.11019818154E+03  0.00000000000E+00 0.  1.
      99926    2    1    2    0    0 -0.71054273576E-14 -0.14210854715E-13  0.35604115237E+03  0.57643751546E+03  0.45333752001E+03 0.  0.
      99925    2    3    3    0    0 -0.43317540161E+02 -0.97102652319E+02  0.18085301099E+03  0.33634643409E+03  0.26289879758E+03 0.  0.
         25    1    3    3    0    0  0.43317540161E+02  0.97102652319E+02  0.17518814138E+03  0.24009108137E+03  0.12509000000E+03 0.  0.
         25    1    4    4    0    0 -0.41567832097E+02 -0.29974874376E+02  0.52708249639E+02  0.14509323016E+03  0.12509000000E+03 0.  0.
         25    1    4    4    0    0 -0.17497080636E+01 -0.67127777943E+02  0.12814476135E+03  0.19125320393E+03  0.12509000000E+03 0.  0.
<mgrwt>
<rscale>  2 0.45333752E+03</rscale>
<asrwt>0</asrwt>
<pdfrwt beam="1">  1       21 0.68564607E-01 0.45333752E+03</pdfrwt>
<pdfrwt beam="2">  1       21 0.16205615E-01 0.45333752E+03</pdfrwt>
<totfact> 0.60949756E+04</totfact>
</mgrwt>
</event>
<event>
 7    0  0.4831799E-002  0.4456657E+03  0.7546771E-02  0.1029023E+00
         21   -1    0    0  502  501  0.00000000000E+00  0.00000000000E+00  0.11563314650E+03  0.11563314650E+03  0.00000000000E+00 0. -1.
         21   -1    0    0  501  502 -0.00000000000E+00 -0.00000000000E+00 -0.42941387480E+03  0.42941387480E+03  0.00000000000E+00 0. -1.
      99926    2    1    2    0    0  0.00000000000E+00  0.00000000000E+00 -0.31378072830E+03  0.54504702130E+03  0.44566569306E+03 0.  0.
      99925    2    3    3    0    0  0.48232474394E+02 -0.90734056167E+02 -0.22033008397E+03  0.35812572353E+03  0.26296320544E+03 0.  0.
         25    1    4    4    0    0  0.24357674650E+02 -0.42282692187E+01 -0.85917049486E+02  0.15375442129E+03  0.12509000000E+03 0.  0.
         25    1    3    3    0    0 -0.48232474394E+02  0.90734056167E+02 -0.93450644339E+02  0.18692129778E+03  0.12509000000E+03 0.  0.
         25    1    4    4    0    0  0.23874799744E+02 -0.86505786948E+02 -0.13441303448E+03  0.20437130223E+03  0.12509000000E+03 0.  0.
<mgrwt>
<rscale>  2 0.44566569E+03</rscale>
<asrwt>0</asrwt>
<pdfrwt beam="1">  1       21 0.17004875E-01 0.44566569E+03</pdfrwt>
<pdfrwt beam="2">  1       21 0.63149099E-01 0.44566569E+03</pdfrwt>
<totfact> 0.67008843E+04</totfact>
</mgrwt>
</event>
<event>
 7    0  0.4831799E-002  0.4561788E+03  0.7546771E-02  0.1025895E+00
         21   -1    0    0  502  501  0.00000000000E+00  0.00000000000E+00  0.13979119898E+03  0.13979119898E+03  0.00000000000E+00 0. -1.
         21   -1    0    0  501  502 -0.00000000000E+00 -0.00000000000E+00 -0.37216053756E+03  0.37216053756E+03  0.00000000000E+00 0. -1.
      99926    2    1    2    0    0  0.00000000000E+00  0.00000000000E+00 -0.23236933858E+03  0.51195173654E+03  0.45617877091E+03 0.  0.
      99925    2    3    3    0    0 -0.89393365579E+02  0.59899314262E+02 -0.10279192944E+03  0.30214965190E+03  0.26296222110E+03 0.  0.
         25    1    4    4    0    0 -0.72341085550E+02  0.99540240134E+01 -0.76697099015E+02  0.16389712734E+03  0.12509000000E+03 0.  0.
         25    1    4    4    0    0 -0.17052280028E+02  0.49945290249E+02 -0.26094830426E+02  0.13825252456E+03  0.12509000000E+03 0.  0.
         25    1    3    3    0    0  0.89393365579E+02 -0.59899314262E+02 -0.12957740914E+03  0.20980208464E+03  0.12509000000E+03 0.  0.
<mgrwt>
<rscale>  2 0.45617877E+03</rscale>
<asrwt>0</asrwt>
<pdfrwt beam="1">  1       21 0.20557529E-01 0.45617877E+03</pdfrwt>
<pdfrwt beam="2">  1       21 0.54729491E-01 0.45617877E+03</pdfrwt>
<totfact> 0.63839614E+04</totfact>
</mgrwt>
</event>
<event>
 7    0  0.4831799E-002  0.4479364E+03  0.7546771E-02  0.1028339E+00
         21   -1    0    0  502  501  0.00000000000E+00  0.00000000000E+00  0.27201566430E+03  0.27201566430E+03  0.00000000000E+00 0.  1.
         21   -1    0    0  501  502 -0.00000000000E+00 -0.00000000000E+00 -0.18440761084E+03  0.18440761084E+03  0.00000000000E+00 0.  1.
      99926    2    1    2    0    0  0.00000000000E+00  0.00000000000E+00  0.87608053468E+02  0.45642327514E+03  0.44793641854E+03 0.  0.
      99925    2    3    3    0    0 -0.72976789047E+02 -0.66731942645E+02  0.15239764994E+02  0.28131347763E+03  0.26291872955E+03 0.  0.
         25    1    3    3    0    0  0.72976789047E+02  0.66731942645E+02  0.72368288474E+02  0.17510979751E+03  0.12509000000E+03 0.  0.
         25    1    4    4    0    0 -0.11748625612E+02 -0.63896626873E+02 -0.18656792535E+01  0.14096736498E+03  0.12509000000E+03 0.  0.
         25    1    4    4    0    0 -0.61228163435E+02 -0.28353157724E+01  0.17105444247E+02  0.14034611265E+03  0.12509000000E+03 0.  0.
<mgrwt>
<rscale>  2 0.44793642E+03</rscale>
<asrwt>0</asrwt>
<pdfrwt beam="1">  1       21 0.40002304E-01 0.44793642E+03</pdfrwt>
<pdfrwt beam="2">  1       21 0.27118766E-01 0.44793642E+03</pdfrwt>
<totfact> 0.72433913E+04</totfact>
</mgrwt>
</event>
<event>
 7    0  0.4831799E-002  0.4141073E+03  0.7546771E-02  0.1039001E+00
         21   -1    0    0  502  501  0.00000000000E+00  0.00000000000E+00  0.11406953638E+03  0.11406953638E+03  0.00000000000E+00 0.  1.
         21   -1    0    0  501  502 -0.00000000000E+00 -0.00000000000E+00 -0.37583411228E+03  0.37583411228E+03  0.00000000000E+00 0.  1.
      99926    2    1    2    0    0  0.00000000000E+00  0.00000000000E+00 -0.26176457591E+03  0.48990364866E+03  0.41410734330E+03 0.  0.
      99925    2    3    3    0    0 -0.40627497781E+02  0.36016428835E+02 -0.12281220909E+03  0.29521660476E+03  0.26291106538E+03 0.  0.
         25    1    4    4    0    0 -0.22980711437E+02 -0.20521462592E+02 -0.45138573339E+02  0.13650729808E+03  0.12509000000E+03 0.  0.
         25    1    4    4    0    0 -0.17646786344E+02  0.56537891427E+02 -0.77673635754E+02  0.15870930668E+03  0.12509000000E+03 0.  0.
         25    1    3    3    0    0  0.40627497781E+02 -0.36016428835E+02 -0.13895236681E+03  0.19468704391E+03  0.12509000000E+03 0.  0.
<mgrwt>
<rscale>  2 0.41410734E+03</rscale>
<asrwt>0</asrwt>
<pdfrwt beam="1">  1       21 0.16774932E-01 0.41410734E+03</pdfrwt>
<pdfrwt beam="2">  1       21 0.55269722E-01 0.41410734E+03</pdfrwt>
<totfact> 0.92556535E+04</totfact>
</mgrwt>
</event>
<event>
 7    0  0.4831799E-002  0.4498105E+03  0.7546771E-02  0.1027779E+00
         21   -1    0    0  502  501  0.00000000000E+00  0.00000000000E+00  0.19972704327E+03  0.19972704327E+03  0.00000000000E+00 0.  1.
         21   -1    0    0  501  502 -0.00000000000E+00 -0.00000000000E+00 -0.25325748484E+03  0.25325748484E+03  0.00000000000E+00 0.  1.
      99926    2    1    2    0    0 -0.14210854715E-13  0.00000000000E+00 -0.53530441579E+02  0.45298452811E+03  0.44981048735E+03 0.  0.
      99925    2    3    3    0    0 -0.66081383012E+02  0.78558495426E+02  0.97350083707E+00  0.28223215119E+03  0.26289894081E+03 0.  0.
         25    1    3    3    0    0  0.66081383012E+02 -0.78558495426E+02 -0.54503942416E+02  0.17075237692E+03  0.12509000000E+03 0.  0.
         25    1    4    4    0    0 -0.30015007222E+02  0.76462968539E+01 -0.26232588144E+02  0.13151054442E+03  0.12509000000E+03 0.  0.
         25    1    4    4    0    0 -0.36066375791E+02  0.70912198572E+02  0.27206088981E+02  0.15072160677E+03  0.12509000000E+03 0.  0.
<mgrwt>
<rscale>  2 0.44981049E+03</rscale>
<asrwt>0</asrwt>
<pdfrwt beam="1">  1       21 0.29371624E-01 0.44981049E+03</pdfrwt>
<pdfrwt beam="2">  1       21 0.37243748E-01 0.44981049E+03</pdfrwt>
<totfact> 0.71613034E+04</totfact>
</mgrwt>
</event>
<event>
 7    0  0.4831799E-002  0.4549277E+03  0.7546771E-02  0.1026263E+00
         21   -1    0    0  502  501  0.00000000000E+00  0.00000000000E+00  0.21088559111E+04  0.21088559111E+04  0.00000000000E+00 0. -1.
         21   -1    0    0  501  502 -0.00000000000E+00 -0.00000000000E+00 -0.24534539496E+02  0.24534539496E+02  0.00000000000E+00 0. -1.
      99926    2    1    2    0    0  0.00000000000E+00  0.66613381478E-15  0.20843213716E+04  0.21333904506E+04  0.45492772455E+03 0.  0.
      99925    2    3    3    0    0 -0.11298941583E+03 -0.13028356700E+01  0.12908306064E+04  0.13221917031E+04  0.26301889609E+03 0.  0.
         25    1    4    4    0    0 -0.58017786703E+02 -0.28407766478E+02  0.78532272713E+03  0.79784231438E+03  0.12509000000E+03 0.  0.
         25    1    3    3    0    0  0.11298941583E+03  0.13028356700E+01  0.79349076519E+03  0.81119874754E+03  0.12509000000E+03 0.  0.
         25    1    4    4    0    0 -0.54971629130E+02  0.27104930808E+02  0.50550787930E+03  0.52434938868E+03  0.12509000000E+03 0.  0.
<mgrwt>
<rscale>  2 0.45492772E+03</rscale>
<asrwt>0</asrwt>
<pdfrwt beam="1">  1       21 0.31012575E+00 0.45492772E+03</pdfrwt>
<pdfrwt beam="2">  1       21 0.36080219E-02 0.45492772E+03</pdfrwt>
<totfact> 0.11658234E+04</totfact>
</mgrwt>
</event>
<event>
 7    0  0.4831799E-002  0.4566105E+03  0.7546771E-02  0.1025769E+00
         21   -1    0    0  502  501  0.00000000000E+00  0.00000000000E+00  0.48717072677E+03  0.48717072677E+03  0.00000000000E+00 0.  1.
         21   -1    0    0  501  502 -0.00000000000E+00 -0.00000000000E+00 -0.10699181694E+03  0.10699181694E+03  0.00000000000E+00 0.  1.
      99926    2    1    2    0    0 -0.71054273576E-14  0.00000000000E+00  0.38017890983E+03  0.59416254371E+03  0.45661047389E+03 0.  0.
      99925    2    3    3    0    0  0.44957118636E+02 -0.35068643441E+02  0.10929792939E+03  0.29039459620E+03  0.26292970898E+03 0.  0.
         25    1    3    3    0    0 -0.44957118636E+02  0.35068643441E+02  0.27088098044E+03  0.30376794750E+03  0.12509000000E+03 0.  0.
         25    1    4    4    0    0 -0.17410799192E+00 -0.87272975757E+01  0.17352072893E+02  0.12658909341E+03  0.12509000000E+03 0.  0.
         25    1    4    4    0    0  0.45131226628E+02 -0.26341345865E+02  0.91945856496E+02  0.16380550279E+03  0.12509000000E+03 0.  0.
<mgrwt>
<rscale>  2 0.45661047E+03</rscale>
<asrwt>0</asrwt>
<pdfrwt beam="1">  1       21 0.71642753E-01 0.45661047E+03</pdfrwt>
<pdfrwt beam="2">  1       21 0.15734091E-01 0.45661047E+03</pdfrwt>
<totfact> 0.58293571E+04</totfact>
</mgrwt>
</event>
<event>
 7    0  0.4831799E-002  0.4550089E+03  0.7546771E-02  0.1026239E+00
         21   -1    0    0  502  501  0.00000000000E+00  0.00000000000E+00  0.72489993287E+02  0.72489993287E+02  0.00000000000E+00 0. -1.
         21   -1    0    0  501  502 -0.00000000000E+00 -0.00000000000E+00 -0.71400583433E+03  0.71400583433E+03  0.00000000000E+00 0. -1.
      99926    2    1    2    0    0  0.14210854715E-13  0.00000000000E+00 -0.64151584104E+03  0.78649582762E+03  0.45500891480E+03 0.  0.
      99925    2    3    3    0    0  0.68929188511E+02 -0.65159839927E+02 -0.29696094267E+03  0.40786325656E+03  0.26300113463E+03 0.  0.
         25    1    4    4    0    0  0.19057422220E+02 -0.38608280692E+02 -0.20007023000E+03  0.23985285013E+03  0.12509000000E+03 0.  0.
         25    1    4    4    0    0  0.49871766290E+02 -0.26551559235E+02 -0.96890712662E+02  0.16801040644E+03  0.12509000000E+03 0.  0.
         25    1    3    3    0    0 -0.68929188511E+02  0.65159839927E+02 -0.34455489838E+03  0.37863257106E+03  0.12509000000E+03 0.  0.
<mgrwt>
<rscale>  2 0.45500891E+03</rscale>
<asrwt>0</asrwt>
<pdfrwt beam="1">  1       21 0.10660293E-01 0.45500891E+03</pdfrwt>
<pdfrwt beam="2">  1       21 0.10500086E+00 0.45500891E+03</pdfrwt>
<totfact> 0.48421569E+04</totfact>
</mgrwt>
</event>
<event>
 7    0  0.4831799E-002  0.4497722E+03  0.7546771E-02  0.1027790E+00
         21   -1    0    0  502  501  0.00000000000E+00  0.00000000000E+00  0.12253038718E+03  0.12253038718E+03  0.00000000000E+00 0.  1.
         21   -1    0    0  501  502 -0.00000000000E+00 -0.00000000000E+00 -0.41274464062E+03  0.41274464062E+03  0.00000000000E+00 0.  1.
      99926    2    1    2    0    0 -0.71054273576E-14  0.14210854715E-13 -0.29021425344E+03  0.53527502780E+03  0.44977221177E+03 0.  0.
      99925    2    3    3    0    0 -0.60351858343E+02 -0.71764979369E+02 -0.11892052417E+03  0.30336640602E+03  0.26286218093E+03 0.  0.
         25    1    3    3    0    0  0.60351858343E+02  0.71764979369E+02 -0.17129372927E+03  0.23190862178E+03  0.12509000000E+03 0.  0.
         25    1    4    4    0    0  0.87513715832E+01 -0.44480284227E+02 -0.47345707545E+02  0.14122395800E+03  0.12509000000E+03 0.  0.
         25    1    4    4    0    0 -0.69103229926E+02 -0.27284695142E+02 -0.71574816629E+02  0.16214244802E+03  0.12509000000E+03 0.  0.
<mgrwt>
<rscale>  2 0.44977221E+03</rscale>
<asrwt>0</asrwt>
<pdfrwt beam="1">  1       21 0.18019175E-01 0.44977221E+03</pdfrwt>
<pdfrwt beam="2">  1       21 0.60697740E-01 0.44977221E+03</pdfrwt>
<totfact> 0.65519357E+04</totfact>
</mgrwt>
</event>
<event>
 7    0  0.4831799E-002  0.4559515E+03  0.7546771E-02  0.1025962E+00
         21   -1    0    0  502  501  0.00000000000E+00  0.00000000000E+00  0.17536294846E+02  0.17536294846E+02  0.00000000000E+00 0.  1.
         21   -1    0    0  501  502 -0.00000000000E+00 -0.00000000000E+00 -0.29637350807E+04  0.29637350807E+04  0.00000000000E+00 0.  1.
      99926    2    1    2    0    0  0.00000000000E+00  0.00000000000E+00 -0.29461987858E+04  0.29812713755E+04  0.45595145453E+03 0.  0.
      99925    2    3    3    0    0 -0.10782321997E+03 -0.35548777941E+02 -0.17628036889E+04  0.17858797971E+04  0.26267897039E+03 0.  0.
         25    1    3    3    0    0  0.10782321997E+03  0.35548777941E+02 -0.11833950969E+04  0.11953915784E+04  0.12509000000E+03 0.  0.
         25    1    4    4    0    0 -0.88730279568E+02 -0.60903890477E+01 -0.83005802778E+03  0.84412913285E+03  0.12509000000E+03 0.  0.
         25    1    4    4    0    0 -0.19092940403E+02 -0.29458388893E+02 -0.93274566117E+03  0.94175066423E+03  0.12509000000E+03 0.  0.
<mgrwt>
<rscale>  2 0.45595145E+03</rscale>
<asrwt>0</asrwt>
<pdfrwt beam="1">  1       21 0.25788663E-02 0.45595145E+03</pdfrwt>
<pdfrwt beam="2">  1       21 0.43584349E+00 0.45595145E+03</pdfrwt>
<totfact> 0.33282390E+03</totfact>
</mgrwt>
</event>
<event>
 7    0  0.4831799E-002  0.4343391E+03  0.7546771E-02  0.1032498E+00
         21   -1    0    0  502  501  0.00000000000E+00  0.00000000000E+00  0.40527183825E+02  0.40527183825E+02  0.00000000000E+00 0. -1.
         21   -1    0    0  501  502 -0.00000000000E+00 -0.00000000000E+00 -0.11637277736E+04  0.11637277736E+04  0.00000000000E+00 0. -1.
      99926    2    1    2    0    0  0.71054273576E-14  0.14210854715E-13 -0.11232005898E+04  0.12042549575E+04  0.43433908138E+03 0.  0.
      99925    2    3    3    0    0 -0.52040811472E+02 -0.66404231668E+02 -0.61742838245E+03  0.67645688823E+03  0.26316980477E+03 0.  0.
         25    1    4    4    0    0 -0.56700918616E+02 -0.78057957888E+01 -0.33000654596E+03  0.35753007300E+03  0.12509000000E+03 0.  0.
         25    1    3    3    0    0  0.52040811472E+02  0.66404231668E+02 -0.50577220736E+03  0.52779806922E+03  0.12509000000E+03 0.  0.
         25    1    4    4    0    0  0.46601071445E+01 -0.58598435879E+02 -0.28742183649E+03  0.31892681523E+03  0.12509000000E+03 0.  0.
<mgrwt>
<rscale>  2 0.43433908E+03</rscale>
<asrwt>0</asrwt>
<pdfrwt beam="1">  1       21 0.59598806E-02 0.43433908E+03</pdfrwt>
<pdfrwt beam="2">  1       21 0.17113642E+00 0.43433908E+03</pdfrwt>
<totfact> 0.37737985E+04</totfact>
</mgrwt>
</event>
<event>
 7    0  0.4831799E-002  0.4546877E+03  0.7546771E-02  0.1026333E+00
         21   -1    0    0  502  501  0.00000000000E+00  0.00000000000E+00  0.99226791989E+03  0.99226791989E+03  0.00000000000E+00 0. -1.
         21   -1    0    0  501  502 -0.00000000000E+00 -0.00000000000E+00 -0.52087985414E+02  0.52087985414E+02  0.00000000000E+00 0. -1.
      99926    2    1    2    0    0 -0.10269562978E-14  0.00000000000E+00  0.94017993447E+03  0.10443559053E+04  0.45468774753E+03 0.  0.
      99925    2    3    3    0    0  0.14724572977E+00  0.65204474528E+02  0.38002137180E+03  0.46670828900E+03  0.26296147782E+03 0.  0.
         25    1    4    4    0    0 -0.87677312020E+01  0.46012155948E+02  0.25880364018E+03  0.29124014812E+03  0.12509000000E+03 0.  0.
         25    1    4    4    0    0  0.89149769318E+01  0.19192318581E+02  0.12121773161E+03  0.17546814088E+03  0.12509000000E+03 0.  0.
         25    1    3    3    0    0 -0.14724572977E+00 -0.65204474528E+02  0.56015856268E+03  0.57764761630E+03  0.12509000000E+03 0.  0.
<mgrwt>
<rscale>  2 0.45468775E+03</rscale>
<asrwt>0</asrwt>
<pdfrwt beam="1">  1       21 0.14592174E+00 0.45468775E+03</pdfrwt>
<pdfrwt beam="2">  1       21 0.76599985E-02 0.45468775E+03</pdfrwt>
<totfact> 0.37576678E+04</totfact>
</mgrwt>
</event>
<event>
 7    0  0.4831799E-002  0.4506110E+03  0.7546771E-02  0.1027540E+00
         21   -1    0    0  502  501  0.00000000000E+00  0.00000000000E+00  0.26717533661E+02  0.26717533661E+02  0.00000000000E+00 0.  1.
         21   -1    0    0  501  502 -0.00000000000E+00 -0.00000000000E+00 -0.18999724717E+04  0.18999724717E+04  0.00000000000E+00 0.  1.
      99926    2    1    2    0    0  0.00000000000E+00  0.00000000000E+00 -0.18732549380E+04  0.19266900053E+04  0.45061104499E+03 0.  0.
      99925    2    3    3    0    0 -0.48323233320E+02 -0.93679647445E+02 -0.10656576438E+04  0.11026924878E+04  0.26304656923E+03 0.  0.
         25    1    4    4    0    0 -0.51148847623E+02 -0.73959555536E+02 -0.65881304332E+03  0.67658580728E+03  0.12509000000E+03 0.  0.
         25    1    4    4    0    0  0.28256143023E+01 -0.19720091909E+02 -0.40684460051E+03  0.42610668053E+03  0.12509000000E+03 0.  0.
         25    1    3    3    0    0  0.48323233320E+02  0.93679647445E+02 -0.80759729418E+03  0.82399751752E+03  0.12509000000E+03 0.  0.
<mgrwt>
<rscale>  2 0.45061104E+03</rscale>
<asrwt>0</asrwt>
<pdfrwt beam="1">  1       21 0.39290482E-02 0.45061104E+03</pdfrwt>
<pdfrwt beam="2">  1       21 0.27940778E+00 0.45061104E+03</pdfrwt>
<totfact> 0.15463898E+04</totfact>
</mgrwt>
</event>
<event>
 7    0  0.4831799E-002  0.4537496E+03  0.7546771E-02  0.1026610E+00
         21   -1    0    0  502  501  0.00000000000E+00  0.00000000000E+00  0.10674437709E+03  0.10674437709E+03  0.00000000000E+00 0. -1.
         21   -1    0    0  501  502 -0.00000000000E+00 -0.00000000000E+00 -0.48220043862E+03  0.48220043862E+03  0.00000000000E+00 0. -1.
      99926    2    1    2    0    0 -0.17763568394E-14  0.00000000000E+00 -0.37545606153E+03  0.58894481571E+03  0.45374964662E+03 0.  0.
      99925    2    3    3    0    0  0.14235934339E+02 -0.85042557391E+02 -0.32932584303E+03  0.43016697231E+03  0.26296998838E+03 0.  0.
         25    1    4    4    0    0 -0.66251520186E+01 -0.73812133302E+01 -0.18002937341E+03  0.21944579819E+03  0.12509000000E+03 0.  0.
         25    1    3    3    0    0 -0.14235934339E+02  0.85042557391E+02 -0.46130218506E+02  0.15877784340E+03  0.12509000000E+03 0.  0.
         25    1    4    4    0    0  0.20861086358E+02 -0.77661344061E+02 -0.14929646961E+03  0.21072117412E+03  0.12509000000E+03 0.  0.
<mgrwt>
<rscale>  2 0.45374965E+03</rscale>
<asrwt>0</asrwt>
<pdfrwt beam="1">  1       21 0.15697702E-01 0.45374965E+03</pdfrwt>
<pdfrwt beam="2">  1       21 0.70911830E-01 0.45374965E+03</pdfrwt>
<totfact> 0.59954254E+04</totfact>
</mgrwt>
</event>
<event>
 7    0  0.4831799E-002  0.4546614E+03  0.7546771E-02  0.1026341E+00
         21   -1    0    0  502  501  0.00000000000E+00  0.00000000000E+00  0.51000205607E+03  0.51000205607E+03  0.00000000000E+00 0. -1.
         21   -1    0    0  501  502 -0.00000000000E+00 -0.00000000000E+00 -0.10133144478E+03  0.10133144478E+03  0.00000000000E+00 0. -1.
      99926    2    1    2    0    0  0.00000000000E+00  0.00000000000E+00  0.40867061129E+03  0.61133350085E+03  0.45466139129E+03 0.  0.
      99925    2    3    3    0    0  0.96146367742E+02 -0.51379244776E+02  0.21861027727E+03  0.35903528546E+03  0.26311961548E+03 0.  0.
         25    1    4    4    0    0  0.59781346964E+02 -0.60486804272E+02  0.91408504530E+02  0.17673563799E+03  0.12509000000E+03 0.  0.
         25    1    4    4    0    0  0.36365020779E+02  0.91075594967E+01  0.12720177274E+03  0.18229964746E+03  0.12509000000E+03 0.  0.
         25    1    3    3    0    0 -0.96146367742E+02  0.51379244776E+02  0.19006033401E+03  0.25229821539E+03  0.12509000000E+03 0.  0.
<mgrwt>
<rscale>  2 0.45466139E+03</rscale>
<asrwt>0</asrwt>
<pdfrwt beam="1">  1       21 0.75000301E-01 0.45466139E+03</pdfrwt>
<pdfrwt beam="2">  1       21 0.14901683E-01 0.45466139E+03</pdfrwt>
<totfact> 0.58141376E+04</totfact>
</mgrwt>
</event>
<event>
 7    0  0.4831799E-002  0.4592773E+03  0.7546771E-02  0.1024991E+00
         21   -1    0    0  502  501  0.00000000000E+00  0.00000000000E+00  0.30298402040E+02  0.30298402040E+02  0.00000000000E+00 0. -1.
         21   -1    0    0  501  502 -0.00000000000E+00 -0.00000000000E+00 -0.17404848705E+04  0.17404848705E+04  0.00000000000E+00 0. -1.
      99926    2    1    2    0    0  0.00000000000E+00  0.00000000000E+00 -0.17101864685E+04  0.17707832726E+04  0.45927730339E+03 0.  0.
      99925    2    3    3    0    0  0.95439024176E+02  0.49126844114E+02 -0.12523815401E+04  0.12842085972E+04  0.26307821082E+03 0.  0.
         25    1    4    4    0    0  0.40771507652E+02  0.19188756051E+02 -0.79194705349E+03  0.80303061450E+03  0.12509000000E+03 0.  0.
         25    1    3    3    0    0 -0.95439024176E+02 -0.49126844114E+02 -0.45780492842E+03  0.48657467540E+03  0.12509000000E+03 0.  0.
         25    1    4    4    0    0  0.54667516525E+02  0.29938088064E+02 -0.46043448659E+03  0.48117798269E+03  0.12509000000E+03 0.  0.
<mgrwt>
<rscale>  2 0.45927730E+03</rscale>
<asrwt>0</asrwt>
<pdfrwt beam="1">  1       21 0.44556461E-02 0.45927730E+03</pdfrwt>
<pdfrwt beam="2">  1       21 0.25595373E+00 0.45927730E+03</pdfrwt>
<totfact> 0.17247756E+04</totfact>
</mgrwt>
</event>
<event>
 7    0  0.4831799E-002  0.4545545E+03  0.7546771E-02  0.1026372E+00
         21   -1    0    0  502  501  0.00000000000E+00  0.00000000000E+00  0.26783182665E+03  0.26783182665E+03  0.00000000000E+00 0.  1.
         21   -1    0    0  501  502 -0.00000000000E+00 -0.00000000000E+00 -0.19286336630E+03  0.19286336630E+03  0.00000000000E+00 0.  1.
      99926    2    1    2    0    0 -0.88817841970E-15  0.00000000000E+00  0.74968460346E+02  0.46069519295E+03  0.45455449702E+03 0.  0.
      99925    2    3    3    0    0  0.79560502931E+01  0.10913456511E+03  0.74793526421E+02  0.29449895129E+03  0.26298651806E+03 0.  0.
         25    1    3    3    0    0 -0.79560502931E+01 -0.10913456511E+03  0.17493392558E+00  0.16619624165E+03  0.12509000000E+03 0.  0.
         25    1    4    4    0    0 -0.61605421362E+01  0.85513245938E+02  0.68110026696E+02  0.16624365055E+03  0.12509000000E+03 0.  0.
         25    1    4    4    0    0  0.14116592429E+02  0.23621319172E+02  0.66834997247E+01  0.12825530075E+03  0.12509000000E+03 0.  0.
<mgrwt>
<rscale>  2 0.45455450E+03</rscale>
<asrwt>0</asrwt>
<pdfrwt beam="1">  1       21 0.39387034E-01 0.45455450E+03</pdfrwt>
<pdfrwt beam="2">  1       21 0.28362259E-01 0.45455450E+03</pdfrwt>
<totfact> 0.68372446E+04</totfact>
</mgrwt>
</event>
<event>
 7    0  0.4831799E-002  0.4650814E+03  0.7546771E-02  0.1023318E+00
         21   -1    0    0  502  501  0.00000000000E+00  0.00000000000E+00  0.12269479182E+03  0.12269479182E+03  0.00000000000E+00 0. -1.
         21   -1    0    0  501  502 -0.00000000000E+00 -0.00000000000E+00 -0.44072913240E+03  0.44072913240E+03  0.00000000000E+00 0. -1.
      99926    2    1    2    0    0  0.00000000000E+00  0.35527136788E-14 -0.31803434058E+03  0.56342392423E+03  0.46508136557E+03 0.  0.
      99925    2    3    3    0    0 -0.96785450359E+02 -0.27778786724E+02 -0.28260189961E+03  0.39897925157E+03  0.26302381095E+03 0.  0.
         25    1    3    3    0    0  0.96785450359E+02  0.27778786724E+02 -0.35432440969E+02  0.16444467266E+03  0.12509000000E+03 0.  0.
         25    1    4    4    0    0 -0.76002993343E+02  0.97911782591E+01 -0.17594522268E+03  0.22907761055E+03  0.12509000000E+03 0.  0.
         25    1    4    4    0    0 -0.20782457017E+02 -0.37569964983E+02 -0.10665667693E+03  0.16990164102E+03  0.12509000000E+03 0.  0.
<mgrwt>
<rscale>  2 0.46508137E+03</rscale>
<asrwt>0</asrwt>
<pdfrwt beam="1">  1       21 0.18043352E-01 0.46508137E+03</pdfrwt>
<pdfrwt beam="2">  1       21 0.64813107E-01 0.46508137E+03</pdfrwt>
<totfact> 0.56357968E+04</totfact>
</mgrwt>
</event>
<event>
 7    0  0.4831799E-002  0.4444395E+03  0.7546771E-02  0.1029393E+00
         21   -1    0    0  502  501  0.00000000000E+00  0.00000000000E+00  0.50601882135E+03  0.50601882135E+03  0.00000000000E+00 0.  1.
         21   -1    0    0  501  502 -0.00000000000E+00 -0.00000000000E+00 -0.97588481647E+02  0.97588481647E+02  0.00000000000E+00 0.  1.
      99926    2    1    2    0    0  0.00000000000E+00  0.00000000000E+00  0.40843033970E+03  0.60360730299E+03  0.44443946026E+03 0.  0.
      99925    2    3    3    0    0  0.93281263031E+02 -0.44612641739E+02  0.25882491555E+03  0.38287902462E+03  0.26251538765E+03 0.  0.
         25    1    4    4    0    0  0.34029446229E+02  0.10526584233E+02  0.92631042219E+02  0.15967726910E+03  0.12509000000E+03 0.  0.
         25    1    4    4    0    0  0.59251816803E+02 -0.55139225972E+02  0.16619387333E+03  0.22320175552E+03  0.12509000000E+03 0.  0.
         25    1    3    3    0    0 -0.93281263031E+02  0.44612641739E+02  0.14960542415E+03  0.22072827837E+03  0.12509000000E+03 0.  0.
<mgrwt>
<rscale>  2 0.44443946E+03</rscale>
<asrwt>0</asrwt>
<pdfrwt beam="1">  1       21 0.74414531E-01 0.44443946E+03</pdfrwt>
<pdfrwt beam="2">  1       21 0.14351248E-01 0.44443946E+03</pdfrwt>
<totfact> 0.63598957E+04</totfact>
</mgrwt>
</event>
<event>
 7    0  0.4831799E-002  0.4514536E+03  0.7546771E-02  0.1027289E+00
         21   -1    0    0  502  501  0.00000000000E+00  0.00000000000E+00  0.16796275913E+03  0.16796275913E+03  0.00000000000E+00 0. -1.
         21   -1    0    0  501  502 -0.00000000000E+00 -0.00000000000E+00 -0.30335640043E+03  0.30335640043E+03  0.00000000000E+00 0. -1.
      99926    2    1    2    0    0  0.00000000000E+00  0.00000000000E+00 -0.13539364131E+03  0.47131915956E+03  0.45145355471E+03 0.  0.
      99925    2    3    3    0    0 -0.77995913122E+02 -0.24974211316E+02 -0.91181331826E+01  0.27561508258E+03  0.26300847838E+03 0.  0.
         25    1    4    4    0    0 -0.76093857645E+02 -0.16476793325E+02 -0.24213608151E+02  0.14931700107E+03  0.12509000000E+03 0.  0.
         25    1    4    4    0    0 -0.19020554772E+01 -0.84974179913E+01  0.15095474969E+02  0.12629808151E+03  0.12509000000E+03 0.  0.
         25    1    3    3    0    0  0.77995913122E+02  0.24974211316E+02 -0.12627550813E+03  0.19570407698E+03  0.12509000000E+03 0.  0.
<mgrwt>
<rscale>  2 0.45145355E+03</rscale>
<asrwt>0</asrwt>
<pdfrwt beam="1">  1       21 0.24700406E-01 0.45145355E+03</pdfrwt>
<pdfrwt beam="2">  1       21 0.44611234E-01 0.45145355E+03</pdfrwt>
<totfact> 0.69266509E+04</totfact>
</mgrwt>
</event>
<event>
 7    0  0.4831799E-002  0.4481656E+03  0.7546771E-02  0.1028270E+00
         21   -1    0    0  502  501  0.00000000000E+00  0.00000000000E+00  0.13814391705E+03  0.13814391705E+03  0.00000000000E+00 0.  1.
         21   -1    0    0  501  502 -0.00000000000E+00 -0.00000000000E+00 -0.36348405412E+03  0.36348405412E+03  0.00000000000E+00 0.  1.
      99926    2    1    2    0    0  0.00000000000E+00  0.00000000000E+00 -0.22534013707E+03  0.50162797117E+03  0.44816564358E+03 0.  0.
      99925    2    3    3    0    0  0.86608249340E+02  0.58896213820E+02 -0.16562601629E+03  0.32789531109E+03  0.26289466504E+03 0.  0.
         25    1    3    3    0    0 -0.86608249340E+02 -0.58896213820E+02 -0.59714120775E+02  0.17373266007E+03  0.12509000000E+03 0.  0.
         25    1    4    4    0    0  0.71242003403E+02  0.38610124126E+02 -0.12322272896E+03  0.19338436795E+03  0.12509000000E+03 0.  0.
         25    1    4    4    0    0  0.15366245937E+02  0.20286089694E+02 -0.42403287330E+02  0.13451094314E+03  0.12509000000E+03 0.  0.
<mgrwt>
<rscale>  2 0.44816564E+03</rscale>
<asrwt>0</asrwt>
<pdfrwt beam="1">  1       21 0.20315282E-01 0.44816564E+03</pdfrwt>
<pdfrwt beam="2">  1       21 0.53453536E-01 0.44816564E+03</pdfrwt>
<totfact> 0.68814224E+04</totfact>
</mgrwt>
</event>
<event>
 7    0  0.4831799E-002  0.4529171E+03  0.7546771E-02  0.1026856E+00
         21   -1    0    0  502  501  0.00000000000E+00  0.00000000000E+00  0.31825776998E+02  0.31825776998E+02  0.00000000000E+00 0.  1.
         21   -1    0    0  501  502 -0.00000000000E+00 -0.00000000000E+00 -0.16113816990E+04  0.16113816990E+04  0.00000000000E+00 0.  1.
      99926    2    1    2    0    0 -0.35527136788E-14  0.00000000000E+00 -0.15795559220E+04  0.16432074760E+04  0.45291709886E+03 0.  0.
      99925    2    3    3    0    0  0.16538341563E+02 -0.10190193710E+03 -0.84620404253E+03  0.89213490377E+03  0.26303209577E+03 0.  0.
         25    1    4    4    0    0 -0.11891119047E+02 -0.48179677214E+02 -0.30541479012E+03  0.33374898072E+03  0.12509000000E+03 0.  0.
         25    1    4    4    0    0  0.28429460610E+02 -0.53722259883E+02 -0.54078925242E+03  0.55838592305E+03  0.12509000000E+03 0.  0.
         25    1    3    3    0    0 -0.16538341563E+02  0.10190193710E+03 -0.73335187949E+03  0.75107257224E+03  0.12509000000E+03 0.  0.
<mgrwt>
<rscale>  2 0.45291710E+03</rscale>
<asrwt>0</asrwt>
<pdfrwt beam="1">  1       21 0.46802605E-02 0.45291710E+03</pdfrwt>
<pdfrwt beam="2">  1       21 0.23696794E+00 0.45291710E+03</pdfrwt>
<totfact> 0.20805207E+04</totfact>
</mgrwt>
</event>
<event>
 7    0  0.4831799E-002  0.4785599E+03  0.7546771E-02  0.1019532E+00
         21   -1    0    0  502  501  0.00000000000E+00  0.00000000000E+00  0.72547261735E+03  0.72547261735E+03  0.00000000000E+00 0. -1.
         21   -1    0    0  501  502 -0.00000000000E+00 -0.00000000000E+00 -0.78920826446E+02  0.78920826446E+02  0.00000000000E+00 0. -1.
      99926    2    1    2    0    0  0.00000000000E+00  0.00000000000E+00  0.64655179090E+03  0.80439344379E+03  0.47855991694E+03 0.  0.
      99925    2    3    3    0    0  0.11659585152E+03 -0.39016439811E+02  0.48871425720E+03  0.56843355247E+03  0.26297947300E+03 0.  0.
         25    1    3    3    0    0 -0.11659585152E+03  0.39016439811E+02  0.15783753370E+03  0.23595989132E+03  0.12509000000E+03 0.  0.
         25    1    4    4    0    0  0.17085875151E+02 -0.22047043524E+01  0.21405725564E+03  0.24852525957E+03  0.12509000000E+03 0.  0.
         25    1    4    4    0    0  0.99509976368E+02 -0.36811735459E+02  0.27465700155E+03  0.31990829290E+03  0.12509000000E+03 0.  0.
<mgrwt>
<rscale>  2 0.47855992E+03</rscale>
<asrwt>0</asrwt>
<pdfrwt beam="1">  1       21 0.10668715E+00 0.47855992E+03</pdfrwt>
<pdfrwt beam="2">  1       21 0.11606004E-01 0.47855992E+03</pdfrwt>
<totfact> 0.39690094E+04</totfact>
</mgrwt>
</event>
<event>
 7    0  0.4831799E-002  0.4520167E+03  0.7546771E-02  0.1027122E+00
         21   -1    0    0  502  501  0.00000000000E+00  0.00000000000E+00  0.17603386439E+03  0.17603386439E+03  0.00000000000E+00 0. -1.
         21   -1    0    0  501  502 -0.00000000000E+00 -0.00000000000E+00 -0.29017019200E+03  0.29017019200E+03  0.00000000000E+00 0. -1.
      99926    2    1    2    0    0  0.00000000000E+00  0.00000000000E+00 -0.11413632761E+03  0.46620405638E+03  0.45201672636E+03 0.  0.
      99925    2    3    3    0    0 -0.72586132714E+02  0.52563915345E+02 -0.59507861419E+01  0.27809948084E+03  0.26319611989E+03 0.  0.
         25    1    4    4    0    0 -0.73249729456E+02  0.12796263858E+02 -0.16293671718E+02  0.14643175568E+03  0.12509000000E+03 0.  0.
         25    1    3    3    0    0  0.72586132714E+02 -0.52563915345E+02 -0.10818554147E+03  0.18810457555E+03  0.12509000000E+03 0.  0.
         25    1    4    4    0    0  0.66359674262E+00  0.39767651488E+02  0.10342885576E+02  0.13166772516E+03  0.12509000000E+03 0.  0.
<mgrwt>
<rscale>  2 0.45201673E+03</rscale>
<asrwt>0</asrwt>
<pdfrwt beam="1">  1       21 0.25887333E-01 0.45201673E+03</pdfrwt>
<pdfrwt beam="2">  1       21 0.42672087E-01 0.45201673E+03</pdfrwt>
<totfact> 0.69345735E+04</totfact>
</mgrwt>
</event>
<event>
 7    0  0.4831799E-002  0.4482617E+03  0.7546771E-02  0.1028242E+00
         21   -1    0    0  502  501  0.00000000000E+00  0.00000000000E+00  0.48935853890E+03  0.48935853890E+03  0.00000000000E+00 0.  1.
         21   -1    0    0  501  502 -0.00000000000E+00 -0.00000000000E+00 -0.10265404739E+03  0.10265404739E+03  0.00000000000E+00 0.  1.
      99926    2    1    2    0    0 -0.44408920985E-15  0.88817841970E-15  0.38670449151E+03  0.59201258629E+03  0.44826168537E+03 0.  0.
      99925    2    3    3    0    0 -0.21948505733E+01 -0.41477350269E+01  0.10414988104E+03  0.28297110515E+03  0.26306544348E+03 0.  0.
         25    1    4    4    0    0  0.33239928720E+02 -0.21825259501E+02  0.42217273696E+02  0.13788053203E+03  0.12509000000E+03 0.  0.
         25    1    4    4    0    0 -0.35434779293E+02  0.17677524474E+02  0.61932607349E+02  0.14509057312E+03  0.12509000000E+03 0.  0.
         25    1    3    3    0    0  0.21948505733E+01  0.41477350269E+01  0.28255461046E+03  0.30904148114E+03  0.12509000000E+03 0.  0.
<mgrwt>
<rscale>  2 0.44826169E+03</rscale>
<asrwt>0</asrwt>
<pdfrwt beam="1">  1       21 0.71964490E-01 0.44826169E+03</pdfrwt>
<pdfrwt beam="2">  1       21 0.15096184E-01 0.44826169E+03</pdfrwt>
<totfact> 0.62431382E+04</totfact>
</mgrwt>
</event>
<event>
 7    0  0.4831799E-002  0.4476861E+03  0.7546771E-02  0.1028414E+00
         21   -1    0    0  502  501  0.00000000000E+00  0.00000000000E+00  0.43894695085E+03  0.43894695085E+03  0.00000000000E+00 0.  1.
         21   -1    0    0  501  502 -0.00000000000E+00 -0.00000000000E+00 -0.11414980853E+03  0.11414980853E+03  0.00000000000E+00 0.  1.
      99926    2    1    2    0    0 -0.71054273576E-14  0.00000000000E+00  0.32479714232E+03  0.55309675938E+03  0.44768609715E+03 0.  0.
      99925    2    3    3    0    0  0.40993354297E+02 -0.56963865621E+02  0.10734637134E+03  0.29260168653E+03  0.26299651411E+03 0.  0.
         25    1    4    4    0    0  0.30300890387E+02 -0.40655049724E+02  0.14807452819E+02  0.13578566119E+03  0.12509000000E+03 0.  0.
         25    1    3    3    0    0 -0.40993354297E+02  0.56963865621E+02  0.21745077098E+03  0.26049507285E+03  0.12509000000E+03 0.  0.
         25    1    4    4    0    0  0.10692463910E+02 -0.16308815897E+02  0.92538918523E+02  0.15681602533E+03  0.12509000000E+03 0.  0.
<mgrwt>
<rscale>  2 0.44768610E+03</rscale>
<asrwt>0</asrwt>
<pdfrwt beam="1">  1       21 0.64551022E-01 0.44768610E+03</pdfrwt>
<pdfrwt beam="2">  1       21 0.16786737E-01 0.44768610E+03</pdfrwt>
<totfact> 0.65363042E+04</totfact>
</mgrwt>
</event>
<event>
 7    0  0.4831799E-002  0.4251445E+03  0.7546771E-02  0.1035405E+00
         21   -1    0    0  502  501  0.00000000000E+00  0.00000000000E+00  0.31138040479E+03  0.31138040479E+03  0.00000000000E+00 0.  1.
         21   -1    0    0  501  502 -0.00000000000E+00 -0.00000000000E+00 -0.14511820175E+03  0.14511820175E+03  0.00000000000E+00 0.  1.
      99926    2    1    2    0    0  0.71054273576E-14 -0.88817841970E-15  0.16626220304E+03  0.45649860654E+03  0.42514451380E+03 0.  0.
      99925    2    3    3    0    0  0.60850293986E+02  0.54251739666E+01  0.48643321663E+02  0.27425179547E+03  0.26289861884E+03 0.  0.
         25    1    4    4    0    0  0.23144884588E+02 -0.16554364308E+02  0.59320654931E+02  0.14133711778E+03  0.12509000000E+03 0.  0.
         25    1    4    4    0    0  0.37705409398E+02  0.21979538274E+02 -0.10677333268E+02  0.13291467769E+03  0.12509000000E+03 0.  0.
         25    1    3    3    0    0 -0.60850293986E+02 -0.54251739666E+01  0.11761888137E+03  0.18224681107E+03  0.12509000000E+03 0.  0.
<mgrwt>
<rscale>  2 0.42514451E+03</rscale>
<asrwt>0</asrwt>
<pdfrwt beam="1">  1       21 0.45791236E-01 0.42514451E+03</pdfrwt>
<pdfrwt beam="2">  1       21 0.21340912E-01 0.42514451E+03</pdfrwt>
<totfact> 0.87394808E+04</totfact>
</mgrwt>
</event>
<event>
 7    0  0.4831799E-002  0.4463918E+03  0.7546771E-02  0.1028804E+00
         21   -1    0    0  502  501  0.00000000000E+00  0.00000000000E+00  0.34059523387E+03  0.34059523387E+03  0.00000000000E+00 0.  1.
         21   -1    0    0  501  502 -0.00000000000E+00 -0.00000000000E+00 -0.14626277282E+03  0.14626277282E+03  0.00000000000E+00 0.  1.
      99926    2    1    2    0    0  0.71054273576E-14  0.00000000000E+00  0.19433246105E+03  0.48685800670E+03  0.44639177106E+03 0.  0.
      99925    2    3    3    0    0  0.40432694609E+02  0.59023549197E+02  0.39669275809E+02  0.27546550181E+03  0.26303803735E+03 0.  0.
         25    1    3    3    0    0 -0.40432694609E+02 -0.59023549197E+02  0.15466318524E+03  0.21139250489E+03  0.12509000000E+03 0.  0.
         25    1    4    4    0    0  0.56812488379E+02  0.35855446577E+02  0.28469669486E+01  0.14201720039E+03  0.12509000000E+03 0.  0.
         25    1    4    4    0    0 -0.16379793770E+02  0.23168102620E+02  0.36822308860E+02  0.13344830142E+03  0.12509000000E+03 0.  0.
<mgrwt>
<rscale>  2 0.44639177E+03</rscale>
<asrwt>0</asrwt>
<pdfrwt beam="1">  1       21 0.50087535E-01 0.44639177E+03</pdfrwt>
<pdfrwt beam="2">  1       21 0.21509231E-01 0.44639177E+03</pdfrwt>
<totfact> 0.70928762E+04</totfact>
</mgrwt>
</event>
<event>
 7    0  0.4831799E-002  0.4576925E+03  0.7546771E-02  0.1025453E+00
         21   -1    0    0  502  501  0.00000000000E+00  0.00000000000E+00  0.15977665949E+02  0.15977665949E+02  0.00000000000E+00 0. -1.
         21   -1    0    0  501  502 -0.00000000000E+00 -0.00000000000E+00 -0.32777385488E+04  0.32777385488E+04  0.00000000000E+00 0. -1.
      99926    2    1    2    0    0  0.00000000000E+00  0.00000000000E+00 -0.32617608828E+04  0.32937162147E+04  0.45769252387E+03 0.  0.
      99925    2    3    3    0    0  0.10193896024E+03  0.42842080557E+02 -0.18020403361E+04  0.18244788009E+04  0.26295727144E+03 0.  0.
         25    1    4    4    0    0  0.42476390981E+02  0.60635847776E+02 -0.87997078727E+03  0.89189519809E+03  0.12509000000E+03 0.  0.
         25    1    3    3    0    0 -0.10193896024E+03 -0.42842080557E+02 -0.14597205468E+04  0.14692374139E+04  0.12509000000E+03 0.  0.
         25    1    4    4    0    0  0.59462569257E+02 -0.17793767219E+02 -0.92206954878E+03  0.93258360278E+03  0.12509000000E+03 0.  0.
<mgrwt>
<rscale>  2 0.45769252E+03</rscale>
<asrwt>0</asrwt>
<pdfrwt beam="1">  1       21 0.23496562E-02 0.45769252E+03</pdfrwt>
<pdfrwt beam="2">  1       21 0.48202049E+00 0.45769252E+03</pdfrwt>
<totfact> 0.18774059E+03</totfact>
</mgrwt>
</event>
<event>
 7    0  0.4831799E-002  0.4535296E+03  0.7546771E-02  0.1026675E+00
         21   -1    0    0  502  501  0.00000000000E+00  0.00000000000E+00  0.29373168839E+03  0.29373168839E+03  0.00000000000E+00 0.  1.
         21   -1    0    0  501  502 -0.00000000000E+00 -0.00000000000E+00 -0.17506545603E+03  0.17506545603E+03  0.00000000000E+00 0.  1.
      99926    2    1    2    0    0  0.00000000000E+00  0.00000000000E+00  0.11866623236E+03  0.46879714441E+03  0.45352958879E+03 0.  0.
      99925    2    3    3    0    0 -0.36879952741E+02 -0.10509417801E+03  0.63853867629E+02  0.29256769003E+03  0.26289469312E+03 0.  0.
         25    1    3    3    0    0  0.36879952741E+02  0.10509417801E+03  0.54812364736E+02  0.17622945439E+03  0.12509000000E+03 0.  0.
         25    1    4    4    0    0  0.11081244648E+02 -0.28800971388E+02  0.48374925960E+02  0.13762242367E+03  0.12509000000E+03 0.  0.
         25    1    4    4    0    0 -0.47961197390E+02 -0.76293206619E+02  0.15478941670E+02  0.15494526636E+03  0.12509000000E+03 0.  0.
<mgrwt>
<rscale>  2 0.45352959E+03</rscale>
<asrwt>0</asrwt>
<pdfrwt beam="1">  1       21 0.43195836E-01 0.45352959E+03</pdfrwt>
<pdfrwt beam="2">  1       21 0.25744920E-01 0.45352959E+03</pdfrwt>
<totfact> 0.68318732E+04</totfact>
</mgrwt>
</event>
<event>
 7    0  0.4831799E-002  0.4500769E+03  0.7546771E-02  0.1027699E+00
         21   -1    0    0  502  501  0.00000000000E+00  0.00000000000E+00  0.88885979814E+03  0.88885979814E+03  0.00000000000E+00 0.  1.
         21   -1    0    0  501  502 -0.00000000000E+00 -0.00000000000E+00 -0.56974447353E+02  0.56974447353E+02  0.00000000000E+00 0.  1.
      99926    2    1    2    0    0  0.00000000000E+00 -0.14210854715E-13  0.83188535079E+03  0.94583424549E+03  0.45007686354E+03 0.  0.
      99925    2    3    3    0    0  0.42723854716E+02 -0.84354800445E+02  0.41492286256E+03  0.50036114327E+03  0.26317148724E+03 0.  0.
         25    1    4    4    0    0  0.51373405589E+02 -0.72511042122E+02  0.23844817875E+03  0.28355267603E+03  0.12509000000E+03 0.  0.
         25    1    3    3    0    0 -0.42723854716E+02  0.84354800445E+02  0.41696248823E+03  0.44547310223E+03  0.12509000000E+03 0.  0.
         25    1    4    4    0    0 -0.86495508729E+01 -0.11843758323E+02  0.17647468381E+03  0.21680846724E+03  0.12509000000E+03 0.  0.
<mgrwt>
<rscale>  2 0.45007686E+03</rscale>
<asrwt>0</asrwt>
<pdfrwt beam="1">  1       21 0.13071467E+00 0.45007686E+03</pdfrwt>
<pdfrwt beam="2">  1       21 0.83785958E-02 0.45007686E+03</pdfrwt>
<totfact> 0.42939401E+04</totfact>
</mgrwt>
</event>
<event>
 7    0  0.4831799E-002  0.4531426E+03  0.7546771E-02  0.1026789E+00
         21   -1    0    0  502  501  0.00000000000E+00  0.00000000000E+00  0.23196570523E+03  0.23196570523E+03  0.00000000000E+00 0. -1.
         21   -1    0    0  501  502 -0.00000000000E+00 -0.00000000000E+00 -0.22130235895E+03  0.22130235895E+03  0.00000000000E+00 0. -1.
      99926    2    1    2    0    0  0.00000000000E+00  0.00000000000E+00  0.10663346288E+02  0.45326806418E+03  0.45314261668E+03 0.  0.
      99925    2    3    3    0    0 -0.87591611395E+02 -0.68657091681E+02  0.13778936883E+02  0.28580672049E+03  0.26288692579E+03 0.  0.
         25    1    3    3    0    0  0.87591611395E+02  0.68657091681E+02 -0.31155905957E+01  0.16746134369E+03  0.12509000000E+03 0.  0.
         25    1    4    4    0    0 -0.28644952161E+02 -0.32014879989E+01  0.30387692152E+02  0.13191551366E+03  0.12509000000E+03 0.  0.
         25    1    4    4    0    0 -0.58946659235E+02 -0.65455603683E+02 -0.16608755268E+02  0.15389120683E+03  0.12509000000E+03 0.  0.
<mgrwt>
<rscale>  2 0.45314262E+03</rscale>
<asrwt>0</asrwt>
<pdfrwt beam="1">  1       21 0.34112604E-01 0.45314262E+03</pdfrwt>
<pdfrwt beam="2">  1       21 0.32544465E-01 0.45314262E+03</pdfrwt>
<totfact> 0.69700103E+04</totfact>
</mgrwt>
</event>
<event>
 7    0  0.4831799E-002  0.4548478E+03  0.7546771E-02  0.1026286E+00
         21   -1    0    0  502  501  0.00000000000E+00  0.00000000000E+00  0.42072052882E+02  0.42072052882E+02  0.00000000000E+00 0. -1.
         21   -1    0    0  501  502 -0.00000000000E+00 -0.00000000000E+00 -0.12293582998E+04  0.12293582998E+04  0.00000000000E+00 0. -1.
      99926    2    1    2    0    0  0.00000000000E+00  0.00000000000E+00 -0.11872862469E+04  0.12714303526E+04  0.45484778728E+03 0.  0.
      99925    2    3    3    0    0  0.56681577120E+02 -0.91535870632E+02 -0.84285401769E+03  0.88949752426E+03  0.26308047005E+03 0.  0.
         25    1    4    4    0    0  0.15912338014E+02 -0.56199961669E+02 -0.54082157670E+03  0.55816406559E+03  0.12509000000E+03 0.  0.
         25    1    3    3    0    0 -0.56681577120E+02  0.91535870632E+02 -0.34443222919E+03  0.38193282839E+03  0.12509000000E+03 0.  0.
         25    1    4    4    0    0  0.40769239106E+02 -0.35335908963E+02 -0.30203244099E+03  0.33133345866E+03  0.12509000000E+03 0.  0.
<mgrwt>
<rscale>  2 0.45484779E+03</rscale>
<asrwt>0</asrwt>
<pdfrwt beam="1">  1       21 0.61870662E-02 0.45484779E+03</pdfrwt>
<pdfrwt beam="2">  1       21 0.18078800E+00 0.45484779E+03</pdfrwt>
<totfact> 0.29991373E+04</totfact>
</mgrwt>
</event>
<event>
 7    0  0.4831799E-002  0.4550684E+03  0.7546771E-02  0.1026221E+00
         21   -1    0    0  502  501  0.00000000000E+00  0.00000000000E+00  0.34757947285E+03  0.34757947285E+03  0.00000000000E+00 0.  1.
         21   -1    0    0  501  502 -0.00000000000E+00 -0.00000000000E+00 -0.14894956135E+03  0.14894956135E+03  0.00000000000E+00 0.  1.
      99926    2    1    2    0    0  0.00000000000E+00  0.35527136788E-14  0.19862991150E+03  0.49652903420E+03  0.45506839053E+03 0.  0.
      99925    2    3    3    0    0 -0.17842281554E+02  0.30392657064E+02  0.24238016737E+03  0.35940261952E+03  0.26302098161E+03 0.  0.
         25    1    3    3    0    0  0.17842281554E+02 -0.30392657064E+02 -0.43750255872E+02  0.13712641468E+03  0.12509000000E+03 0.  0.
         25    1    4    4    0    0 -0.11262447530E+01 -0.77437734080E+01  0.16262201835E+03  0.20531600865E+03  0.12509000000E+03 0.  0.
         25    1    4    4    0    0 -0.16716036801E+02  0.38136430472E+02  0.79758149017E+02  0.15408661087E+03  0.12509000000E+03 0.  0.
<mgrwt>
<rscale>  2 0.45506839E+03</rscale>
<asrwt>0</asrwt>
<pdfrwt beam="1">  1       21 0.51114628E-01 0.45506839E+03</pdfrwt>
<pdfrwt beam="2">  1       21 0.21904347E-01 0.45506839E+03</pdfrwt>
<totfact> 0.65479640E+04</totfact>
</mgrwt>
</event>
<event>
 7    0  0.4831799E-002  0.4526032E+03  0.7546771E-02  0.1026949E+00
         21   -1    0    0  502  501  0.00000000000E+00  0.00000000000E+00  0.23669153587E+03  0.23669153587E+03  0.00000000000E+00 0. -1.
         21   -1    0    0  501  502 -0.00000000000E+00 -0.00000000000E+00 -0.21636771721E+03  0.21636771721E+03  0.00000000000E+00 0. -1.
      99926    2    1    2    0    0  0.14210854715E-13  0.00000000000E+00  0.20323818655E+02  0.45305925308E+03  0.45260316967E+03 0.  0.
      99925    2    3    3    0    0 -0.79215944292E+02 -0.71721582172E+02  0.42599747846E+02  0.28703854262E+03  0.26297763261E+03 0.  0.
         25    1    4    4    0    0 -0.41973001582E+02 -0.22705084007E+02 -0.17872901037E+02  0.13507110125E+03  0.12509000000E+03 0.  0.
         25    1    4    4    0    0 -0.37242942709E+02 -0.49016498165E+02  0.60472648883E+02  0.15196744137E+03  0.12509000000E+03 0.  0.
         25    1    3    3    0    0  0.79215944292E+02  0.71721582172E+02 -0.22275929191E+02  0.16602071046E+03  0.12509000000E+03 0.  0.
<mgrwt>
<rscale>  2 0.45260317E+03</rscale>
<asrwt>0</asrwt>
<pdfrwt beam="1">  1       21 0.34807579E-01 0.45260317E+03</pdfrwt>
<pdfrwt beam="2">  1       21 0.31818782E-01 0.45260317E+03</pdfrwt>
<totfact> 0.70017697E+04</totfact>
</mgrwt>
</event>
<event>
 7    0  0.4831799E-002  0.4462968E+03  0.7546771E-02  0.1028832E+00
         21   -1    0    0  502  501  0.00000000000E+00  0.00000000000E+00  0.25085549960E+03  0.25085549960E+03  0.00000000000E+00 0.  1.
         21   -1    0    0  501  502 -0.00000000000E+00 -0.00000000000E+00 -0.19850157231E+03  0.19850157231E+03  0.00000000000E+00 0.  1.
      99926    2    1    2    0    0  0.00000000000E+00  0.14210854715E-13  0.52353927288E+02  0.44935707191E+03  0.44629681196E+03 0.  0.
      99925    2    3    3    0    0  0.38800532306E+02  0.87157758638E+02  0.76732753324E+02  0.29015973695E+03  0.26306425321E+03 0.  0.
         25    1    4    4    0    0  0.22568195444E+02  0.82973540710E+02  0.25366595832E+02  0.15389900645E+03  0.12509000000E+03 0.  0.
         25    1    4    4    0    0  0.16232336862E+02  0.41842179276E+01  0.51366157492E+02  0.13626073050E+03  0.12509000000E+03 0.  0.
         25    1    3    3    0    0 -0.38800532306E+02 -0.87157758638E+02 -0.24378826036E+02  0.15919733496E+03  0.12509000000E+03 0.  0.
<mgrwt>
<rscale>  2 0.44629681E+03</rscale>
<asrwt>0</asrwt>
<pdfrwt beam="1">  1       21 0.36890515E-01 0.44629681E+03</pdfrwt>
<pdfrwt beam="2">  1       21 0.29191408E-01 0.44629681E+03</pdfrwt>
<totfact> 0.73965148E+04</totfact>
</mgrwt>
</event>
<event>
 7    0  0.4831799E-002  0.4527872E+03  0.7546771E-02  0.1026894E+00
         21   -1    0    0  502  501  0.00000000000E+00  0.00000000000E+00  0.15999309847E+03  0.15999309847E+03  0.00000000000E+00 0.  1.
         21   -1    0    0  501  502 -0.00000000000E+00 -0.00000000000E+00 -0.32035174897E+03  0.32035174897E+03  0.00000000000E+00 0.  1.
      99926    2    1    2    0    0  0.00000000000E+00 -0.14210854715E-13 -0.16035865050E+03  0.48034484744E+03  0.45278723002E+03 0.  0.
      99925    2    3    3    0    0  0.35164343875E+02 -0.10435824114E+03 -0.11635487483E+03  0.30797601631E+03  0.26302774787E+03 0.  0.
         25    1    4    4    0    0 -0.18785159926E+02 -0.59866447965E+02 -0.75226201765E+02  0.15888160170E+03  0.12509000000E+03 0.  0.
         25    1    4    4    0    0  0.53949503801E+02 -0.44491793171E+02 -0.41128673063E+02  0.14909441461E+03  0.12509000000E+03 0.  0.
         25    1    3    3    0    0 -0.35164343875E+02  0.10435824114E+03 -0.44003775675E+02  0.17236883114E+03  0.12509000000E+03 0.  0.
<mgrwt>
<rscale>  2 0.45278723E+03</rscale>
<asrwt>0</asrwt>
<pdfrwt beam="1">  1       21 0.23528397E-01 0.45278723E+03</pdfrwt>
<pdfrwt beam="2">  1       21 0.47110551E-01 0.45278723E+03</pdfrwt>
<totfact> 0.67859111E+04</totfact>
</mgrwt>
</event>
<event>
 7    0  0.4831799E-002  0.4532142E+03  0.7546771E-02  0.1026768E+00
         21   -1    0    0  502  501  0.00000000000E+00  0.00000000000E+00  0.48189218282E+02  0.48189218282E+02  0.00000000000E+00 0. -1.
         21   -1    0    0  501  502 -0.00000000000E+00 -0.00000000000E+00 -0.10656071838E+04  0.10656071838E+04  0.00000000000E+00 0. -1.
      99926    2    1    2    0    0  0.00000000000E+00  0.00000000000E+00 -0.10174179655E+04  0.11137964021E+04  0.45321419741E+03 0.  0.
      99925    2    3    3    0    0  0.72358192599E+02 -0.73237887621E+02 -0.53532629704E+03  0.60521073463E+03  0.26288075774E+03 0.  0.
         25    1    4    4    0    0  0.70615127643E+02 -0.48403842258E+02 -0.24494620982E+03  0.28805482465E+03  0.12509000000E+03 0.  0.
         25    1    3    3    0    0 -0.72358192599E+02  0.73237887621E+02 -0.48209166849E+03  0.50858566746E+03  0.12509000000E+03 0.  0.
         25    1    4    4    0    0  0.17430649560E+01 -0.24834045363E+02 -0.29038008722E+03  0.31715590998E+03  0.12509000000E+03 0.  0.
<mgrwt>
<rscale>  2 0.45321420E+03</rscale>
<asrwt>0</asrwt>
<pdfrwt beam="1">  1       21 0.70866506E-02 0.45321420E+03</pdfrwt>
<pdfrwt beam="2">  1       21 0.15670692E+00 0.45321420E+03</pdfrwt>
<totfact> 0.35506120E+04</totfact>
</mgrwt>
</event>
<event>
 7    0  0.4831799E-002  0.4309999E+03  0.7546771E-02  0.1033545E+00
         21   -1    0    0  502  501  0.00000000000E+00  0.00000000000E+00  0.29576969089E+03  0.29576969089E+03  0.00000000000E+00 0.  1.
         21   -1    0    0  501  502 -0.00000000000E+00 -0.00000000000E+00 -0.15701479643E+03  0.15701479643E+03  0.00000000000E+00 0.  1.
      99926    2    1    2    0    0  0.00000000000E+00  0.00000000000E+00  0.13875489447E+03  0.45278448732E+03  0.43099985060E+03 0.  0.
      99925    2    3    3    0    0  0.79871119998E+01 -0.67930160959E+02  0.14896269680E+03  0.30985090815E+03  0.26294371929E+03 0.  0.
         25    1    4    4    0    0  0.37934539162E+02 -0.45812786593E+02  0.98310811124E+02  0.16985395009E+03  0.12509000000E+03 0.  0.
         25    1    4    4    0    0 -0.29947427162E+02 -0.22117374366E+02  0.50651885677E+02  0.13999695806E+03  0.12509000000E+03 0.  0.
         25    1    3    3    0    0 -0.79871119998E+01  0.67930160959E+02 -0.10207802335E+02  0.14293357917E+03  0.12509000000E+03 0.  0.
<mgrwt>
<rscale>  2 0.43099985E+03</rscale>
<asrwt>0</asrwt>
<pdfrwt beam="1">  1       21 0.43495543E-01 0.43099985E+03</pdfrwt>
<pdfrwt beam="2">  1       21 0.23090411E-01 0.43099985E+03</pdfrwt>
<totfact> 0.83548218E+04</totfact>
</mgrwt>
</event>
<event>
 7    0  0.4831799E-002  0.4576407E+03  0.7546771E-02  0.1025468E+00
         21   -1    0    0  502  501  0.00000000000E+00  0.00000000000E+00  0.13813591429E+04  0.13813591429E+04  0.00000000000E+00 0. -1.
         21   -1    0    0  501  502 -0.00000000000E+00 -0.00000000000E+00 -0.37903794651E+02  0.37903794651E+02  0.00000000000E+00 0. -1.
      99926    2    1    2    0    0  0.71054273576E-14  0.00000000000E+00  0.13434553483E+04  0.14192629376E+04  0.45764070314E+03 0.  0.
      99925    2    3    3    0    0  0.33278647937E+02  0.68926498991E+02  0.11122560463E+04  0.11454766048E+04  0.26295400543E+03 0.  0.
         25    1    4    4    0    0 -0.52965681082E+01  0.59704751577E+02  0.47445202365E+03  0.49431259527E+03  0.12509000000E+03 0.  0.
         25    1    4    4    0    0  0.38575216045E+02  0.92217474140E+01  0.63780402268E+03  0.65116400958E+03  0.12509000000E+03 0.  0.
         25    1    3    3    0    0 -0.33278647937E+02 -0.68926498991E+02  0.23119930194E+03  0.27378633273E+03  0.12509000000E+03 0.  0.
<mgrwt>
<rscale>  2 0.45764070E+03</rscale>
<asrwt>0</asrwt>
<pdfrwt beam="1">  1       21 0.20314102E+00 0.45764070E+03</pdfrwt>
<pdfrwt beam="2">  1       21 0.55740884E-02 0.45764070E+03</pdfrwt>
<totfact> 0.25300047E+04</totfact>
</mgrwt>
</event>
<event>
 7    0  0.4831799E-002  0.4394943E+03  0.7546771E-02  0.1030902E+00
         21   -1    0    0  502  501  0.00000000000E+00  0.00000000000E+00  0.11177723712E+03  0.11177723712E+03  0.00000000000E+00 0.  1.
         21   -1    0    0  501  502 -0.00000000000E+00 -0.00000000000E+00 -0.43200925171E+03  0.43200925171E+03  0.00000000000E+00 0.  1.
      99926    2    1    2    0    0  0.00000000000E+00  0.00000000000E+00 -0.32023201459E+03  0.54378648884E+03  0.43949425738E+03 0.  0.
      99925    2    3    3    0    0  0.28469332832E+02  0.82294489502E+02 -0.25994275580E+03  0.37988045252E+03  0.26297535247E+03 0.  0.
         25    1    4    4    0    0  0.49386640878E+02  0.50038275994E+02 -0.16207110657E+03  0.21646575028E+03  0.12509000000E+03 0.  0.
         25    1    4    4    0    0 -0.20917308046E+02  0.32256213507E+02 -0.97871649229E+02  0.16341470224E+03  0.12509000000E+03 0.  0.
         25    1    3    3    0    0 -0.28469332832E+02 -0.82294489502E+02 -0.60289258794E+02  0.16390603631E+03  0.12509000000E+03 0.  0.
<mgrwt>
<rscale>  2 0.43949426E+03</rscale>
<asrwt>0</asrwt>
<pdfrwt beam="1">  1       21 0.16437829E-01 0.43949426E+03</pdfrwt>
<pdfrwt beam="2">  1       21 0.63530773E-01 0.43949426E+03</pdfrwt>
<totfact> 0.70544257E+04</totfact>
</mgrwt>
</event>
<event>
 7    0  0.4831799E-002  0.4499791E+03  0.7546771E-02  0.1027728E+00
         21   -1    0    0  502  501  0.00000000000E+00  0.00000000000E+00  0.73627864046E+02  0.73627864046E+02  0.00000000000E+00 0.  1.
         21   -1    0    0  501  502 -0.00000000000E+00 -0.00000000000E+00 -0.68751559458E+03  0.68751559458E+03  0.00000000000E+00 0.  1.
      99926    2    1    2    0    0  0.00000000000E+00  0.00000000000E+00 -0.61388773053E+03  0.76114345862E+03  0.44997913164E+03 0.  0.
      99925    2    3    3    0    0  0.72870031812E+02 -0.66807842949E+02 -0.31262627223E+03  0.42029260594E+03  0.26293983933E+03 0.  0.
         25    1    3    3    0    0 -0.72870031812E+02  0.66807842949E+02 -0.30126145830E+03  0.34085085268E+03  0.12509000000E+03 0.  0.
         25    1    4    4    0    0  0.44062309651E+02 -0.69321379472E+02 -0.13812509597E+03  0.20364918615E+03  0.12509000000E+03 0.  0.
         25    1    4    4    0    0  0.28807722161E+02  0.25135365233E+01 -0.17450117626E+03  0.21664341979E+03  0.12509000000E+03 0.  0.
<mgrwt>
<rscale>  2 0.44997913E+03</rscale>
<asrwt>0</asrwt>
<pdfrwt beam="1">  1       21 0.10827627E-01 0.44997913E+03</pdfrwt>
<pdfrwt beam="2">  1       21 0.10110523E+00 0.44997913E+03</pdfrwt>
<totfact> 0.51709758E+04</totfact>
</mgrwt>
</event>
<event>
 7    0  0.4831799E-002  0.4535385E+03  0.7546771E-02  0.1026672E+00
         21   -1    0    0  502  501  0.00000000000E+00  0.00000000000E+00  0.10185890745E+03  0.10185890745E+03  0.00000000000E+00 0.  1.
         21   -1    0    0  501  502 -0.00000000000E+00 -0.00000000000E+00 -0.50485809604E+03  0.50485809604E+03  0.00000000000E+00 0.  1.
      99926    2    1    2    0    0  0.00000000000E+00 -0.71054273576E-14 -0.40299918858E+03  0.60671700349E+03  0.45353850588E+03 0.  0.
      99925    2    3    3    0    0  0.91637717576E+02  0.30239307809E+02 -0.32952396081E+03  0.43248151854E+03  0.26294930331E+03 0.  0.
         25    1    4    4    0    0  0.76111026063E+02  0.44998711406E+02 -0.17942296300E+03  0.23591922361E+03  0.12509000000E+03 0.  0.
         25    1    4    4    0    0  0.15526691512E+02 -0.14759403597E+02 -0.15010099781E+03  0.19656229493E+03  0.12509000000E+03 0.  0.
         25    1    3    3    0    0 -0.91637717576E+02 -0.30239307809E+02 -0.73475227776E+02  0.17423548495E+03  0.12509000000E+03 0.  0.
<mgrwt>
<rscale>  2 0.45353851E+03</rscale>
<asrwt>0</asrwt>
<pdfrwt beam="1">  1       21 0.14979251E-01 0.45353851E+03</pdfrwt>
<pdfrwt beam="2">  1       21 0.74243837E-01 0.45353851E+03</pdfrwt>
<totfact> 0.58944300E+04</totfact>
</mgrwt>
</event>
<event>
 7    0  0.4831799E-002  0.4582279E+03  0.7546771E-02  0.1025296E+00
         21   -1    0    0  502  501  0.00000000000E+00  0.00000000000E+00  0.19378433398E+03  0.19378433398E+03  0.00000000000E+00 0.  1.
         21   -1    0    0  501  502 -0.00000000000E+00 -0.00000000000E+00 -0.27088463651E+03  0.27088463651E+03  0.00000000000E+00 0.  1.
      99926    2    1    2    0    0  0.00000000000E+00  0.00000000000E+00 -0.77100302532E+02  0.46466897050E+03  0.45822788598E+03 0.  0.
      99925    2    3    3    0    0 -0.72129992495E+02  0.52534197498E+02 -0.12381441895E+03  0.30406917443E+03  0.26299329797E+03 0.  0.
         25    1    4    4    0    0 -0.11306774061E+02  0.57204742369E+02 -0.52225451820E+02  0.14756433040E+03  0.12509000000E+03 0.  0.
         25    1    4    4    0    0 -0.60823218434E+02 -0.46705448716E+01 -0.71588967129E+02  0.15650484403E+03  0.12509000000E+03 0.  0.
         25    1    3    3    0    0  0.72129992495E+02 -0.52534197498E+02  0.46714116417E+02  0.16059979607E+03  0.12509000000E+03 0.  0.
<mgrwt>
<rscale>  2 0.45822789E+03</rscale>
<asrwt>0</asrwt>
<pdfrwt beam="1">  1       21 0.28497696E-01 0.45822789E+03</pdfrwt>
<pdfrwt beam="2">  1       21 0.39835976E-01 0.45822789E+03</pdfrwt>
<totfact> 0.66121656E+04</totfact>
</mgrwt>
</event>
<event>
 7    0  0.4831799E-002  0.4443211E+03  0.7546771E-02  0.1029429E+00
         21   -1    0    0  502  501  0.00000000000E+00  0.00000000000E+00  0.28899557689E+03  0.28899557689E+03  0.00000000000E+00 0.  1.
         21   -1    0    0  501  502 -0.00000000000E+00 -0.00000000000E+00 -0.17078224157E+03  0.17078224157E+03  0.00000000000E+00 0.  1.
      99926    2    1    2    0    0 -0.88817841970E-15 -0.71054273576E-14  0.11821333531E+03  0.45977781846E+03  0.44432111102E+03 0.  0.
      99925    2    3    3    0    0 -0.48438881218E+01 -0.60833771175E+02  0.16076265259E+03  0.31423688446E+03  0.26301326605E+03 0.  0.
         25    1    4    4    0    0  0.33332797645E+02 -0.43946502643E+02  0.65737129280E+02  0.15169459041E+03  0.12509000000E+03 0.  0.
         25    1    3    3    0    0  0.48438881218E+01  0.60833771175E+02 -0.42549317277E+02  0.14554093400E+03  0.12509000000E+03 0.  0.
         25    1    4    4    0    0 -0.38176685767E+02 -0.16887268532E+02  0.95025523311E+02  0.16254229405E+03  0.12509000000E+03 0.  0.
<mgrwt>
<rscale>  2 0.44432111E+03</rscale>
<asrwt>0</asrwt>
<pdfrwt beam="1">  1       21 0.42499350E-01 0.44432111E+03</pdfrwt>
<pdfrwt beam="2">  1       21 0.25115035E-01 0.44432111E+03</pdfrwt>
<totfact> 0.74301023E+04</totfact>
</mgrwt>
</event>
<event>
 7    0  0.4831799E-002  0.4353648E+03  0.7546771E-02  0.1032179E+00
         21   -1    0    0  502  501  0.00000000000E+00  0.00000000000E+00  0.53592206017E+02  0.53592206017E+02  0.00000000000E+00 0.  1.
         21   -1    0    0  501  502 -0.00000000000E+00 -0.00000000000E+00 -0.88418889093E+03  0.88418889093E+03  0.00000000000E+00 0.  1.
      99926    2    1    2    0    0  0.00000000000E+00  0.00000000000E+00 -0.83059668491E+03  0.93778109695E+03  0.43536482725E+03 0.  0.
      99925    2    3    3    0    0 -0.42364111831E+02  0.77698416863E+02 -0.59883525463E+03  0.65994547896E+03  0.26285473376E+03 0.  0.
         25    1    4    4    0    0 -0.40144198887E+01  0.43526700881E+02 -0.38273156809E+03  0.40502055574E+03  0.12509000000E+03 0.  0.
         25    1    4    4    0    0 -0.38349691942E+02  0.34171715983E+02 -0.21610368654E+03  0.25492492323E+03  0.12509000000E+03 0.  0.
         25    1    3    3    0    0  0.42364111831E+02 -0.77698416863E+02 -0.23176143028E+03  0.27783561798E+03  0.12509000000E+03 0.  0.
<mgrwt>
<rscale>  2 0.43536483E+03</rscale>
<asrwt>0</asrwt>
<pdfrwt beam="1">  1       21 0.78812079E-02 0.43536483E+03</pdfrwt>
<pdfrwt beam="2">  1       21 0.13002776E+00 0.43536483E+03</pdfrwt>
<totfact> 0.48698676E+04</totfact>
</mgrwt>
</event>
<event>
 7    0  0.4831799E-002  0.4713088E+03  0.7546771E-02  0.1021551E+00
         21   -1    0    0  502  501  0.00000000000E+00  0.00000000000E+00  0.16046796405E+04  0.16046796405E+04  0.00000000000E+00 0.  1.
         21   -1    0    0  501  502 -0.00000000000E+00 -0.00000000000E+00 -0.34606909820E+02  0.34606909820E+02  0.00000000000E+00 0.  1.
      99926    2    1    2    0    0  0.71054273576E-14  0.14210854715E-13  0.15700727307E+04  0.16392865503E+04  0.47130883127E+03 0.  0.
      99925    2    3    3    0    0 -0.31859383025E+02 -0.12192151806E+03  0.89725753731E+03  0.94343622921E+03  0.26290864094E+03 0.  0.
         25    1    4    4    0    0 -0.16416482882E+01 -0.79914283122E+02  0.57602044861E+03  0.59484119979E+03  0.12509000000E+03 0.  0.
         25    1    4    4    0    0 -0.30217734736E+02 -0.42007234940E+02  0.32123708870E+03  0.34859502942E+03  0.12509000000E+03 0.  0.
         25    1    3    3    0    0  0.31859383025E+02  0.12192151806E+03  0.67281519340E+03  0.69585032113E+03  0.12509000000E+03 0.  0.
<mgrwt>
<rscale>  2 0.47130883E+03</rscale>
<asrwt>0</asrwt>
<pdfrwt beam="1">  1       21 0.23598225E+00 0.47130883E+03</pdfrwt>
<pdfrwt beam="2">  1       21 0.50892525E-02 0.47130883E+03</pdfrwt>
<totfact> 0.18147377E+04</totfact>
</mgrwt>
</event>
<event>
 7    0  0.4831799E-002  0.4526583E+03  0.7546771E-02  0.1026932E+00
         21   -1    0    0  502  501  0.00000000000E+00  0.00000000000E+00  0.19140280801E+03  0.19140280801E+03  0.00000000000E+00 0. -1.
         21   -1    0    0  501  502 -0.00000000000E+00 -0.00000000000E+00 -0.26762864630E+03  0.26762864630E+03  0.00000000000E+00 0. -1.
      99926    2    1    2    0    0  0.14210854715E-13  0.00000000000E+00 -0.76225838291E+02  0.45903145430E+03  0.45265825698E+03 0.  0.
      99925    2    3    3    0    0 -0.94792024475E+02 -0.38759949878E+02 -0.91462167198E+02  0.29665068131E+03  0.26296090408E+03 0.  0.
         25    1    4    4    0    0 -0.38717005230E+02 -0.58159289595E+02 -0.37956027414E+02  0.14822171763E+03  0.12509000000E+03 0.  0.
         25    1    4    4    0    0 -0.56075019245E+02  0.19399339716E+02 -0.53506139784E+02  0.14842896368E+03  0.12509000000E+03 0.  0.
         25    1    3    3    0    0  0.94792024475E+02  0.38759949878E+02  0.15236328907E+02  0.16238077299E+03  0.12509000000E+03 0.  0.
<mgrwt>
<rscale>  2 0.45265826E+03</rscale>
<asrwt>0</asrwt>
<pdfrwt beam="1">  1       21 0.28147472E-01 0.45265826E+03</pdfrwt>
<pdfrwt beam="2">  1       21 0.39357154E-01 0.45265826E+03</pdfrwt>
<totfact> 0.69540678E+04</totfact>
</mgrwt>
</event>
<event>
 7    0  0.4831799E-002  0.4547101E+03  0.7546771E-02  0.1026327E+00
         21   -1    0    0  502  501  0.00000000000E+00  0.00000000000E+00  0.13206304529E+04  0.13206304529E+04  0.00000000000E+00 0.  1.
         21   -1    0    0  501  502 -0.00000000000E+00 -0.00000000000E+00 -0.39140642098E+02  0.39140642098E+02  0.00000000000E+00 0.  1.
      99926    2    1    2    0    0  0.00000000000E+00  0.00000000000E+00  0.12814898108E+04  0.13597710950E+04  0.45471012260E+03 0.  0.
      99925    2    3    3    0    0  0.68841349228E+02  0.41125515600E+02  0.56914546105E+03  0.63209505436E+03  0.26303452723E+03 0.  0.
         25    1    4    4    0    0  0.62123814128E+02  0.17866351492E+02  0.22847666172E+03  0.26837970834E+03  0.12509000000E+03 0.  0.
         25    1    3    3    0    0 -0.68841349228E+02 -0.41125515600E+02  0.71234434972E+03  0.72767604061E+03  0.12509000000E+03 0.  0.
         25    1    4    4    0    0  0.67175350992E+01  0.23259164109E+02  0.34066879933E+03  0.36371534602E+03  0.12509000000E+03 0.  0.
<mgrwt>
<rscale>  2 0.45471012E+03</rscale>
<asrwt>0</asrwt>
<pdfrwt beam="1">  1       21 0.19421033E+00 0.45471012E+03</pdfrwt>
<pdfrwt beam="2">  1       21 0.57559776E-02 0.45471012E+03</pdfrwt>
<totfact> 0.27485922E+04</totfact>
</mgrwt>
</event>
<event>
 7    0  0.4831799E-002  0.4498352E+03  0.7546771E-02  0.1027771E+00
         21   -1    0    0  502  501  0.00000000000E+00  0.00000000000E+00  0.49197962266E+03  0.49197962266E+03  0.00000000000E+00 0. -1.
         21   -1    0    0  501  502 -0.00000000000E+00 -0.00000000000E+00 -0.10282526210E+03  0.10282526210E+03  0.00000000000E+00 0. -1.
      99926    2    1    2    0    0  0.00000000000E+00  0.71054273576E-14  0.38915436056E+03  0.59480488477E+03  0.44983523050E+03 0.  0.
      99925    2    3    3    0    0  0.66372743790E+02  0.29302134914E+02  0.13971829230E+03  0.30648246719E+03  0.26295692663E+03 0.  0.
         25    1    4    4    0    0  0.50849043139E+02 -0.14758399792E+02  0.46253817943E+02  0.14349341214E+03  0.12509000000E+03 0.  0.
         25    1    4    4    0    0  0.15523700651E+02  0.44060534706E+02  0.93464474359E+02  0.16298905506E+03  0.12509000000E+03 0.  0.
         25    1    3    3    0    0 -0.66372743790E+02 -0.29302134914E+02  0.24943606826E+03  0.28832241757E+03  0.12509000000E+03 0.  0.
<mgrwt>
<rscale>  2 0.44983523E+03</rscale>
<asrwt>0</asrwt>
<pdfrwt beam="1">  1       21 0.72349944E-01 0.44983523E+03</pdfrwt>
<pdfrwt beam="2">  1       21 0.15121362E-01 0.44983523E+03</pdfrwt>
<totfact> 0.61469821E+04</totfact>
</mgrwt>
</event>
<event>
 7    0  0.4831799E-002  0.4681412E+03  0.7546771E-02  0.1022446E+00
         21   -1    0    0  502  501  0.00000000000E+00  0.00000000000E+00  0.45002208801E+02  0.45002208801E+02  0.00000000000E+00 0. -1.
         21   -1    0    0  501  502 -0.00000000000E+00 -0.00000000000E+00 -0.12174745650E+04  0.12174745650E+04  0.00000000000E+00 0. -1.
      99926    2    1    2    0    0  0.00000000000E+00  0.00000000000E+00 -0.11724723562E+04  0.12624767738E+04  0.46814119488E+03 0.  0.
      99925    2    3    3    0    0 -0.40688121889E+02  0.10214279613E+03 -0.56905526602E+03  0.63649884537E+03  0.26309353909E+03 0.  0.
         25    1    4    4    0    0 -0.23958317417E+02  0.93647632217E+02 -0.29604715428E+03  0.33561183777E+03  0.12509000000E+03 0.  0.
         25    1    4    4    0    0 -0.16729804472E+02  0.84951639145E+01 -0.27300811175E+03  0.30088700761E+03  0.12509000000E+03 0.  0.
         25    1    3    3    0    0  0.40688121889E+02 -0.10214279613E+03 -0.60341709021E+03  0.62597792846E+03  0.12509000000E+03 0.  0.
<mgrwt>
<rscale>  2 0.46814119E+03</rscale>
<asrwt>0</asrwt>
<pdfrwt beam="1">  1       21 0.66179719E-02 0.46814119E+03</pdfrwt>
<pdfrwt beam="2">  1       21 0.17904038E+00 0.46814119E+03</pdfrwt>
<totfact> 0.27320860E+04</totfact>
</mgrwt>
</event>
<event>
 7    0  0.4831799E-002  0.4424770E+03  0.7546771E-02  0.1029990E+00
         21   -1    0    0  502  501  0.00000000000E+00  0.00000000000E+00  0.28998533962E+03  0.28998533962E+03  0.00000000000E+00 0.  1.
         21   -1    0    0  501  502 -0.00000000000E+00 -0.00000000000E+00 -0.16878945364E+03  0.16878945364E+03  0.00000000000E+00 0.  1.
      99926    2    1    2    0    0  0.00000000000E+00  0.00000000000E+00  0.12119588598E+03  0.45877479325E+03  0.44247696906E+03 0.  0.
      99925    2    3    3    0    0  0.37025250025E+02 -0.53333969803E+02 -0.34257490786E+01  0.27064334586E+03  0.26271791608E+03 0.  0.
         25    1    4    4    0    0 -0.14142774892E+02 -0.46624029731E+02  0.10265433866E+02  0.13463545396E+03  0.12509000000E+03 0.  0.
         25    1    3    3    0    0 -0.37025250025E+02  0.53333969803E+02  0.12462163506E+03  0.18813144739E+03  0.12509000000E+03 0.  0.
         25    1    4    4    0    0  0.51168024917E+02 -0.67099400723E+01 -0.13691182945E+02  0.13600789190E+03  0.12509000000E+03 0.  0.
<mgrwt>
<rscale>  2 0.44247697E+03</rscale>
<asrwt>0</asrwt>
<pdfrwt beam="1">  1       21 0.42644903E-01 0.44247697E+03</pdfrwt>
<pdfrwt beam="2">  1       21 0.24821978E-01 0.44247697E+03</pdfrwt>
<totfact> 0.75506449E+04</totfact>
</mgrwt>
</event>
<event>
 7    0  0.4831799E-002  0.4438304E+03  0.7546771E-02  0.1029578E+00
         21   -1    0    0  502  501  0.00000000000E+00  0.00000000000E+00  0.55713529150E+03  0.55713529150E+03  0.00000000000E+00 0. -1.
         21   -1    0    0  501  502 -0.00000000000E+00 -0.00000000000E+00 -0.88392076373E+02  0.88392076373E+02  0.00000000000E+00 0. -1.
      99926    2    1    2    0    0  0.00000000000E+00  0.00000000000E+00  0.46874321513E+03  0.64552736788E+03  0.44383035154E+03 0.  0.
      99925    2    3    3    0    0 -0.18113211004E+02 -0.99843729142E+02  0.27921284186E+03  0.39679834031E+03  0.26304420380E+03 0.  0.
         25    1    4    4    0    0 -0.20594049550E+02 -0.82048751070E+02  0.11622181161E+03  0.19055479533E+03  0.12509000000E+03 0.  0.
         25    1    4    4    0    0  0.24808385459E+01 -0.17794978072E+02  0.16299103025E+03  0.20624354498E+03  0.12509000000E+03 0.  0.
         25    1    3    3    0    0  0.18113211004E+02  0.99843729142E+02  0.18953037327E+03  0.24872902756E+03  0.12509000000E+03 0.  0.
<mgrwt>
<rscale>  2 0.44383035E+03</rscale>
<asrwt>0</asrwt>
<pdfrwt beam="1">  1       21 0.81931659E-01 0.44383035E+03</pdfrwt>
<pdfrwt beam="2">  1       21 0.12998835E-01 0.44383035E+03</pdfrwt>
<totfact> 0.61175127E+04</totfact>
</mgrwt>
</event>
<event>
 7    0  0.4831799E-002  0.4527989E+03  0.7546771E-02  0.1026891E+00
         21   -1    0    0  502  501  0.00000000000E+00  0.00000000000E+00  0.95671171191E+03  0.95671171191E+03  0.00000000000E+00 0.  1.
         21   -1    0    0  501  502 -0.00000000000E+00 -0.00000000000E+00 -0.53575924432E+02  0.53575924432E+02  0.00000000000E+00 0.  1.
      99926    2    1    2    0    0  0.00000000000E+00  0.00000000000E+00  0.90313578748E+03  0.10102876363E+04  0.45279891511E+03 0.  0.
      99925    2    3    3    0    0  0.85557103190E+02  0.70577852453E+02  0.55533009025E+03  0.62438925298E+03  0.26300034017E+03 0.  0.
         25    1    4    4    0    0  0.37442626632E+02  0.45686025699E+02  0.36453626880E+03  0.38990173455E+03  0.12509000000E+03 0.  0.
         25    1    3    3    0    0 -0.85557103190E+02 -0.70577852453E+02  0.34780569722E+03  0.38589838336E+03  0.12509000000E+03 0.  0.
         25    1    4    4    0    0  0.48114476557E+02  0.24891826753E+02  0.19079382145E+03  0.23448751843E+03  0.12509000000E+03 0.  0.
<mgrwt>
<rscale>  2 0.45279892E+03</rscale>
<asrwt>0</asrwt>
<pdfrwt beam="1">  1       21 0.14069289E+00 0.45279892E+03</pdfrwt>
<pdfrwt beam="2">  1       21 0.78788130E-02 0.45279892E+03</pdfrwt>
<totfact> 0.39442587E+04</totfact>
</mgrwt>
</event>
<event>
 7    0  0.4831799E-002  0.4421808E+03  0.7546771E-02  0.1030080E+00
         21   -1    0    0  502  501  0.00000000000E+00  0.00000000000E+00  0.36338485027E+02  0.36338485027E+02  0.00000000000E+00 0.  1.
         21   -1    0    0  501  502 -0.00000000000E+00 -0.00000000000E+00 -0.13451571720E+04  0.13451571720E+04  0.00000000000E+00 0.  1.
      99926    2    1    2    0    0  0.00000000000E+00 -0.71054273576E-14 -0.13088186870E+04  0.13814956571E+04  0.44218083972E+03 0.  0.
      99925    2    3    3    0    0  0.79266301135E+02 -0.52469669016E+02 -0.93710583492E+03  0.97794372091E+03  0.26300259080E+03 0.  0.
         25    1    4    4    0    0  0.59483326738E+02 -0.12071773113E+01 -0.55913319752E+03  0.57603573162E+03  0.12509000000E+03 0.  0.
         25    1    3    3    0    0 -0.79266301135E+02  0.52469669016E+02 -0.37171285209E+03  0.40355193615E+03  0.12509000000E+03 0.  0.
         25    1    4    4    0    0  0.19782974397E+02 -0.51262491705E+02 -0.37797263740E+03  0.40190798929E+03  0.12509000000E+03 0.  0.
<mgrwt>
<rscale>  2 0.44218084E+03</rscale>
<asrwt>0</asrwt>
<pdfrwt beam="1">  1       21 0.53438948E-02 0.44218084E+03</pdfrwt>
<pdfrwt beam="2">  1       21 0.19781723E+00 0.44218084E+03</pdfrwt>
<totfact> 0.29677844E+04</totfact>
</mgrwt>
</event>
<event>
 7    0  0.4831799E-002  0.4575505E+03  0.7546771E-02  0.1025494E+00
         21   -1    0    0  502  501  0.00000000000E+00  0.00000000000E+00  0.16801672739E+03  0.16801672739E+03  0.00000000000E+00 0. -1.
         21   -1    0    0  501  502 -0.00000000000E+00 -0.00000000000E+00 -0.31150539618E+03  0.31150539618E+03  0.00000000000E+00 0. -1.
      99926    2    1    2    0    0  0.00000000000E+00  0.14210854715E-13 -0.14348866880E+03  0.47952212357E+03  0.45755050969E+03 0.  0.
      99925    2    3    3    0    0  0.34856858630E+02  0.99699970142E+02 -0.40918921713E+02  0.28633013161E+03  0.26297433615E+03 0.  0.
         25    1    4    4    0    0  0.11336708677E+02  0.88364754188E+02 -0.52589108687E+01  0.15366201544E+03  0.12509000000E+03 0.  0.
         25    1    4    4    0    0  0.23520149953E+02  0.11335215955E+02 -0.35660010844E+02  0.13266811617E+03  0.12509000000E+03 0.  0.
         25    1    3    3    0    0 -0.34856858630E+02 -0.99699970142E+02 -0.10256974708E+03  0.19319199196E+03  0.12509000000E+03 0.  0.
<mgrwt>
<rscale>  2 0.45755051E+03</rscale>
<asrwt>0</asrwt>
<pdfrwt beam="1">  1       21 0.24708342E-01 0.45755051E+03</pdfrwt>
<pdfrwt beam="2">  1       21 0.45809617E-01 0.45755051E+03</pdfrwt>
<totfact> 0.65400918E+04</totfact>
</mgrwt>
</event>
<event>
 7    0  0.4831799E-002  0.4557944E+03  0.7546771E-02  0.1026008E+00
         21   -1    0    0  502  501  0.00000000000E+00  0.00000000000E+00  0.11987372872E+03  0.11987372872E+03  0.00000000000E+00 0. -1.
         21   -1    0    0  501  502 -0.00000000000E+00 -0.00000000000E+00 -0.43326541881E+03  0.43326541881E+03  0.00000000000E+00 0. -1.
      99926    2    1    2    0    0 -0.14210854715E-13  0.00000000000E+00 -0.31339169008E+03  0.55313914753E+03  0.45579443296E+03 0.  0.
      99925    2    3    3    0    0 -0.11204202483E+03 -0.20160841832E+02 -0.19177322394E+03  0.34481623885E+03  0.26298554007E+03 0.  0.
         25    1    3    3    0    0  0.11204202483E+03  0.20160841832E+02 -0.12161846615E+03  0.20832290868E+03  0.12509000000E+03 0.  0.
         25    1    4    4    0    0 -0.14279161782E+02 -0.18821214511E+02 -0.75258336436E+02  0.14788325761E+03  0.12509000000E+03 0.  0.
         25    1    4    4    0    0 -0.97762863052E+02 -0.13396273213E+01 -0.11651488750E+03  0.19693298125E+03  0.12509000000E+03 0.  0.
<mgrwt>
<rscale>  2 0.45579443E+03</rscale>
<asrwt>0</asrwt>
<pdfrwt beam="1">  1       21 0.17628490E-01 0.45579443E+03</pdfrwt>
<pdfrwt beam="2">  1       21 0.63715503E-01 0.45579443E+03</pdfrwt>
<totfact> 0.61273538E+04</totfact>
</mgrwt>
</event>
<event>
 7    0  0.4831799E-002  0.4593280E+03  0.7546771E-02  0.1024976E+00
         21   -1    0    0  502  501  0.00000000000E+00  0.00000000000E+00  0.41183237309E+02  0.41183237309E+02  0.00000000000E+00 0. -1.
         21   -1    0    0  501  502 -0.00000000000E+00 -0.00000000000E+00 -0.12807531803E+04  0.12807531803E+04  0.00000000000E+00 0. -1.
      99926    2    1    2    0    0  0.00000000000E+00  0.14210854715E-13 -0.12395699430E+04  0.13219364176E+04  0.45932804033E+03 0.  0.
      99925    2    3    3    0    0  0.81992795258E+02  0.82375310231E+02 -0.80736109720E+03  0.85722090819E+03  0.26360431325E+03 0.  0.
         25    1    4    4    0    0  0.65168402235E+02  0.78852634036E+02 -0.43608452788E+03  0.46506115952E+03  0.12509000000E+03 0.  0.
         25    1    3    3    0    0 -0.81992795258E+02 -0.82375310231E+02 -0.43220884577E+03  0.46471550940E+03  0.12509000000E+03 0.  0.
         25    1    4    4    0    0  0.16824393023E+02  0.35226761947E+01 -0.37127656932E+03  0.39215974867E+03  0.12509000000E+03 0.  0.
<mgrwt>
<rscale>  2 0.45932804E+03</rscale>
<asrwt>0</asrwt>
<pdfrwt beam="1">  1       21 0.60563593E-02 0.45932804E+03</pdfrwt>
<pdfrwt beam="2">  1       21 0.18834603E+00 0.45932804E+03</pdfrwt>
<totfact> 0.27545475E+04</totfact>
</mgrwt>
</event>
<event>
 7    0  0.4831799E-002  0.4546641E+03  0.7546771E-02  0.1026340E+00
         21   -1    0    0  502  501  0.00000000000E+00  0.00000000000E+00  0.26746844644E+03  0.26746844644E+03  0.00000000000E+00 0.  1.
         21   -1    0    0  501  502 -0.00000000000E+00 -0.00000000000E+00 -0.19321854444E+03  0.19321854444E+03  0.00000000000E+00 0.  1.
      99926    2    1    2    0    0  0.17763568394E-14  0.15543122345E-14  0.74249902008E+02  0.46068699088E+03  0.45466411297E+03 0.  0.
      99925    2    3    3    0    0  0.10269607861E+02  0.11017596705E+01  0.16055697920E+03  0.30836135813E+03  0.26306178913E+03 0.  0.
         25    1    4    4    0    0 -0.23546291028E+02 -0.24554724846E+02  0.96157488520E+02  0.16140363389E+03  0.12509000000E+03 0.  0.
         25    1    4    4    0    0  0.33815898889E+02  0.25656484516E+02  0.64399490677E+02  0.14695772424E+03  0.12509000000E+03 0.  0.
         25    1    3    3    0    0 -0.10269607861E+02 -0.11017596705E+01 -0.86307077189E+02  0.15232563275E+03  0.12509000000E+03 0.  0.
<mgrwt>
<rscale>  2 0.45466411E+03</rscale>
<asrwt>0</asrwt>
<pdfrwt beam="1">  1       21 0.39333595E-01 0.45466411E+03</pdfrwt>
<pdfrwt beam="2">  1       21 0.28414492E-01 0.45466411E+03</pdfrwt>
<totfact> 0.68313269E+04</totfact>
</mgrwt>
</event>
<event>
 7    0  0.4831799E-002  0.4561544E+03  0.7546771E-02  0.1025902E+00
         21   -1    0    0  502  501  0.00000000000E+00  0.00000000000E+00  0.24895675261E+03  0.24895675261E+03  0.00000000000E+00 0. -1.
         21   -1    0    0  501  502 -0.00000000000E+00 -0.00000000000E+00 -0.20894875804E+03  0.20894875804E+03  0.00000000000E+00 0. -1.
      99926    2    1    2    0    0  0.00000000000E+00  0.00000000000E+00  0.40007994572E+02  0.45790551065E+03  0.45615437853E+03 0.  0.
      99925    2    3    3    0    0 -0.82675022217E+02 -0.62014011239E+02 -0.23698746754E+02  0.28358696924E+03  0.26301908987E+03 0.  0.
         25    1    3    3    0    0  0.82675022217E+02  0.62014011239E+02  0.63706741325E+02  0.17431854141E+03  0.12509000000E+03 0.  0.
         25    1    4    4    0    0 -0.27646681517E+01 -0.39651476330E+02 -0.24253251252E+02  0.13347513349E+03  0.12509000000E+03 0.  0.
         25    1    4    4    0    0 -0.79910354066E+02 -0.22362534909E+02  0.55450449794E+00  0.15011183574E+03  0.12509000000E+03 0.  0.
<mgrwt>
<rscale>  2 0.45615438E+03</rscale>
<asrwt>0</asrwt>
<pdfrwt beam="1">  1       21 0.36611287E-01 0.45615438E+03</pdfrwt>
<pdfrwt beam="2">  1       21 0.30727759E-01 0.45615438E+03</pdfrwt>
<totfact> 0.67707715E+04</totfact>
</mgrwt>
</event>
<event>
 7    0  0.4831799E-002  0.4589735E+03  0.7546771E-02  0.1025079E+00
         21   -1    0    0  502  501  0.00000000000E+00  0.00000000000E+00  0.52104732587E+03  0.52104732587E+03  0.00000000000E+00 0. -1.
         21   -1    0    0  501  502 -0.00000000000E+00 -0.00000000000E+00 -0.10107366133E+03  0.10107366133E+03  0.00000000000E+00 0. -1.
      99926    2    1    2    0    0  0.00000000000E+00  0.00000000000E+00  0.41997366454E+03  0.62212098720E+03  0.45897346743E+03 0.  0.
      99925    2    3    3    0    0  0.10666292553E+03  0.28231699947E+02  0.31499475438E+03  0.42503702478E+03  0.26317440716E+03 0.  0.
         25    1    4    4    0    0  0.86262764240E+02  0.15634295472E+01  0.20458429559E+03  0.25484495464E+03  0.12509000000E+03 0.  0.
         25    1    4    4    0    0  0.20400161292E+02  0.26668270399E+02  0.11041045879E+03  0.17019207014E+03  0.12509000000E+03 0.  0.
         25    1    3    3    0    0 -0.10666292553E+03 -0.28231699947E+02  0.10497891016E+03  0.19708396242E+03  0.12509000000E+03 0.  0.
<mgrwt>
<rscale>  2 0.45897347E+03</rscale>
<asrwt>0</asrwt>
<pdfrwt beam="1">  1       21 0.76624606E-01 0.45897347E+03</pdfrwt>
<pdfrwt beam="2">  1       21 0.14863774E-01 0.45897347E+03</pdfrwt>
<totfact> 0.55572668E+04</totfact>
</mgrwt>
</event>
<event>
 7    0  0.4831799E-002  0.4584595E+03  0.7546771E-02  0.1025229E+00
         21   -1    0    0  502  501  0.00000000000E+00  0.00000000000E+00  0.16588260559E+03  0.16588260559E+03  0.00000000000E+00 0. -1.
         21   -1    0    0  501  502 -0.00000000000E+00 -0.00000000000E+00 -0.31676787907E+03  0.31676787907E+03  0.00000000000E+00 0. -1.
      99926    2    1    2    0    0  0.00000000000E+00  0.00000000000E+00 -0.15088527348E+03  0.48265048466E+03  0.45845951248E+03 0.  0.
      99925    2    3    3    0    0  0.45224390986E+02  0.97387631662E+02 -0.47115104868E+02  0.28785481650E+03  0.26288964592E+03 0.  0.
         25    1    4    4    0    0  0.33918983376E+02  0.26787432862E+02 -0.55536622985E+02  0.14352661281E+03  0.12509000000E+03 0.  0.
         25    1    4    4    0    0  0.11305407610E+02  0.70600198800E+02  0.84215181171E+01  0.14432820369E+03  0.12509000000E+03 0.  0.
         25    1    3    3    0    0 -0.45224390986E+02 -0.97387631662E+02 -0.10377016861E+03  0.19479566816E+03  0.12509000000E+03 0.  0.
<mgrwt>
<rscale>  2 0.45845951E+03</rscale>
<asrwt>0</asrwt>
<pdfrwt beam="1">  1       21 0.24394501E-01 0.45845951E+03</pdfrwt>
<pdfrwt beam="2">  1       21 0.46583512E-01 0.45845951E+03</pdfrwt>
<totfact> 0.64712311E+04</totfact>
</mgrwt>
</event>
<event>
 7    0  0.4831799E-002  0.4713696E+03  0.7546771E-02  0.1021534E+00
         21   -1    0    0  502  501  0.00000000000E+00  0.00000000000E+00  0.72301360730E+02  0.72301360730E+02  0.00000000000E+00 0.  1.
         21   -1    0    0  501  502 -0.00000000000E+00 -0.00000000000E+00 -0.76827503780E+03  0.76827503780E+03  0.00000000000E+00 0.  1.
      99926    2    1    2    0    0  0.00000000000E+00  0.00000000000E+00 -0.69597367707E+03  0.84057639853E+03  0.47136962417E+03 0.  0.
      99925    2    3    3    0    0 -0.90000822109E+02 -0.37905909182E+02 -0.57911871192E+03  0.64349875669E+03  0.26301171351E+03 0.  0.
         25    1    4    4    0    0 -0.54425117812E+02 -0.15119156666E+02 -0.20445801137E+03  0.24625447988E+03  0.12509000000E+03 0.  0.
         25    1    3    3    0    0  0.90000822109E+02  0.37905909182E+02 -0.11685496515E+03  0.19707764184E+03  0.12509000000E+03 0.  0.
         25    1    4    4    0    0 -0.35575704297E+02 -0.22786752517E+02 -0.37466070055E+03  0.39724427682E+03  0.12509000000E+03 0.  0.
<mgrwt>
<rscale>  2 0.47136962E+03</rscale>
<asrwt>0</asrwt>
<pdfrwt beam="1">  1       21 0.10632553E-01 0.47136962E+03</pdfrwt>
<pdfrwt beam="2">  1       21 0.11298163E+00 0.47136962E+03</pdfrwt>
<totfact> 0.40417638E+04</totfact>
</mgrwt>
</event>
<event>
 7    0  0.4831799E-002  0.4396430E+03  0.7546771E-02  0.1030856E+00
         21   -1    0    0  502  501  0.00000000000E+00  0.00000000000E+00  0.24757493878E+02  0.24757493878E+02  0.00000000000E+00 0. -1.
         21   -1    0    0  501  502 -0.00000000000E+00 -0.00000000000E+00 -0.19517920973E+04  0.19517920973E+04  0.00000000000E+00 0. -1.
      99926    2    1    2    0    0  0.00000000000E+00 -0.14210854715E-13 -0.19270346034E+04  0.19765495912E+04  0.43964295013E+03 0.  0.
      99925    2    3    3    0    0  0.50944843587E+02 -0.84333013573E+02 -0.11684398037E+04  0.12014231418E+04  0.26164586086E+03 0.  0.
         25    1    4    4    0    0  0.35318464585E+02 -0.50900412783E+02 -0.44698640839E+03  0.46827620412E+03  0.12509000000E+03 0.  0.
         25    1    4    4    0    0  0.15626379002E+02 -0.33432600790E+02 -0.72145339526E+03  0.73314693763E+03  0.12509000000E+03 0.  0.
         25    1    3    3    0    0 -0.50944843587E+02  0.84333013573E+02 -0.75859479978E+03  0.77512644944E+03  0.12509000000E+03 0.  0.
<mgrwt>
<rscale>  2 0.43964295E+03</rscale>
<asrwt>0</asrwt>
<pdfrwt beam="1">  1       21 0.36408076E-02 0.43964295E+03</pdfrwt>
<pdfrwt beam="2">  1       21 0.28702827E+00 0.43964295E+03</pdfrwt>
<totfact> 0.15910178E+04</totfact>
</mgrwt>
</event>
<event>
 7    0  0.4831799E-002  0.4587316E+03  0.7546771E-02  0.1025150E+00
         21   -1    0    0  502  501  0.00000000000E+00  0.00000000000E+00  0.83887999498E+02  0.83887999498E+02  0.00000000000E+00 0.  1.
         21   -1    0    0  501  502 -0.00000000000E+00 -0.00000000000E+00 -0.62712980869E+03  0.62712980869E+03  0.00000000000E+00 0.  1.
      99926    2    1    2    0    0  0.00000000000E+00  0.00000000000E+00 -0.54324180919E+03  0.71101780819E+03  0.45873157762E+03 0.  0.
      99925    2    3    3    0    0  0.56706785046E+02  0.96535042523E+02 -0.28984603343E+03  0.40705794047E+03  0.26296533974E+03 0.  0.
         25    1    4    4    0    0  0.13628527283E+02  0.60437697986E+02 -0.95240120800E+02  0.16898710248E+03  0.12509000000E+03 0.  0.
         25    1    3    3    0    0 -0.56706785046E+02 -0.96535042523E+02 -0.25339577576E+03  0.30395986771E+03  0.12509000000E+03 0.  0.
         25    1    4    4    0    0  0.43078257763E+02  0.36097344537E+02 -0.19460591263E+03  0.23807083800E+03  0.12509000000E+03 0.  0.
<mgrwt>
<rscale>  2 0.45873158E+03</rscale>
<asrwt>0</asrwt>
<pdfrwt beam="1">  1       21 0.12336471E-01 0.45873158E+03</pdfrwt>
<pdfrwt beam="2">  1       21 0.92224972E-01 0.45873158E+03</pdfrwt>
<totfact> 0.50800917E+04</totfact>
</mgrwt>
</event>
<event>
 7    0  0.4831799E-002  0.4532704E+03  0.7546771E-02  0.1026751E+00
         21   -1    0    0  502  501  0.00000000000E+00  0.00000000000E+00  0.51781015279E+03  0.51781015279E+03  0.00000000000E+00 0.  1.
         21   -1    0    0  501  502 -0.00000000000E+00 -0.00000000000E+00 -0.99193704399E+02  0.99193704399E+02  0.00000000000E+00 0.  1.
      99926    2    1    2    0    0  0.00000000000E+00 -0.35527136788E-14  0.41861644839E+03  0.61700385719E+03  0.45327037067E+03 0.  0.
      99925    2    3    3    0    0  0.57826356805E+02  0.77321825797E+01  0.13438002537E+03  0.30102675919E+03  0.26297422752E+03 0.  0.
         25    1    4    4    0    0  0.37836826301E+02 -0.24970378944E+02  0.37510581300E+02  0.13823782789E+03  0.12509000000E+03 0.  0.
         25    1    4    4    0    0  0.19989530504E+02  0.32702561524E+02  0.96869444068E+02  0.16278893130E+03  0.12509000000E+03 0.  0.
         25    1    3    3    0    0 -0.57826356805E+02 -0.77321825797E+01  0.28423642303E+03  0.31597709800E+03  0.12509000000E+03 0.  0.
<mgrwt>
<rscale>  2 0.45327037E+03</rscale>
<asrwt>0</asrwt>
<pdfrwt beam="1">  1       21 0.76148551E-01 0.45327037E+03</pdfrwt>
<pdfrwt beam="2">  1       21 0.14587310E-01 0.45327037E+03</pdfrwt>
<totfact> 0.58437789E+04</totfact>
</mgrwt>
</event>
<event>
 7    0  0.4831799E-002  0.4632154E+03  0.7546771E-02  0.1023853E+00
         21   -1    0    0  502  501  0.00000000000E+00  0.00000000000E+00  0.32296138822E+03  0.32296138822E+03  0.00000000000E+00 0. -1.
         21   -1    0    0  501  502 -0.00000000000E+00 -0.00000000000E+00 -0.16609456384E+03  0.16609456384E+03  0.00000000000E+00 0. -1.
      99926    2    1    2    0    0  0.00000000000E+00  0.88817841970E-15  0.15686682439E+03  0.48905595206E+03  0.46321541819E+03 0.  0.
      99925    2    3    3    0    0  0.19172364530E+02  0.61727969385E+01  0.22362640483E+03  0.34584271012E+03  0.26304510683E+03 0.  0.
         25    1    4    4    0    0 -0.60112904788E+01 -0.10591023352E+02  0.15641548961E+03  0.20065298124E+03  0.12509000000E+03 0.  0.
         25    1    4    4    0    0  0.25183655009E+02  0.16763820290E+02  0.67210915218E+02  0.14518972889E+03  0.12509000000E+03 0.  0.
         25    1    3    3    0    0 -0.19172364530E+02 -0.61727969385E+01 -0.66759580443E+02  0.14321324193E+03  0.12509000000E+03 0.  0.
<mgrwt>
<rscale>  2 0.46321542E+03</rscale>
<asrwt>0</asrwt>
<pdfrwt beam="1">  1       21 0.47494322E-01 0.46321542E+03</pdfrwt>
<pdfrwt beam="2">  1       21 0.24425671E-01 0.46321542E+03</pdfrwt>
<totfact> 0.61909508E+04</totfact>
</mgrwt>
</event>
<event>
 7    0  0.4831799E-002  0.4495373E+03  0.7546771E-02  0.1027860E+00
         21   -1    0    0  502  501  0.00000000000E+00  0.00000000000E+00  0.14134944399E+04  0.14134944399E+04  0.00000000000E+00 0.  1.
         21   -1    0    0  501  502 -0.00000000000E+00 -0.00000000000E+00 -0.35741872415E+02  0.35741872415E+02  0.00000000000E+00 0.  1.
      99926    2    1    2    0    0 -0.71054273576E-14  0.00000000000E+00  0.13777525675E+04  0.14492363123E+04  0.44953726400E+03 0.  0.
      99925    2    3    3    0    0 -0.49415926618E+02 -0.65645176627E+02  0.10971697529E+04  0.11312340373E+04  0.26297862516E+03 0.  0.
         25    1    3    3    0    0  0.49415926618E+02  0.65645176627E+02  0.28058281457E+03  0.31800227507E+03  0.12509000000E+03 0.  0.
         25    1    4    4    0    0 -0.23781576753E+02 -0.79860282221E+01  0.39060256585E+03  0.41091022449E+03  0.12509000000E+03 0.  0.
         25    1    4    4    0    0 -0.25634349865E+02 -0.57659148405E+02  0.70656718707E+03  0.72032381276E+03  0.12509000000E+03 0.  0.
<mgrwt>
<rscale>  2 0.44953726E+03</rscale>
<asrwt>0</asrwt>
<pdfrwt beam="1">  1       21 0.20786679E+00 0.44953726E+03</pdfrwt>
<pdfrwt beam="2">  1       21 0.52561586E-02 0.44953726E+03</pdfrwt>
<totfact> 0.26140995E+04</totfact>
</mgrwt>
</event>
<event>
 7    0  0.4831799E-002  0.4641526E+03  0.7546771E-02  0.1023584E+00
         21   -1    0    0  502  501  0.00000000000E+00  0.00000000000E+00  0.86601592907E+02  0.86601592907E+02  0.00000000000E+00 0. -1.
         21   -1    0    0  501  502 -0.00000000000E+00 -0.00000000000E+00 -0.62192157096E+03  0.62192157096E+03  0.00000000000E+00 0. -1.
      99926    2    1    2    0    0  0.00000000000E+00  0.71054273576E-14 -0.53531997806E+03  0.70852316387E+03  0.46415255556E+03 0.  0.
      99925    2    3    3    0    0 -0.29810913946E+02 -0.36087925169E+02 -0.16291273854E+03  0.31288988787E+03  0.26299903540E+03 0.  0.
         25    1    4    4    0    0 -0.24464124905E+02  0.10954429165E+02 -0.48278499993E+02  0.13673629579E+03  0.12509000000E+03 0.  0.
         25    1    3    3    0    0  0.29810913946E+02  0.36087925169E+02 -0.37240723952E+03  0.39563327600E+03  0.12509000000E+03 0.  0.
         25    1    4    4    0    0 -0.53467890418E+01 -0.47042354334E+02 -0.11463423854E+03  0.17615359207E+03  0.12509000000E+03 0.  0.
<mgrwt>
<rscale>  2 0.46415256E+03</rscale>
<asrwt>0</asrwt>
<pdfrwt beam="1">  1       21 0.12735529E-01 0.46415256E+03</pdfrwt>
<pdfrwt beam="2">  1       21 0.91459053E-01 0.46415256E+03</pdfrwt>
<totfact> 0.48830026E+04</totfact>
</mgrwt>
</event>
<event>
 7    0  0.4831799E-002  0.4568674E+03  0.7546771E-02  0.1025694E+00
         21   -1    0    0  502  501  0.00000000000E+00  0.00000000000E+00  0.12997039054E+04  0.12997039054E+04  0.00000000000E+00 0. -1.
         21   -1    0    0  501  502 -0.00000000000E+00 -0.00000000000E+00 -0.40149106207E+02  0.40149106207E+02  0.00000000000E+00 0. -1.
      99926    2    1    2    0    0  0.71054273576E-14  0.14210854715E-13  0.12595547992E+04  0.13398530116E+04  0.45686737741E+03 0.  0.
      99925    2    3    3    0    0 -0.41736356032E+02 -0.10706232460E+03  0.78915949587E+03  0.83972951260E+03  0.26299939099E+03 0.  0.
         25    1    4    4    0    0  0.43895783033E+01 -0.81677067062E+02  0.36607115750E+03  0.39540613568E+03  0.12509000000E+03 0.  0.
         25    1    3    3    0    0  0.41736356032E+02  0.10706232460E+03  0.47039530336E+03  0.50012349903E+03  0.12509000000E+03 0.  0.
         25    1    4    4    0    0 -0.46125934335E+02 -0.25385257538E+02  0.42308833837E+03  0.44432337692E+03  0.12509000000E+03 0.  0.
<mgrwt>
<rscale>  2 0.45686738E+03</rscale>
<asrwt>0</asrwt>
<pdfrwt beam="1">  1       21 0.19113290E+00 0.45686738E+03</pdfrwt>
<pdfrwt beam="2">  1       21 0.59042812E-02 0.45686738E+03</pdfrwt>
<totfact> 0.27576392E+04</totfact>
</mgrwt>
</event>
<event>
 7    0  0.4831799E-002  0.4216888E+03  0.7546771E-02  0.1036518E+00
         21   -1    0    0  502  501  0.00000000000E+00  0.00000000000E+00  0.14320504537E+04  0.14320504537E+04  0.00000000000E+00 0.  1.
         21   -1    0    0  501  502 -0.00000000000E+00 -0.00000000000E+00 -0.31043156986E+02  0.31043156986E+02  0.00000000000E+00 0.  1.
      99926    2    1    2    0    0  0.00000000000E+00  0.00000000000E+00  0.14010072967E+04  0.14630936107E+04  0.42168882862E+03 0.  0.
      99925    2    3    3    0    0  0.77976394063E+02 -0.42116572661E+01  0.90505451296E+03  0.94568204539E+03  0.26285509973E+03 0.  0.
         25    1    3    3    0    0 -0.77976394063E+02  0.42116572661E+01  0.49595278372E+03  0.51741156526E+03  0.12509000000E+03 0.  0.
         25    1    4    4    0    0  0.32958192455E+02 -0.58013157772E+00  0.58430986144E+03  0.59845810320E+03  0.12509000000E+03 0.  0.
         25    1    4    4    0    0  0.45018201608E+02 -0.36315256884E+01  0.32074465152E+03  0.34722394219E+03  0.12509000000E+03 0.  0.
<mgrwt>
<rscale>  2 0.42168883E+03</rscale>
<asrwt>0</asrwt>
<pdfrwt beam="1">  1       21 0.21059561E+00 0.42168883E+03</pdfrwt>
<pdfrwt beam="2">  1       21 0.45651711E-02 0.42168883E+03</pdfrwt>
<totfact> 0.32277932E+04</totfact>
</mgrwt>
</event>
<event>
 6    0  0.4831799E-002  0.4539236E+03  0.7546771E-02  0.1026558E+00
         21   -1    0    0  502  501  0.00000000000E+00  0.00000000000E+00  0.33841015718E+03  0.33841015718E+03  0.00000000000E+00 0.  1.
         21   -1    0    0  501  502 -0.00000000000E+00 -0.00000000000E+00 -0.15221665689E+03  0.15221665689E+03  0.00000000000E+00 0.  1.
      99926    2    1    2    0    0  0.00000000000E+00  0.00000000000E+00  0.18619350029E+03  0.49062681407E+03  0.45392361817E+03 0.  0.
         25    1    3    3    0    0 -0.24759874281E+02 -0.45619349171E+02  0.15792197011E+03  0.20804094101E+03  0.12509000000E+03 0.  0.
         25    1    3    3    0    0  0.18759941279E+02  0.73339764278E+02 -0.15559979771E+02  0.14703835381E+03  0.12509000000E+03 0.  0.
         25    1    3    3    0    0  0.59999330022E+01 -0.27720415107E+02  0.43831509949E+02  0.13554751925E+03  0.12509000000E+03 0.  0.
<mgrwt>
<rscale>  2 0.45392362E+03</rscale>
<asrwt>0</asrwt>
<pdfrwt beam="1">  1       21 0.49766199E-01 0.45392362E+03</pdfrwt>
<pdfrwt beam="2">  1       21 0.22384803E-01 0.45392362E+03</pdfrwt>
<totfact> 0.66500739E+04</totfact>
</mgrwt>
</event>
<event>
 7    0  0.4831799E-002  0.4527869E+03  0.7546771E-02  0.1026894E+00
         21   -1    0    0  502  501  0.00000000000E+00  0.00000000000E+00  0.53374425315E+03  0.53374425315E+03  0.00000000000E+00 0.  1.
         21   -1    0    0  501  502 -0.00000000000E+00 -0.00000000000E+00 -0.96027257653E+02  0.96027257653E+02  0.00000000000E+00 0.  1.
      99926    2    1    2    0    0  0.35527136788E-14  0.00000000000E+00  0.43771699550E+03  0.62977151081E+03  0.45278691199E+03 0.  0.
      99925    2    3    3    0    0 -0.20608149628E+02  0.71021507408E+02  0.16000089023E+03  0.31633492460E+03  0.26267613006E+03 0.  0.
         25    1    3    3    0    0  0.20608149628E+02 -0.71021507408E+02  0.27771610527E+03  0.31343658621E+03  0.12509000000E+03 0.  0.
         25    1    4    4    0    0  0.81409349279E+01 -0.16810045041E+01  0.74846848287E+02  0.14600910724E+03  0.12509000000E+03 0.  0.
         25    1    4    4    0    0 -0.28749084556E+02  0.72702511912E+02  0.85154041942E+02  0.17032581736E+03  0.12509000000E+03 0.  0.
<mgrwt>
<rscale>  2 0.45278691E+03</rscale>
<asrwt>0</asrwt>
<pdfrwt beam="1">  1       21 0.78491801E-01 0.45278691E+03</pdfrwt>
<pdfrwt beam="2">  1       21 0.14121656E-01 0.45278691E+03</pdfrwt>
<totfact> 0.57886853E+04</totfact>
</mgrwt>
</event>
<event>
 7    0  0.4831799E-002  0.4375318E+03  0.7546771E-02  0.1031507E+00
         21   -1    0    0  502  501  0.00000000000E+00  0.00000000000E+00  0.45510795851E+03  0.45510795851E+03  0.00000000000E+00 0.  1.
         21   -1    0    0  501  502 -0.00000000000E+00 -0.00000000000E+00 -0.10515861950E+03  0.10515861950E+03  0.00000000000E+00 0.  1.
      99926    2    1    2    0    0  0.88817841970E-15  0.00000000000E+00  0.34994933901E+03  0.56026657801E+03  0.43753182577E+03 0.  0.
      99925    2    3    3    0    0  0.21767727559E+01 -0.39819123331E+02  0.11222691531E+03  0.28869750806E+03  0.26298492299E+03 0.  0.
         25    1    4    4    0    0  0.40123227827E+02 -0.26228444257E+02  0.46896365321E+02  0.14193160987E+03  0.12509000000E+03 0.  0.
         25    1    4    4    0    0 -0.37946455071E+02 -0.13590679074E+02  0.65330549989E+02  0.14676589819E+03  0.12509000000E+03 0.  0.
         25    1    3    3    0    0 -0.21767727559E+01  0.39819123331E+02  0.23772242370E+03  0.27156906995E+03  0.12509000000E+03 0.  0.
<mgrwt>
<rscale>  2 0.43753183E+03</rscale>
<asrwt>0</asrwt>
<pdfrwt beam="1">  1       21 0.66927640E-01 0.43753183E+03</pdfrwt>
<pdfrwt beam="2">  1       21 0.15464503E-01 0.43753183E+03</pdfrwt>
<totfact> 0.70431555E+04</totfact>
</mgrwt>
</event>
<event>
 7    0  0.4831799E-002  0.4562686E+03  0.7546771E-02  0.1025869E+00
         21   -1    0    0  502  501  0.00000000000E+00  0.00000000000E+00  0.18917977620E+03  0.18917977620E+03  0.00000000000E+00 0.  1.
         21   -1    0    0  501  502 -0.00000000000E+00 -0.00000000000E+00 -0.27511009817E+03  0.27511009817E+03  0.00000000000E+00 0.  1.
      99926    2    1    2    0    0  0.00000000000E+00  0.14210854715E-13 -0.85930321965E+02  0.46428987437E+03  0.45626863492E+03 0.  0.
      99925    2    3    3    0    0 -0.17939438924E+02 -0.11150558164E+03 -0.35667445178E+02  0.28842292726E+03  0.26298345978E+03 0.  0.
         25    1    3    3    0    0  0.17939438924E+02  0.11150558164E+03 -0.50262876787E+02  0.17586694712E+03  0.12509000000E+03 0.  0.
         25    1    4    4    0    0  0.10624814081E+02 -0.82751150716E+02 -0.44003179724E+02  0.15666661273E+03  0.12509000000E+03 0.  0.
         25    1    4    4    0    0 -0.28564253005E+02 -0.28754430920E+02  0.83357345460E+01  0.13175631453E+03  0.12509000000E+03 0.  0.
<mgrwt>
<rscale>  2 0.45626863E+03</rscale>
<asrwt>0</asrwt>
<pdfrwt beam="1">  1       21 0.27820556E-01 0.45626863E+03</pdfrwt>
<pdfrwt beam="2">  1       21 0.40457367E-01 0.45626863E+03</pdfrwt>
<totfact> 0.67182829E+04</totfact>
</mgrwt>
</event>
<event>
 7    0  0.4831799E-002  0.4578223E+03  0.7546771E-02  0.1025415E+00
         21   -1    0    0  502  501  0.00000000000E+00  0.00000000000E+00  0.33539745662E+03  0.33539745662E+03  0.00000000000E+00 0. -1.
         21   -1    0    0  501  502 -0.00000000000E+00 -0.00000000000E+00 -0.15623347047E+03  0.15623347047E+03  0.00000000000E+00 0. -1.
      99926    2    1    2    0    0  0.00000000000E+00  0.00000000000E+00  0.17916398615E+03  0.49163092709E+03  0.45782227397E+03 0.  0.
      99925    2    3    3    0    0  0.79419596897E+02  0.28152204083E+02  0.27295337468E+02  0.27759445002E+03  0.26308482333E+03 0.  0.
         25    1    3    3    0    0 -0.79419596897E+02 -0.28152204083E+02  0.15186864868E+03  0.21403647708E+03  0.12509000000E+03 0.  0.
         25    1    4    4    0    0  0.30821201986E+02 -0.60444854497E+00 -0.24051946202E+02  0.13105844523E+03  0.12509000000E+03 0.  0.
         25    1    4    4    0    0  0.48598394911E+02  0.28756652628E+02  0.51347283671E+02  0.14653600479E+03  0.12509000000E+03 0.  0.
<mgrwt>
<rscale>  2 0.45782227E+03</rscale>
<asrwt>0</asrwt>
<pdfrwt beam="1">  1       21 0.49323155E-01 0.45782227E+03</pdfrwt>
<pdfrwt beam="2">  1       21 0.22975510E-01 0.45782227E+03</pdfrwt>
<totfact> 0.64407505E+04</totfact>
</mgrwt>
</event>
<event>
 7    0  0.4831799E-002  0.4551112E+03  0.7546771E-02  0.1026209E+00
         21   -1    0    0  502  501  0.00000000000E+00  0.00000000000E+00  0.13685875727E+03  0.13685875727E+03  0.00000000000E+00 0. -1.
         21   -1    0    0  501  502 -0.00000000000E+00 -0.00000000000E+00 -0.37835760908E+03  0.37835760908E+03  0.00000000000E+00 0. -1.
      99926    2    1    2    0    0  0.00000000000E+00 -0.71054273576E-14 -0.24149885181E+03  0.51521636636E+03  0.45511120480E+03 0.  0.
      99925    2    3    3    0    0  0.86905161138E+02  0.62894430123E+02 -0.11273597421E+03  0.30608577768E+03  0.26357330488E+03 0.  0.
         25    1    3    3    0    0 -0.86905161138E+02 -0.62894430123E+02 -0.12876287760E+03  0.20913058868E+03  0.12509000000E+03 0.  0.
         25    1    4    4    0    0  0.60856427975E+02 -0.61660428777E+01 -0.58835971490E+02  0.15116449501E+03  0.12509000000E+03 0.  0.
         25    1    4    4    0    0  0.26048733163E+02  0.69060473001E+02 -0.53900002721E+02  0.15492128267E+03  0.12509000000E+03 0.  0.
<mgrwt>
<rscale>  2 0.45511120E+03</rscale>
<asrwt>0</asrwt>
<pdfrwt beam="1">  1       21 0.20126288E-01 0.45511120E+03</pdfrwt>
<pdfrwt beam="2">  1       21 0.55640825E-01 0.45511120E+03</pdfrwt>
<totfact> 0.64157721E+04</totfact>
</mgrwt>
</event>
<event>
 7    0  0.4831799E-002  0.4548574E+03  0.7546771E-02  0.1026283E+00
         21   -1    0    0  502  501  0.00000000000E+00  0.00000000000E+00  0.24088237301E+03  0.24088237301E+03  0.00000000000E+00 0.  1.
         21   -1    0    0  501  502 -0.00000000000E+00 -0.00000000000E+00 -0.21472647589E+03  0.21472647589E+03  0.00000000000E+00 0.  1.
      99926    2    1    2    0    0  0.00000000000E+00  0.00000000000E+00  0.26155897120E+02  0.45560884890E+03  0.45485744167E+03 0.  0.
      99925    2    3    3    0    0  0.59118466139E+02  0.39155873048E+02 -0.71927559328E+02  0.28155124935E+03  0.26281049596E+03 0.  0.
         25    1    4    4    0    0  0.99261883077E+01  0.29015754038E+02 -0.70328497223E+02  0.14674484256E+03  0.12509000000E+03 0.  0.
         25    1    3    3    0    0 -0.59118466139E+02 -0.39155873048E+02  0.98083456448E+02  0.17405759955E+03  0.12509000000E+03 0.  0.
         25    1    4    4    0    0  0.49192277832E+02  0.10140119009E+02 -0.15990621054E+01  0.13480640679E+03  0.12509000000E+03 0.  0.
<mgrwt>
<rscale>  2 0.45485744E+03</rscale>
<asrwt>0</asrwt>
<pdfrwt beam="1">  1       21 0.35423879E-01 0.45485744E+03</pdfrwt>
<pdfrwt beam="2">  1       21 0.31577423E-01 0.45485744E+03</pdfrwt>
<totfact> 0.68579216E+04</totfact>
</mgrwt>
</event>
<event>
 7    0  0.4831799E-002  0.4820893E+03  0.7546771E-02  0.1018563E+00
         21   -1    0    0  502  501  0.00000000000E+00  0.00000000000E+00  0.66631623911E+03  0.66631623911E+03  0.00000000000E+00 0.  1.
         21   -1    0    0  501  502 -0.00000000000E+00 -0.00000000000E+00 -0.87199631042E+02  0.87199631042E+02  0.00000000000E+00 0.  1.
      99926    2    1    2    0    0  0.00000000000E+00  0.14210854715E-13  0.57911660807E+03  0.75351587016E+03  0.48208932868E+03 0.  0.
      99925    2    3    3    0    0  0.11440703577E+03 -0.67469409113E+02  0.40681575056E+03  0.50256530810E+03  0.26349903794E+03 0.  0.
         25    1    3    3    0    0 -0.11440703577E+03  0.67469409113E+02  0.17230085751E+03  0.25095056206E+03  0.12509000000E+03 0.  0.
         25    1    4    4    0    0  0.60143614260E+02  0.64298036875E+01  0.17123152092E+03  0.22051380584E+03  0.12509000000E+03 0.  0.
         25    1    4    4    0    0  0.54263421509E+02 -0.73899212800E+02  0.23558422964E+03  0.28205150225E+03  0.12509000000E+03 0.  0.
<mgrwt>
<rscale>  2 0.48208933E+03</rscale>
<asrwt>0</asrwt>
<pdfrwt beam="1">  1       21 0.97987680E-01 0.48208933E+03</pdfrwt>
<pdfrwt beam="2">  1       21 0.12823475E-01 0.48208933E+03</pdfrwt>
<totfact> 0.40707553E+04</totfact>
</mgrwt>
</event>
<event>
 7    0  0.4831799E-002  0.4510693E+03  0.7546771E-02  0.1027404E+00
         21   -1    0    0  502  501  0.00000000000E+00  0.00000000000E+00  0.34039896953E+03  0.34039896953E+03  0.00000000000E+00 0. -1.
         21   -1    0    0  501  502 -0.00000000000E+00 -0.00000000000E+00 -0.14943017819E+03  0.14943017819E+03  0.00000000000E+00 0. -1.
      99926    2    1    2    0    0  0.00000000000E+00  0.35527136788E-14  0.19096879134E+03  0.48982914772E+03  0.45106930143E+03 0.  0.
      99925    2    3    3    0    0  0.59266271841E+02  0.21390400923E+02  0.22804498082E+02  0.27097582273E+03  0.26256010958E+03 0.  0.
         25    1    4    4    0    0  0.45568237699E+02 -0.50841005458E+01  0.44710815329E+02  0.14053069940E+03  0.12509000000E+03 0.  0.
         25    1    4    4    0    0  0.13698034142E+02  0.26474501469E+02 -0.21906317248E+02  0.13044512334E+03  0.12509000000E+03 0.  0.
         25    1    3    3    0    0 -0.59266271841E+02 -0.21390400923E+02  0.16816429326E+03  0.21885332499E+03  0.12509000000E+03 0.  0.
<mgrwt>
<rscale>  2 0.45106930E+03</rscale>
<asrwt>0</asrwt>
<pdfrwt beam="1">  1       21 0.50058672E-01 0.45106930E+03</pdfrwt>
<pdfrwt beam="2">  1       21 0.21975026E-01 0.45106930E+03</pdfrwt>
<totfact> 0.68091349E+04</totfact>
</mgrwt>
</event>
<event>
 7    0  0.4831799E-002  0.4300591E+03  0.7546771E-02  0.1033841E+00
         21   -1    0    0  502  501  0.00000000000E+00  0.00000000000E+00  0.16555769109E+03  0.16555769109E+03  0.00000000000E+00 0.  1.
         21   -1    0    0  501  502 -0.00000000000E+00 -0.00000000000E+00 -0.27928454509E+03  0.27928454509E+03  0.00000000000E+00 0.  1.
      99926    2    1    2    0    0  0.00000000000E+00  0.00000000000E+00 -0.11372685400E+03  0.44484223618E+03  0.43005908637E+03 0.  0.
      99925    2    3    3    0    0 -0.60708356306E+02 -0.53069412420E+02 -0.39435272057E+02  0.27850338230E+03  0.26364204182E+03 0.  0.
         25    1    4    4    0    0 -0.78974132327E+00 -0.43924719047E+02  0.46997640965E+01  0.13266348600E+03  0.12509000000E+03 0.  0.
         25    1    4    4    0    0 -0.59918614982E+02 -0.91446933722E+01 -0.44135036153E+02  0.14583989631E+03  0.12509000000E+03 0.  0.
         25    1    3    3    0    0  0.60708356306E+02  0.53069412420E+02 -0.74291581943E+02  0.16633885387E+03  0.12509000000E+03 0.  0.
<mgrwt>
<rscale>  2 0.43005909E+03</rscale>
<asrwt>0</asrwt>
<pdfrwt beam="1">  1       21 0.24346720E-01 0.43005909E+03</pdfrwt>
<pdfrwt beam="2">  1       21 0.41071256E-01 0.43005909E+03</pdfrwt>
<totfact> 0.84957087E+04</totfact>
</mgrwt>
</event>
<event>
 7    0  0.4831799E-002  0.4530481E+03  0.7546771E-02  0.1026817E+00
         21   -1    0    0  502  501  0.00000000000E+00  0.00000000000E+00  0.16856717343E+03  0.16856717343E+03  0.00000000000E+00 0. -1.
         21   -1    0    0  501  502 -0.00000000000E+00 -0.00000000000E+00 -0.30440770902E+03  0.30440770902E+03  0.00000000000E+00 0. -1.
      99926    2    1    2    0    0  0.71054273576E-14  0.00000000000E+00 -0.13584053559E+03  0.47297488245E+03  0.45304810818E+03 0.  0.
      99925    2    3    3    0    0 -0.51767717256E+02 -0.67799974354E+02 -0.10840509836E+02  0.27663525932E+03  0.26293120198E+03 0.  0.
         25    1    3    3    0    0  0.51767717256E+02  0.67799974354E+02 -0.12500002576E+03  0.19633962313E+03  0.12509000000E+03 0.  0.
         25    1    4    4    0    0 -0.57883081327E+02 -0.61755773107E+02 -0.64566733574E+01  0.15117348758E+03  0.12509000000E+03 0.  0.
         25    1    4    4    0    0  0.61153640712E+01 -0.60442012469E+01 -0.43838364789E+01  0.12546177174E+03  0.12509000000E+03 0.  0.
<mgrwt>
<rscale>  2 0.45304811E+03</rscale>
<asrwt>0</asrwt>
<pdfrwt beam="1">  1       21 0.24789291E-01 0.45304811E+03</pdfrwt>
<pdfrwt beam="2">  1       21 0.44765839E-01 0.45304811E+03</pdfrwt>
<totfact> 0.68266437E+04</totfact>
</mgrwt>
</event>
<event>
 7    0  0.4831799E-002  0.4652654E+03  0.7546771E-02  0.1023265E+00
         21   -1    0    0  502  501  0.00000000000E+00  0.00000000000E+00  0.22039687570E+03  0.22039687570E+03  0.00000000000E+00 0. -1.
         21   -1    0    0  501  502 -0.00000000000E+00 -0.00000000000E+00 -0.24554777213E+03  0.24554777213E+03  0.00000000000E+00 0. -1.
      99926    2    1    2    0    0  0.00000000000E+00  0.00000000000E+00 -0.25150896426E+02  0.46594464783E+03  0.46526535144E+03 0.  0.
      99925    2    3    3    0    0 -0.43050074259E+02  0.35990910152E+02 -0.12462716862E+03  0.29655842839E+03  0.26318494597E+03 0.  0.
         25    1    4    4    0    0 -0.24324386656E+02 -0.20160115791E+02 -0.43551594415E+02  0.13617031810E+03  0.12509000000E+03 0.  0.
         25    1    3    3    0    0  0.43050074259E+02 -0.35990910152E+02  0.99476272194E+02  0.16938621944E+03  0.12509000000E+03 0.  0.
         25    1    4    4    0    0 -0.18725687603E+02  0.56151025943E+02 -0.81075574205E+02  0.16038811029E+03  0.12509000000E+03 0.  0.
<mgrwt>
<rscale>  2 0.46526535E+03</rscale>
<asrwt>0</asrwt>
<pdfrwt beam="1">  1       21 0.32411305E-01 0.46526535E+03</pdfrwt>
<pdfrwt beam="2">  1       21 0.36109966E-01 0.46526535E+03</pdfrwt>
<totfact> 0.62475311E+04</totfact>
</mgrwt>
</event>
<event>
 7    0  0.4831799E-002  0.4558381E+03  0.7546771E-02  0.1025995E+00
         21   -1    0    0  502  501  0.00000000000E+00  0.00000000000E+00  0.72863233479E+03  0.72863233479E+03  0.00000000000E+00 0.  1.
         21   -1    0    0  501  502 -0.00000000000E+00 -0.00000000000E+00 -0.71293958929E+02  0.71293958929E+02  0.00000000000E+00 0.  1.
      99926    2    1    2    0    0 -0.14210854715E-13  0.00000000000E+00  0.65733837586E+03  0.79992629372E+03  0.45583805787E+03 0.  0.
      99925    2    3    3    0    0  0.10563983948E+03 -0.42378176375E+02  0.41132135198E+03  0.50138388524E+03  0.26314418152E+03 0.  0.
         25    1    4    4    0    0  0.72921082407E+02 -0.44315749976E+02  0.27193450511E+03  0.31125110944E+03  0.12509000000E+03 0.  0.
         25    1    4    4    0    0  0.32718757076E+02  0.19375736006E+01  0.13938684686E+03  0.19013277580E+03  0.12509000000E+03 0.  0.
         25    1    3    3    0    0 -0.10563983948E+03  0.42378176375E+02  0.24601702389E+03  0.29854240848E+03  0.12509000000E+03 0.  0.
<mgrwt>
<rscale>  2 0.45583806E+03</rscale>
<asrwt>0</asrwt>
<pdfrwt beam="1">  1       21 0.10715181E+00 0.45583806E+03</pdfrwt>
<pdfrwt beam="2">  1       21 0.10484406E-01 0.45583806E+03</pdfrwt>
<totfact> 0.47455493E+04</totfact>
</mgrwt>
</event>
<event>
 7    0  0.4831799E-002  0.4512216E+03  0.7546771E-02  0.1027358E+00
         21   -1    0    0  502  501  0.00000000000E+00  0.00000000000E+00  0.46854890967E+03  0.46854890967E+03  0.00000000000E+00 0.  1.
         21   -1    0    0  501  502 -0.00000000000E+00 -0.00000000000E+00 -0.10863379058E+03  0.10863379058E+03  0.00000000000E+00 0.  1.
      99926    2    1    2    0    0 -0.17763568394E-14  0.00000000000E+00  0.35991511909E+03  0.57718270025E+03  0.45122164900E+03 0.  0.
      99925    2    3    3    0    0 -0.14087569776E+02  0.83303613967E+02  0.31652926152E+03  0.42012286306E+03  0.26301044646E+03 0.  0.
         25    1    4    4    0    0 -0.31607856648E+01  0.41318778170E+01  0.17376141870E+03  0.21416722837E+03  0.12509000000E+03 0.  0.
         25    1    3    3    0    0  0.14087569776E+02 -0.83303613967E+02  0.43385857566E+02  0.15705983719E+03  0.12509000000E+03 0.  0.
         25    1    4    4    0    0 -0.10926784111E+02  0.79171736150E+02  0.14276784282E+03  0.20595563469E+03  0.12509000000E+03 0.  0.
<mgrwt>
<rscale>  2 0.45122165E+03</rscale>
<asrwt>0</asrwt>
<pdfrwt beam="1">  1       21 0.68904250E-01 0.45122165E+03</pdfrwt>
<pdfrwt beam="2">  1       21 0.15975558E-01 0.45122165E+03</pdfrwt>
<totfact> 0.61934692E+04</totfact>
</mgrwt>
</event>
<event>
 7    0  0.4831799E-002  0.4309015E+03  0.7546771E-02  0.1033576E+00
         21   -1    0    0  502  501  0.00000000000E+00  0.00000000000E+00  0.38308491874E+02  0.38308491874E+02  0.00000000000E+00 0.  1.
         21   -1    0    0  501  502 -0.00000000000E+00 -0.00000000000E+00 -0.12117165882E+04  0.12117165882E+04  0.00000000000E+00 0.  1.
      99926    2    1    2    0    0  0.00000000000E+00  0.00000000000E+00 -0.11734080963E+04  0.12500250801E+04  0.43090154361E+03 0.  0.
      99925    2    3    3    0    0  0.51040356281E+02 -0.41583217841E+02 -0.92803548800E+03  0.96684756155E+03  0.26307804608E+03 0.  0.
         25    1    4    4    0    0  0.15065909827E+02 -0.28109076105E+02 -0.32337265776E+03  0.34818742896E+03  0.12509000000E+03 0.  0.
         25    1    4    4    0    0  0.35974446454E+02 -0.13474141736E+02 -0.60466283024E+03  0.61866013260E+03  0.12509000000E+03 0.  0.
         25    1    3    3    0    0 -0.51040356281E+02  0.41583217841E+02 -0.24537260832E+03  0.28317751850E+03  0.12509000000E+03 0.  0.
<mgrwt>
<rscale>  2 0.43090154E+03</rscale>
<asrwt>0</asrwt>
<pdfrwt beam="1">  1       21 0.56336020E-02 0.43090154E+03</pdfrwt>
<pdfrwt beam="2">  1       21 0.17819361E+00 0.43090154E+03</pdfrwt>
<totfact> 0.37082205E+04</totfact>
</mgrwt>
</event>
<event>
 7    0  0.4831799E-002  0.4207486E+03  0.7546771E-02  0.1036823E+00
         21   -1    0    0  502  501  0.00000000000E+00  0.00000000000E+00  0.78315756808E+03  0.78315756808E+03  0.00000000000E+00 0.  1.
         21   -1    0    0  501  502 -0.00000000000E+00 -0.00000000000E+00 -0.56511419671E+02  0.56511419671E+02  0.00000000000E+00 0.  1.
      99926    2    1    2    0    0  0.71054273576E-14 -0.44408920985E-15  0.72664614841E+03  0.83966898775E+03  0.42074859952E+03 0.  0.
      99925    2    3    3    0    0 -0.36113909100E+02  0.35111025114E+01  0.60813568063E+03  0.66357588356E+03  0.26303498800E+03 0.  0.
         25    1    4    4    0    0 -0.31247318399E+01  0.26427194988E+02  0.22857458405E+03  0.26191985254E+03  0.12509000000E+03 0.  0.
         25    1    3    3    0    0  0.36113909100E+02 -0.35111025114E+01  0.11851046778E+03  0.17609310419E+03  0.12509000000E+03 0.  0.
         25    1    4    4    0    0 -0.32989177260E+02 -0.22916092476E+02  0.37956109659E+03  0.40165603102E+03  0.12509000000E+03 0.  0.
<mgrwt>
<rscale>  2 0.42074860E+03</rscale>
<asrwt>0</asrwt>
<pdfrwt beam="1">  1       21 0.11517022E+00 0.42074860E+03</pdfrwt>
<pdfrwt beam="2">  1       21 0.83105034E-02 0.42074860E+03</pdfrwt>
<totfact> 0.60622618E+04</totfact>
</mgrwt>
</event>
<event>
 7    0  0.4831799E-002  0.4531979E+03  0.7546771E-02  0.1026773E+00
         21   -1    0    0  502  501  0.00000000000E+00  0.00000000000E+00  0.24604210928E+03  0.24604210928E+03  0.00000000000E+00 0. -1.
         21   -1    0    0  501  502 -0.00000000000E+00 -0.00000000000E+00 -0.20869222227E+03  0.20869222227E+03  0.00000000000E+00 0. -1.
      99926    2    1    2    0    0 -0.35527136788E-14  0.00000000000E+00  0.37349887014E+02  0.45473433155E+03  0.45319785770E+03 0.  0.
      99925    2    3    3    0    0  0.30350056948E+02 -0.97120028147E+02  0.68965732832E+02  0.29041605615E+03  0.26311934087E+03 0.  0.
         25    1    3    3    0    0 -0.30350056948E+02  0.97120028147E+02 -0.31615845818E+02  0.16431827540E+03  0.12509000000E+03 0.  0.
         25    1    4    4    0    0  0.27595430975E+02 -0.60302020612E+02 -0.26825071952E+01  0.14160701058E+03  0.12509000000E+03 0.  0.
         25    1    4    4    0    0  0.27546259734E+01 -0.36818007535E+02  0.71648240027E+02  0.14880904557E+03  0.12509000000E+03 0.  0.
<mgrwt>
<rscale>  2 0.45319786E+03</rscale>
<asrwt>0</asrwt>
<pdfrwt beam="1">  1       21 0.36182663E-01 0.45319786E+03</pdfrwt>
<pdfrwt beam="2">  1       21 0.30690033E-01 0.45319786E+03</pdfrwt>
<totfact> 0.69560107E+04</totfact>
</mgrwt>
</event>
<event>
 7    0  0.4831799E-002  0.4611217E+03  0.7546771E-02  0.1024456E+00
         21   -1    0    0  502  501  0.00000000000E+00  0.00000000000E+00  0.85917254422E+02  0.85917254422E+02  0.00000000000E+00 0.  1.
         21   -1    0    0  501  502 -0.00000000000E+00 -0.00000000000E+00 -0.61871512534E+03  0.61871512534E+03  0.00000000000E+00 0.  1.
      99926    2    1    2    0    0  0.17763568394E-14  0.00000000000E+00 -0.53279787092E+03  0.70463237976E+03  0.46112169690E+03 0.  0.
      99925    2    3    3    0    0  0.13584551639E+02 -0.11028717707E+03 -0.26819033760E+03  0.39156296851E+03  0.26276928980E+03 0.  0.
         25    1    4    4    0    0 -0.25309480556E+02 -0.75056108638E+02 -0.11928702827E+03  0.19013388037E+03  0.12509000000E+03 0.  0.
         25    1    4    4    0    0  0.38894032195E+02 -0.35231068433E+02 -0.14890330932E+03  0.20142908814E+03  0.12509000000E+03 0.  0.
         25    1    3    3    0    0 -0.13584551639E+02  0.11028717707E+03 -0.26460753332E+03  0.31306941125E+03  0.12509000000E+03 0.  0.
<mgrwt>
<rscale>  2 0.46112170E+03</rscale>
<asrwt>0</asrwt>
<pdfrwt beam="1">  1       21 0.12634890E-01 0.46112170E+03</pdfrwt>
<pdfrwt beam="2">  1       21 0.90987518E-01 0.46112170E+03</pdfrwt>
<totfact> 0.50190376E+04</totfact>
</mgrwt>
</event>
<event>
 7    0  0.4831799E-002  0.4563476E+03  0.7546771E-02  0.1025846E+00
         21   -1    0    0  502  501  0.00000000000E+00  0.00000000000E+00  0.26944592756E+02  0.26944592756E+02  0.00000000000E+00 0. -1.
         21   -1    0    0  501  502 -0.00000000000E+00 -0.00000000000E+00 -0.19322349180E+04  0.19322349180E+04  0.00000000000E+00 0. -1.
      99926    2    1    2    0    0  0.00000000000E+00  0.17763568394E-14 -0.19052903252E+04  0.19591795108E+04  0.45634759986E+03 0.  0.
      99925    2    3    3    0    0  0.22681787960E+02 -0.10641892319E+02 -0.16767796852E+04  0.16974691095E+04  0.26302766369E+03 0.  0.
         25    1    4    4    0    0  0.44310743079E+02  0.17697638475E+02 -0.81238628778E+03  0.82334417896E+03  0.12509000000E+03 0.  0.
         25    1    4    4    0    0 -0.21628955119E+02 -0.28339530794E+02 -0.86439339740E+03  0.87412493059E+03  0.12509000000E+03 0.  0.
         25    1    3    3    0    0 -0.22681787960E+02  0.10641892319E+02 -0.22851064007E+03  0.26171040121E+03  0.12509000000E+03 0.  0.
<mgrwt>
<rscale>  2 0.45634760E+03</rscale>
<asrwt>0</asrwt>
<pdfrwt beam="1">  1       21 0.39624415E-02 0.45634760E+03</pdfrwt>
<pdfrwt beam="2">  1       21 0.28415209E+00 0.45634760E+03</pdfrwt>
<totfact> 0.14238492E+04</totfact>
</mgrwt>
</event>
<event>
 7    0  0.4831799E-002  0.4539161E+03  0.7546771E-02  0.1026561E+00
         21   -1    0    0  502  501  0.00000000000E+00  0.00000000000E+00  0.51167218297E+03  0.51167218297E+03  0.00000000000E+00 0.  1.
         21   -1    0    0  501  502 -0.00000000000E+00 -0.00000000000E+00 -0.10066981980E+03  0.10066981980E+03  0.00000000000E+00 0.  1.
      99926    2    1    2    0    0  0.00000000000E+00 -0.14210854715E-13  0.41100236317E+03  0.61234200276E+03  0.45391605592E+03 0.  0.
      99925    2    3    3    0    0  0.71707028436E+02  0.81207591846E+02  0.22005617820E+03  0.35966726213E+03  0.26305749749E+03 0.  0.
         25    1    3    3    0    0 -0.71707028436E+02 -0.81207591846E+02  0.19094618497E+03  0.25267474064E+03  0.12509000000E+03 0.  0.
         25    1    4    4    0    0  0.13225271288E+02  0.54810801313E+01  0.11355382152E+03  0.16954919204E+03  0.12509000000E+03 0.  0.
         25    1    4    4    0    0  0.58481757148E+02  0.75726511714E+02  0.10650235667E+03  0.19011807008E+03  0.12509000000E+03 0.  0.
<mgrwt>
<rscale>  2 0.45391606E+03</rscale>
<asrwt>0</asrwt>
<pdfrwt beam="1">  1       21 0.75245908E-01 0.45391606E+03</pdfrwt>
<pdfrwt beam="2">  1       21 0.14804385E-01 0.45391606E+03</pdfrwt>
<totfact> 0.58423526E+04</totfact>
</mgrwt>
</event>
<event>
 7    0  0.4831799E-002  0.4550576E+03  0.7546771E-02  0.1026224E+00
         21   -1    0    0  502  501  0.00000000000E+00  0.00000000000E+00  0.30278888715E+03  0.30278888715E+03  0.00000000000E+00 0.  1.
         21   -1    0    0  501  502 -0.00000000000E+00 -0.00000000000E+00 -0.17097509605E+03  0.17097509605E+03  0.00000000000E+00 0.  1.
      99926    2    1    2    0    0  0.13322676296E-14  0.00000000000E+00  0.13181379109E+03  0.47376398320E+03  0.45505761861E+03 0.  0.
      99925    2    3    3    0    0 -0.31527278340E+01  0.24472420517E+02  0.19772559478E+03  0.33023449834E+03  0.26334497147E+03 0.  0.
         25    1    3    3    0    0  0.31527278340E+01 -0.24472420517E+02 -0.65911803693E+02  0.14352948486E+03  0.12509000000E+03 0.  0.
         25    1    4    4    0    0 -0.13228210911E+02 -0.19462491714E+02  0.67298004024E+02  0.14398021945E+03  0.12509000000E+03 0.  0.
         25    1    4    4    0    0  0.10075483077E+02  0.43934912231E+02  0.13042759076E+03  0.18625427889E+03  0.12509000000E+03 0.  0.
<mgrwt>
<rscale>  2 0.45505762E+03</rscale>
<asrwt>0</asrwt>
<pdfrwt beam="1">  1       21 0.44527778E-01 0.45505762E+03</pdfrwt>
<pdfrwt beam="2">  1       21 0.25143396E-01 0.45505762E+03</pdfrwt>
<totfact> 0.67126241E+04</totfact>
</mgrwt>
</event>
<event>
 7    0  0.4831799E-002  0.4517482E+03  0.7546771E-02  0.1027202E+00
         21   -1    0    0  502  501  0.00000000000E+00  0.00000000000E+00  0.19636328882E+03  0.19636328882E+03  0.00000000000E+00 0. -1.
         21   -1    0    0  501  502 -0.00000000000E+00 -0.00000000000E+00 -0.25981994494E+03  0.25981994494E+03  0.00000000000E+00 0. -1.
      99926    2    1    2    0    0  0.00000000000E+00 -0.35527136788E-14 -0.63456656115E+02  0.45618323376E+03  0.45174815502E+03 0.  0.
      99925    2    3    3    0    0  0.10933974342E+03  0.93257666808E+01 -0.49062390850E+02  0.28915972527E+03  0.26299064453E+03 0.  0.
         25    1    4    4    0    0  0.29826306203E+02 -0.18434226093E+02  0.20680070820E+01  0.12992772601E+03  0.12509000000E+03 0.  0.
         25    1    3    3    0    0 -0.10933974342E+03 -0.93257666808E+01 -0.14394265265E+02  0.16702350849E+03  0.12509000000E+03 0.  0.
         25    1    4    4    0    0  0.79513437215E+02  0.27759992773E+02 -0.51130397932E+02  0.15923199926E+03  0.12509000000E+03 0.  0.
<mgrwt>
<rscale>  2 0.45174816E+03</rscale>
<asrwt>0</asrwt>
<pdfrwt beam="1">  1       21 0.28876954E-01 0.45174816E+03</pdfrwt>
<pdfrwt beam="2">  1       21 0.38208815E-01 0.45174816E+03</pdfrwt>
<totfact> 0.70264160E+04</totfact>
</mgrwt>
</event>
<event>
 7    0  0.4831799E-002  0.4541031E+03  0.7546771E-02  0.1026505E+00
         21   -1    0    0  502  501  0.00000000000E+00  0.00000000000E+00  0.23196146357E+04  0.23196146357E+04  0.00000000000E+00 0. -1.
         21   -1    0    0  501  502 -0.00000000000E+00 -0.00000000000E+00 -0.22224555112E+02  0.22224555112E+02  0.00000000000E+00 0. -1.
      99926    2    1    2    0    0  0.00000000000E+00  0.00000000000E+00  0.22973900805E+04  0.23418391908E+04  0.45410308657E+03 0.  0.
      99925    2    3    3    0    0 -0.10038678568E+03  0.23531761111E+02  0.16763361710E+04  0.16999772764E+04  0.26303712927E+03 0.  0.
         25    1    3    3    0    0  0.10038678568E+03 -0.23531761111E+02  0.62105390951E+03  0.64186191439E+03  0.12509000000E+03 0.  0.
         25    1    4    4    0    0 -0.21230334500E+02 -0.51580287430E+01  0.61401282114E+03  0.62700604860E+03  0.12509000000E+03 0.  0.
         25    1    4    4    0    0 -0.79156451184E+02  0.28689789853E+02  0.10623233499E+04  0.10729712278E+04  0.12509000000E+03 0.  0.
<mgrwt>
<rscale>  2 0.45410309E+03</rscale>
<asrwt>0</asrwt>
<pdfrwt beam="1">  1       21 0.34111963E+00 0.45410309E+03</pdfrwt>
<pdfrwt beam="2">  1       21 0.32683185E-02 0.45410309E+03</pdfrwt>
<totfact> 0.89508015E+03</totfact>
</mgrwt>
</event>
<event>
 7    0  0.4831799E-002  0.4544858E+03  0.7546771E-02  0.1026393E+00
         21   -1    0    0  502  501  0.00000000000E+00  0.00000000000E+00  0.14612975284E+03  0.14612975284E+03  0.00000000000E+00 0. -1.
         21   -1    0    0  501  502 -0.00000000000E+00 -0.00000000000E+00 -0.35338000352E+03  0.35338000352E+03  0.00000000000E+00 0. -1.
      99926    2    1    2    0    0  0.35527136788E-14  0.00000000000E+00 -0.20725025068E+03  0.49950975636E+03  0.45448578668E+03 0.  0.
      99925    2    3    3    0    0 -0.30587069170E+02 -0.34169925684E+02 -0.17415905594E+02  0.26758791760E+03  0.26305289821E+03 0.  0.
         25    1    3    3    0    0  0.30587069170E+02  0.34169925684E+02 -0.18983434508E+03  0.23192183876E+03  0.12509000000E+03 0.  0.
         25    1    4    4    0    0 -0.31406564082E+02 -0.13161593057E+02 -0.46002388721E+02  0.13756208659E+03  0.12509000000E+03 0.  0.
         25    1    4    4    0    0  0.81949491170E+00 -0.21008332627E+02  0.28586483127E+02  0.13002583101E+03  0.12509000000E+03 0.  0.
<mgrwt>
<rscale>  2 0.45448579E+03</rscale>
<asrwt>0</asrwt>
<pdfrwt beam="1">  1       21 0.21489670E-01 0.45448579E+03</pdfrwt>
<pdfrwt beam="2">  1       21 0.51967647E-01 0.45448579E+03</pdfrwt>
<totfact> 0.65572365E+04</totfact>
</mgrwt>
</event>
<event>
 7    0  0.4831799E-002  0.4585392E+03  0.7546771E-02  0.1025206E+00
         21   -1    0    0  502  501  0.00000000000E+00  0.00000000000E+00  0.19324561359E+03  0.19324561359E+03  0.00000000000E+00 0.  1.
         21   -1    0    0  501  502 -0.00000000000E+00 -0.00000000000E+00 -0.27200896514E+03  0.27200896514E+03  0.00000000000E+00 0.  1.
      99926    2    1    2    0    0  0.00000000000E+00  0.00000000000E+00 -0.78763351549E+02  0.46525457874E+03  0.45853915589E+03 0.  0.
      99925    2    3    3    0    0  0.10495099521E+03  0.49335188432E+02 -0.32901873480E+02  0.28862090278E+03  0.26224191127E+03 0.  0.
         25    1    4    4    0    0  0.65735395904E+02 -0.12209735948E+02 -0.12842773032E+02  0.14241722103E+03  0.12509000000E+03 0.  0.
         25    1    3    3    0    0 -0.10495099521E+03 -0.49335188432E+02 -0.45861478070E+02  0.17663367596E+03  0.12509000000E+03 0.  0.
         25    1    4    4    0    0  0.39215599301E+02  0.61544924380E+02 -0.20059100447E+02  0.14620368175E+03  0.12509000000E+03 0.  0.
<mgrwt>
<rscale>  2 0.45853916E+03</rscale>
<asrwt>0</asrwt>
<pdfrwt beam="1">  1       21 0.28418473E-01 0.45853916E+03</pdfrwt>
<pdfrwt beam="2">  1       21 0.40001318E-01 0.45853916E+03</pdfrwt>
<totfact> 0.65917086E+04</totfact>
</mgrwt>
</event>
<event>
 7    0  0.4831799E-002  0.4530002E+03  0.7546771E-02  0.1026831E+00
         21   -1    0    0  502  501  0.00000000000E+00  0.00000000000E+00  0.33751561659E+03  0.33751561659E+03  0.00000000000E+00 0.  1.
         21   -1    0    0  501  502 -0.00000000000E+00 -0.00000000000E+00 -0.15199973722E+03  0.15199973722E+03  0.00000000000E+00 0.  1.
      99926    2    1    2    0    0  0.00000000000E+00  0.00000000000E+00  0.18551587937E+03  0.48951535381E+03  0.45300015466E+03 0.  0.
      99925    2    3    3    0    0 -0.71478309895E+02  0.83676092876E+02  0.13463442320E+03  0.31531068112E+03  0.26302767994E+03 0.  0.
         25    1    3    3    0    0  0.71478309895E+02 -0.83676092876E+02  0.50881456170E+02  0.17420467269E+03  0.12509000000E+03 0.  0.
         25    1    4    4    0    0 -0.29150339264E+02  0.52626770212E+01  0.84149160491E+02  0.15364253109E+03  0.12509000000E+03 0.  0.
         25    1    4    4    0    0 -0.42327970631E+02  0.78413415855E+02  0.50485262708E+02  0.16166815003E+03  0.12509000000E+03 0.  0.
<mgrwt>
<rscale>  2 0.45300015E+03</rscale>
<asrwt>0</asrwt>
<pdfrwt beam="1">  1       21 0.49634649E-01 0.45300015E+03</pdfrwt>
<pdfrwt beam="2">  1       21 0.22352903E-01 0.45300015E+03</pdfrwt>
<totfact> 0.67072242E+04</totfact>
</mgrwt>
</event>
<event>
 7    0  0.4831799E-002  0.4533097E+03  0.7546771E-02  0.1026740E+00
         21   -1    0    0  502  501  0.00000000000E+00  0.00000000000E+00  0.55631571279E+02  0.55631571279E+02  0.00000000000E+00 0.  1.
         21   -1    0    0  501  502 -0.00000000000E+00 -0.00000000000E+00 -0.92343992639E+03  0.92343992639E+03  0.00000000000E+00 0.  1.
      99926    2    1    2    0    0 -0.14210854715E-13  0.71054273576E-14 -0.86780835511E+03  0.97907149766E+03  0.45330966937E+03 0.  0.
      99925    2    3    3    0    0 -0.76503437032E+02  0.62914162143E+02 -0.65788512997E+03  0.71539321599E+03  0.26298981268E+03 0.  0.
         25    1    4    4    0    0 -0.12541226556E+01  0.12569579896E+02 -0.26730804994E+03  0.29539916862E+03  0.12509000000E+03 0.  0.
         25    1    4    4    0    0 -0.75249314376E+02  0.50344582247E+02 -0.39057708003E+03  0.41999404736E+03  0.12509000000E+03 0.  0.
         25    1    3    3    0    0  0.76503437032E+02 -0.62914162143E+02 -0.20992322514E+03  0.26367828168E+03  0.12509000000E+03 0.  0.
<mgrwt>
<rscale>  2 0.45330967E+03</rscale>
<asrwt>0</asrwt>
<pdfrwt beam="1">  1       21 0.81811141E-02 0.45330967E+03</pdfrwt>
<pdfrwt beam="2">  1       21 0.13579998E+00 0.45330967E+03</pdfrwt>
<totfact> 0.40518127E+04</totfact>
</mgrwt>
</event>
<event>
 7    0  0.4831799E-002  0.4505973E+03  0.7546771E-02  0.1027544E+00
         21   -1    0    0  502  501  0.00000000000E+00  0.00000000000E+00  0.55189467789E+03  0.55189467789E+03  0.00000000000E+00 0. -1.
         21   -1    0    0  501  502 -0.00000000000E+00 -0.00000000000E+00 -0.91973146684E+02  0.91973146684E+02  0.00000000000E+00 0. -1.
      99926    2    1    2    0    0  0.00000000000E+00  0.00000000000E+00  0.45992153120E+03  0.64386782457E+03  0.45059733760E+03 0.  0.
      99925    2    3    3    0    0  0.54292780805E+02  0.20921450310E+02  0.42227787007E+03  0.50086444540E+03  0.26298513264E+03 0.  0.
         25    1    4    4    0    0  0.13039026897E+02 -0.83478037395E+01  0.14247640794E+03  0.19022811824E+03  0.12509000000E+03 0.  0.
         25    1    3    3    0    0 -0.54292780805E+02 -0.20921450310E+02  0.37643661138E+02  0.14300337917E+03  0.12509000000E+03 0.  0.
         25    1    4    4    0    0  0.41253753908E+02  0.29269254050E+02  0.27980146212E+03  0.31063632716E+03  0.12509000000E+03 0.  0.
<mgrwt>
<rscale>  2 0.45059734E+03</rscale>
<asrwt>0</asrwt>
<pdfrwt beam="1">  1       21 0.81160981E-01 0.45059734E+03</pdfrwt>
<pdfrwt beam="2">  1       21 0.13525463E-01 0.45059734E+03</pdfrwt>
<totfact> 0.58046450E+04</totfact>
</mgrwt>
</event>
<event>
 7    0  0.4831799E-002  0.4565380E+03  0.7546771E-02  0.1025790E+00
         21   -1    0    0  502  501  0.00000000000E+00  0.00000000000E+00  0.14552494259E+03  0.14552494259E+03  0.00000000000E+00 0. -1.
         21   -1    0    0  501  502 -0.00000000000E+00 -0.00000000000E+00 -0.35806051455E+03  0.35806051455E+03  0.00000000000E+00 0. -1.
      99926    2    1    2    0    0  0.14210854715E-13  0.57731597281E-14 -0.21253557196E+03  0.50358545714E+03  0.45653799765E+03 0.  0.
      99925    2    3    3    0    0 -0.95806280212E+02 -0.15728303164E+01 -0.20289366344E+03  0.34571908446E+03  0.26301051228E+03 0.  0.
         25    1    4    4    0    0 -0.47545942444E+02  0.39776610779E+02 -0.10226989493E+03  0.17305905038E+03  0.12509000000E+03 0.  0.
         25    1    4    4    0    0 -0.48260337768E+02 -0.41349441095E+02 -0.10062376851E+03  0.17266003408E+03  0.12509000000E+03 0.  0.
         25    1    3    3    0    0  0.95806280212E+02  0.15728303164E+01 -0.96419085183E+01  0.15786637268E+03  0.12509000000E+03 0.  0.
<mgrwt>
<rscale>  2 0.45653800E+03</rscale>
<asrwt>0</asrwt>
<pdfrwt beam="1">  1       21 0.21400727E-01 0.45653800E+03</pdfrwt>
<pdfrwt beam="2">  1       21 0.52655958E-01 0.45653800E+03</pdfrwt>
<totfact> 0.64231763E+04</totfact>
</mgrwt>
</event>
<event>
 7    0  0.4831799E-002  0.4607644E+03  0.7546771E-02  0.1024560E+00
         21   -1    0    0  502  501  0.00000000000E+00  0.00000000000E+00  0.23139866854E+03  0.23139866854E+03  0.00000000000E+00 0. -1.
         21   -1    0    0  501  502 -0.00000000000E+00 -0.00000000000E+00 -0.22937024338E+03  0.22937024338E+03  0.00000000000E+00 0. -1.
      99926    2    1    2    0    0 -0.71054273576E-14  0.00000000000E+00  0.20284251640E+01  0.46076891191E+03  0.46076444706E+03 0.  0.
      99925    2    3    3    0    0 -0.43797707499E+02 -0.70509606086E+02 -0.83602515749E+02  0.28793948770E+03  0.26273546431E+03 0.  0.
         25    1    3    3    0    0  0.43797707499E+02  0.70509606086E+02  0.85630940913E+02  0.17282942421E+03  0.12509000000E+03 0.  0.
         25    1    4    4    0    0  0.17488765446E+02 -0.35558924031E+02 -0.50202888599E+02  0.14049246285E+03  0.12509000000E+03 0.  0.
         25    1    4    4    0    0 -0.61286472944E+02 -0.34950682055E+02 -0.33399627151E+02  0.14744702485E+03  0.12509000000E+03 0.  0.
<mgrwt>
<rscale>  2 0.46076445E+03</rscale>
<asrwt>0</asrwt>
<pdfrwt beam="1">  1       21 0.34029216E-01 0.46076445E+03</pdfrwt>
<pdfrwt beam="2">  1       21 0.33730918E-01 0.46076445E+03</pdfrwt>
<totfact> 0.65080001E+04</totfact>
</mgrwt>
</event>
<event>
 7    0  0.4831799E-002  0.4760054E+03  0.7546771E-02  0.1020239E+00
         21   -1    0    0  502  501  0.00000000000E+00  0.00000000000E+00  0.26011747654E+04  0.26011747654E+04  0.00000000000E+00 0. -1.
         21   -1    0    0  501  502 -0.00000000000E+00 -0.00000000000E+00 -0.21776804286E+02  0.21776804286E+02  0.00000000000E+00 0. -1.
      99926    2    1    2    0    0  0.00000000000E+00  0.35527136788E-14  0.25793979611E+04  0.26229515697E+04  0.47600535199E+03 0.  0.
      99925    2    3    3    0    0 -0.10172816537E+03  0.24587915442E+02  0.11517498867E+04  0.11860174315E+04  0.26297597024E+03 0.  0.
         25    1    3    3    0    0  0.10172816537E+03 -0.24587915442E+02  0.14276480744E+04  0.14369341383E+04  0.12509000000E+03 0.  0.
         25    1    4    4    0    0 -0.28749127113E+02 -0.20760963786E+02  0.47610336562E+03  0.49353769135E+03  0.12509000000E+03 0.  0.
         25    1    4    4    0    0 -0.72979038261E+02  0.45348879228E+02  0.67564652111E+03  0.69247974011E+03  0.12509000000E+03 0.  0.
<mgrwt>
<rscale>  2 0.47600535E+03</rscale>
<asrwt>0</asrwt>
<pdfrwt beam="1">  1       21 0.38252549E+00 0.47600535E+03</pdfrwt>
<pdfrwt beam="2">  1       21 0.32024730E-02 0.47600535E+03</pdfrwt>
<totfact> 0.50732098E+03</totfact>
</mgrwt>
</event>
<event>
 7    0  0.4831799E-002  0.4535700E+03  0.7546771E-02  0.1026663E+00
         21   -1    0    0  502  501  0.00000000000E+00  0.00000000000E+00  0.92062520758E+03  0.92062520758E+03  0.00000000000E+00 0.  1.
         21   -1    0    0  501  502 -0.00000000000E+00 -0.00000000000E+00 -0.55865775762E+02  0.55865775762E+02  0.00000000000E+00 0.  1.
      99926    2    1    2    0    0  0.00000000000E+00  0.00000000000E+00  0.86475943182E+03  0.97649098335E+03  0.45357002285E+03 0.  0.
      99925    2    3    3    0    0 -0.34279103147E+02 -0.39843342854E+02  0.75742863168E+03  0.80348821562E+03  0.26293084959E+03 0.  0.
         25    1    3    3    0    0  0.34279103147E+02  0.39843342854E+02  0.10733080014E+03  0.17300276773E+03  0.12509000000E+03 0.  0.
         25    1    4    4    0    0  0.13558959396E+02 -0.23640304411E+02  0.29042923080E+03  0.31739463696E+03  0.12509000000E+03 0.  0.
         25    1    4    4    0    0 -0.47838062543E+02 -0.16203038443E+02  0.46699940088E+03  0.48609357865E+03  0.12509000000E+03 0.  0.
<mgrwt>
<rscale>  2 0.45357002E+03</rscale>
<asrwt>0</asrwt>
<pdfrwt beam="1">  1       21 0.13538605E+00 0.45357002E+03</pdfrwt>
<pdfrwt beam="2">  1       21 0.82155558E-02 0.45357002E+03</pdfrwt>
<totfact> 0.40537518E+04</totfact>
</mgrwt>
</event>
<event>
 7    0  0.4831799E-002  0.4538436E+03  0.7546771E-02  0.1026582E+00
         21   -1    0    0  502  501  0.00000000000E+00  0.00000000000E+00  0.20374412727E+03  0.20374412727E+03  0.00000000000E+00 0.  1.
         21   -1    0    0  501  502 -0.00000000000E+00 -0.00000000000E+00 -0.25273610615E+03  0.25273610615E+03  0.00000000000E+00 0.  1.
      99926    2    1    2    0    0  0.00000000000E+00  0.00000000000E+00 -0.48991978876E+02  0.45648023342E+03  0.45384357384E+03 0.  0.
      99925    2    3    3    0    0  0.35223808062E+02 -0.10284141274E+03 -0.58200658408E+02  0.29050017225E+03  0.26303224253E+03 0.  0.
         25    1    3    3    0    0 -0.35223808062E+02  0.10284141274E+03  0.92086795318E+01  0.16598006117E+03  0.12509000000E+03 0.  0.
         25    1    4    4    0    0 -0.22515006661E+02 -0.57123626038E+02 -0.24588584698E+02  0.14149961404E+03  0.12509000000E+03 0.  0.
         25    1    4    4    0    0  0.57738814722E+02 -0.45717786703E+02 -0.33612073709E+02  0.14900055821E+03  0.12509000000E+03 0.  0.
<mgrwt>
<rscale>  2 0.45384357E+03</rscale>
<asrwt>0</asrwt>
<pdfrwt beam="1">  1       21 0.29962372E-01 0.45384357E+03</pdfrwt>
<pdfrwt beam="2">  1       21 0.37167075E-01 0.45384357E+03</pdfrwt>
<totfact> 0.69072549E+04</totfact>
</mgrwt>
</event>
<event>
 7    0  0.4831799E-002  0.4546292E+03  0.7546771E-02  0.1026350E+00
         21   -1    0    0  502  501  0.00000000000E+00  0.00000000000E+00  0.57320159029E+02  0.57320159029E+02  0.00000000000E+00 0.  1.
         21   -1    0    0  501  502 -0.00000000000E+00 -0.00000000000E+00 -0.90146175265E+03  0.90146175265E+03  0.00000000000E+00 0.  1.
      99926    2    1    2    0    0  0.00000000000E+00  0.00000000000E+00 -0.84414159362E+03  0.95878191168E+03  0.45462921605E+03 0.  0.
      99925    2    3    3    0    0  0.99366677783E+02  0.46248656556E+02 -0.48023411857E+03  0.55867088536E+03  0.26358238678E+03 0.  0.
         25    1    4    4    0    0  0.62505518828E+02  0.42770709926E+02 -0.32160352580E+03  0.35328828090E+03  0.12509000000E+03 0.  0.
         25    1    4    4    0    0  0.36861158956E+02  0.34779466297E+01 -0.15863059277E+03  0.20538260446E+03  0.12509000000E+03 0.  0.
         25    1    3    3    0    0 -0.99366677783E+02 -0.46248656556E+02 -0.36390747505E+03  0.40011102632E+03  0.12509000000E+03 0.  0.
<mgrwt>
<rscale>  2 0.45462922E+03</rscale>
<asrwt>0</asrwt>
<pdfrwt beam="1">  1       21 0.84294345E-02 0.45462922E+03</pdfrwt>
<pdfrwt beam="2">  1       21 0.13256792E+00 0.45462922E+03</pdfrwt>
<totfact> 0.40905717E+04</totfact>
</mgrwt>
</event>
<event>
 7    0  0.4831799E-002  0.4563559E+03  0.7546771E-02  0.1025843E+00
         21   -1    0    0  502  501  0.00000000000E+00  0.00000000000E+00  0.12414557976E+04  0.12414557976E+04  0.00000000000E+00 0. -1.
         21   -1    0    0  501  502 -0.00000000000E+00 -0.00000000000E+00 -0.41938805917E+02  0.41938805917E+02  0.00000000000E+00 0. -1.
      99926    2    1    2    0    0  0.00000000000E+00  0.35527136788E-14  0.11995169917E+04  0.12833946035E+04  0.45635588635E+03 0.  0.
      99925    2    3    3    0    0 -0.10681056210E+03  0.27741784084E+02  0.66920710535E+03  0.72746818177E+03  0.26304695944E+03 0.  0.
         25    1    3    3    0    0  0.10681056210E+03 -0.27741784084E+02  0.53030988635E+03  0.55592642177E+03  0.12509000000E+03 0.  0.
         25    1    4    4    0    0 -0.94471551957E+02  0.31318079720E+01  0.38706478275E+03  0.41761386052E+03  0.12509000000E+03 0.  0.
         25    1    4    4    0    0 -0.12339010139E+02  0.24609976112E+02  0.28214232260E+03  0.30985432125E+03  0.12509000000E+03 0.  0.
<mgrwt>
<rscale>  2 0.45635589E+03</rscale>
<asrwt>0</asrwt>
<pdfrwt beam="1">  1       21 0.18256701E+00 0.45635589E+03</pdfrwt>
<pdfrwt beam="2">  1       21 0.61674722E-02 0.45635589E+03</pdfrwt>
<totfact> 0.29290633E+04</totfact>
</mgrwt>
</event>
<event>
 7    0  0.4831799E-002  0.4526159E+03  0.7546771E-02  0.1026945E+00
         21   -1    0    0  502  501  0.00000000000E+00  0.00000000000E+00  0.79883304182E+03  0.79883304182E+03  0.00000000000E+00 0.  1.
         21   -1    0    0  501  502 -0.00000000000E+00 -0.00000000000E+00 -0.64112626665E+02  0.64112626665E+02  0.00000000000E+00 0.  1.
      99926    2    1    2    0    0  0.00000000000E+00  0.00000000000E+00  0.73472041515E+03  0.86294566848E+03  0.45261588385E+03 0.  0.
      99925    2    3    3    0    0  0.43110615330E+02  0.46146681208E+02  0.63721676006E+03  0.69223388741E+03  0.26297245909E+03 0.  0.
         25    1    4    4    0    0  0.19929652489E+01  0.16093024665E+01  0.22828491147E+03  0.26032301218E+03  0.12509000000E+03 0.  0.
         25    1    4    4    0    0  0.41117650081E+02  0.44537378742E+02  0.40893184858E+03  0.43191087523E+03  0.12509000000E+03 0.  0.
         25    1    3    3    0    0 -0.43110615330E+02 -0.46146681208E+02  0.97503655095E+02  0.17071178107E+03  0.12509000000E+03 0.  0.
<mgrwt>
<rscale>  2 0.45261588E+03</rscale>
<asrwt>0</asrwt>
<pdfrwt beam="1">  1       21 0.11747544E+00 0.45261588E+03</pdfrwt>
<pdfrwt beam="2">  1       21 0.94283279E-02 0.45261588E+03</pdfrwt>
<totfact> 0.45714491E+04</totfact>
</mgrwt>
</event>
<event>
 7    0  0.4831799E-002  0.4558458E+03  0.7546771E-02  0.1025993E+00
         21   -1    0    0  502  501  0.00000000000E+00  0.00000000000E+00  0.28446087437E+03  0.28446087437E+03  0.00000000000E+00 0. -1.
         21   -1    0    0  501  502 -0.00000000000E+00 -0.00000000000E+00 -0.18262208768E+03  0.18262208768E+03  0.00000000000E+00 0. -1.
      99926    2    1    2    0    0  0.71054273576E-14  0.00000000000E+00  0.10183878670E+03  0.46708296205E+03  0.45584575786E+03 0.  0.
      99925    2    3    3    0    0 -0.52553246857E+02 -0.64115172777E+02  0.14417186896E+03  0.31115927210E+03  0.26298662642E+03 0.  0.
         25    1    3    3    0    0  0.52553246857E+02  0.64115172777E+02 -0.42333082256E+02  0.15592368995E+03  0.12509000000E+03 0.  0.
         25    1    4    4    0    0  0.72851293091E+01 -0.54812860604E+02  0.71386484633E+02  0.15427592516E+03  0.12509000000E+03 0.  0.
         25    1    4    4    0    0 -0.59838376166E+02 -0.93023121733E+01  0.72785384322E+02  0.15688334693E+03  0.12509000000E+03 0.  0.
<mgrwt>
<rscale>  2 0.45584576E+03</rscale>
<asrwt>0</asrwt>
<pdfrwt beam="1">  1       21 0.41832482E-01 0.45584576E+03</pdfrwt>
<pdfrwt beam="2">  1       21 0.26856189E-01 0.45584576E+03</pdfrwt>
<totfact> 0.67201701E+04</totfact>
</mgrwt>
</event>
<event>
 7    0  0.4831799E-002  0.4551707E+03  0.7546771E-02  0.1026191E+00
         21   -1    0    0  502  501  0.00000000000E+00  0.00000000000E+00  0.16667114456E+03  0.16667114456E+03  0.00000000000E+00 0.  1.
         21   -1    0    0  501  502 -0.00000000000E+00 -0.00000000000E+00 -0.31076223600E+03  0.31076223600E+03  0.00000000000E+00 0.  1.
      99926    2    1    2    0    0  0.00000000000E+00  0.24424906542E-14 -0.14409109144E+03  0.47743338056E+03  0.45517072647E+03 0.  0.
      99925    2    3    3    0    0 -0.75824429440E+02 -0.13335069228E+01 -0.23996278260E+01  0.27377901330E+03  0.26305525574E+03 0.  0.
         25    1    4    4    0    0 -0.35408912498E+02 -0.40871750451E+02  0.42405615044E+01  0.13634434910E+03  0.12509000000E+03 0.  0.
         25    1    4    4    0    0 -0.40415516942E+02  0.39538243528E+02 -0.66401893305E+01  0.13743466421E+03  0.12509000000E+03 0.  0.
         25    1    3    3    0    0  0.75824429440E+02  0.13335069228E+01 -0.14169146361E+03  0.20365436725E+03  0.12509000000E+03 0.  0.
<mgrwt>
<rscale>  2 0.45517073E+03</rscale>
<asrwt>0</asrwt>
<pdfrwt beam="1">  1       21 0.24510463E-01 0.45517073E+03</pdfrwt>
<pdfrwt beam="2">  1       21 0.45700328E-01 0.45517073E+03</pdfrwt>
<totfact> 0.66796849E+04</totfact>
</mgrwt>
</event>
<event>
 7    0  0.4831799E-002  0.4673701E+03  0.7546771E-02  0.1022665E+00
         21   -1    0    0  502  501  0.00000000000E+00  0.00000000000E+00  0.42677529082E+02  0.42677529082E+02  0.00000000000E+00 0.  1.
         21   -1    0    0  501  502 -0.00000000000E+00 -0.00000000000E+00 -0.12795657995E+04  0.12795657995E+04  0.00000000000E+00 0.  1.
      99926    2    1    2    0    0  0.14210854715E-13  0.00000000000E+00 -0.12368882704E+04  0.13222433286E+04  0.46737011724E+03 0.  0.
      99925    2    3    3    0    0 -0.11385121419E+03 -0.50036769519E+02 -0.78206599952E+03  0.83441489206E+03  0.26297377665E+03 0.  0.
         25    1    3    3    0    0  0.11385121419E+03  0.50036769519E+02 -0.45482227092E+03  0.48782843654E+03  0.12509000000E+03 0.  0.
         25    1    4    4    0    0 -0.77748754212E+02 -0.13228578292E+02 -0.50289239317E+03  0.52418329931E+03  0.12509000000E+03 0.  0.
         25    1    4    4    0    0 -0.36102459981E+02 -0.36808191227E+02 -0.27917360635E+03  0.31023159275E+03  0.12509000000E+03 0.  0.
<mgrwt>
<rscale>  2 0.46737012E+03</rscale>
<asrwt>0</asrwt>
<pdfrwt beam="1">  1       21 0.62761088E-02 0.46737012E+03</pdfrwt>
<pdfrwt beam="2">  1       21 0.18817139E+00 0.46737012E+03</pdfrwt>
<totfact> 0.25893225E+04</totfact>
</mgrwt>
</event>
<event>
 7    0  0.4831799E-002  0.4536043E+03  0.7546771E-02  0.1026653E+00
         21   -1    0    0  502  501  0.00000000000E+00  0.00000000000E+00  0.12593884214E+03  0.12593884214E+03  0.00000000000E+00 0. -1.
         21   -1    0    0  501  502 -0.00000000000E+00 -0.00000000000E+00 -0.40844603587E+03  0.40844603587E+03  0.00000000000E+00 0. -1.
      99926    2    1    2    0    0  0.00000000000E+00  0.00000000000E+00 -0.28250719373E+03  0.53438487800E+03  0.45360432463E+03 0.  0.
      99925    2    3    3    0    0  0.17318757972E+02 -0.79500404025E+02 -0.26892714663E+03  0.38454436480E+03  0.26254962328E+03 0.  0.
         25    1    3    3    0    0 -0.17318757972E+02  0.79500404025E+02 -0.13580047095E+02  0.14984051320E+03  0.12509000000E+03 0.  0.
         25    1    4    4    0    0 -0.11781514181E+02 -0.74990198839E+02 -0.13999406046E+03  0.20250476306E+03  0.12509000000E+03 0.  0.
         25    1    4    4    0    0  0.29100272153E+02 -0.45102051859E+01 -0.12893308617E+03  0.18203960173E+03  0.12509000000E+03 0.  0.
<mgrwt>
<rscale>  2 0.45360432E+03</rscale>
<asrwt>0</asrwt>
<pdfrwt beam="1">  1       21 0.18520418E-01 0.45360432E+03</pdfrwt>
<pdfrwt beam="2">  1       21 0.60065593E-01 0.45360432E+03</pdfrwt>
<totfact> 0.63610097E+04</totfact>
</mgrwt>
</event>
<event>
 7    0  0.4831799E-002  0.4616253E+03  0.7546771E-02  0.1024311E+00
         21   -1    0    0  502  501  0.00000000000E+00  0.00000000000E+00  0.17273665948E+03  0.17273665948E+03  0.00000000000E+00 0.  1.
         21   -1    0    0  501  502 -0.00000000000E+00 -0.00000000000E+00 -0.30841445146E+03  0.30841445146E+03  0.00000000000E+00 0.  1.
      99926    2    1    2    0    0  0.00000000000E+00  0.00000000000E+00 -0.13567779198E+03  0.48115111094E+03  0.46162531161E+03 0.  0.
      99925    2    3    3    0    0  0.72463744568E+02  0.82265938988E+02 -0.36996422586E+02  0.28774945697E+03  0.26346220925E+03 0.  0.
         25    1    4    4    0    0  0.44869935798E+02  0.71452229389E+02  0.91570470979E+01  0.15116246834E+03  0.12509000000E+03 0.  0.
         25    1    3    3    0    0 -0.72463744568E+02 -0.82265938988E+02 -0.98681369394E+02  0.19340165397E+03  0.12509000000E+03 0.  0.
         25    1    4    4    0    0  0.27593808770E+02  0.10813709598E+02 -0.46153469684E+02  0.13658698862E+03  0.12509000000E+03 0.  0.
<mgrwt>
<rscale>  2 0.46162531E+03</rscale>
<asrwt>0</asrwt>
<pdfrwt beam="1">  1       21 0.25402450E-01 0.46162531E+03</pdfrwt>
<pdfrwt beam="2">  1       21 0.45355066E-01 0.46162531E+03</pdfrwt>
<totfact> 0.63225842E+04</totfact>
</mgrwt>
</event>
<event>
 7    0  0.4831799E-002  0.4515176E+03  0.7546771E-02  0.1027270E+00
         21   -1    0    0  502  501  0.00000000000E+00  0.00000000000E+00  0.48599385192E+03  0.48599385192E+03  0.00000000000E+00 0. -1.
         21   -1    0    0  501  502 -0.00000000000E+00 -0.00000000000E+00 -0.10487177724E+03  0.10487177724E+03  0.00000000000E+00 0. -1.
      99926    2    1    2    0    0  0.00000000000E+00 -0.14210854715E-13  0.38112207467E+03  0.59086562916E+03  0.45151761419E+03 0.  0.
      99925    2    3    3    0    0  0.42242038610E+02  0.70872069404E+02  0.33557010752E+03  0.43424593098E+03  0.26297336645E+03 0.  0.
         25    1    4    4    0    0  0.34598348495E+02  0.24261004588E+01  0.19191447411E+03  0.23169291132E+03  0.12509000000E+03 0.  0.
         25    1    4    4    0    0  0.76436901152E+01  0.68445968945E+02  0.14365563341E+03  0.20255301966E+03  0.12509000000E+03 0.  0.
         25    1    3    3    0    0 -0.42242038610E+02 -0.70872069404E+02  0.45551967154E+02  0.15661969818E+03  0.12509000000E+03 0.  0.
<mgrwt>
<rscale>  2 0.45151761E+03</rscale>
<asrwt>0</asrwt>
<pdfrwt beam="1">  1       21 0.71469683E-01 0.45151761E+03</pdfrwt>
<pdfrwt beam="2">  1       21 0.15422320E-01 0.45151761E+03</pdfrwt>
<totfact> 0.60903009E+04</totfact>
</mgrwt>
</event>
<event>
 7    0  0.4831799E-002  0.4484578E+03  0.7546771E-02  0.1028183E+00
         21   -1    0    0  502  501  0.00000000000E+00  0.00000000000E+00  0.27818777148E+03  0.27818777148E+03  0.00000000000E+00 0. -1.
         21   -1    0    0  501  502 -0.00000000000E+00 -0.00000000000E+00 -0.18073617991E+03  0.18073617991E+03  0.00000000000E+00 0. -1.
      99926    2    1    2    0    0 -0.14210854715E-13  0.88817841970E-15  0.97451591567E+02  0.45892395139E+03  0.44845778002E+03 0.  0.
      99925    2    3    3    0    0  0.99875408001E+02  0.36135040275E+01  0.22881022906E+02  0.28229883329E+03  0.26302269015E+03 0.  0.
         25    1    4    4    0    0  0.49899232772E+02  0.42367910720E+02  0.13152795785E+02  0.14179378487E+03  0.12509000000E+03 0.  0.
         25    1    4    4    0    0  0.49976175230E+02 -0.38754406692E+02  0.97282271205E+01  0.14050504842E+03  0.12509000000E+03 0.  0.
         25    1    3    3    0    0 -0.99875408001E+02 -0.36135040275E+01  0.74570568661E+02  0.17662511810E+03  0.12509000000E+03 0.  0.
<mgrwt>
<rscale>  2 0.44845778E+03</rscale>
<asrwt>0</asrwt>
<pdfrwt beam="1">  1       21 0.40909967E-01 0.44845778E+03</pdfrwt>
<pdfrwt beam="2">  1       21 0.26578850E-01 0.44845778E+03</pdfrwt>
<totfact> 0.71929684E+04</totfact>
</mgrwt>
</event>
<event>
 7    0  0.4831799E-002  0.4479111E+03  0.7546771E-02  0.1028347E+00
         21   -1    0    0  502  501  0.00000000000E+00  0.00000000000E+00  0.89138536357E+02  0.89138536357E+02  0.00000000000E+00 0.  1.
         21   -1    0    0  501  502 -0.00000000000E+00 -0.00000000000E+00 -0.56267561723E+03  0.56267561723E+03  0.00000000000E+00 0.  1.
      99926    2    1    2    0    0 -0.14210854715E-13  0.35527136788E-14 -0.47353708087E+03  0.65181415359E+03  0.44791106690E+03 0.  0.
      99925    2    3    3    0    0  0.98373189885E+02 -0.22729904052E+02 -0.25258037389E+03  0.37856827990E+03  0.26329292479E+03 0.  0.
         25    1    3    3    0    0 -0.98373189885E+02  0.22729904052E+02 -0.22095670699E+03  0.27324587369E+03  0.12509000000E+03 0.  0.
         25    1    4    4    0    0  0.31800510866E+02  0.24233350403E+02 -0.99607881653E+02  0.16482647224E+03  0.12509000000E+03 0.  0.
         25    1    4    4    0    0  0.66572679020E+02 -0.46963254455E+02 -0.15297249223E+03  0.21374180766E+03  0.12509000000E+03 0.  0.
<mgrwt>
<rscale>  2 0.44791107E+03</rscale>
<asrwt>0</asrwt>
<pdfrwt beam="1">  1       21 0.13108609E-01 0.44791107E+03</pdfrwt>
<pdfrwt beam="2">  1       21 0.82746413E-01 0.44791107E+03</pdfrwt>
<totfact> 0.58817679E+04</totfact>
</mgrwt>
</event>
<event>
 7    0  0.4831799E-002  0.4526899E+03  0.7546771E-02  0.1026923E+00
         21   -1    0    0  502  501  0.00000000000E+00  0.00000000000E+00  0.82242785837E+03  0.82242785837E+03  0.00000000000E+00 0.  1.
         21   -1    0    0  501  502 -0.00000000000E+00 -0.00000000000E+00 -0.62293640572E+02  0.62293640572E+02  0.00000000000E+00 0.  1.
      99926    2    1    2    0    0  0.00000000000E+00  0.00000000000E+00  0.76013421780E+03  0.88472149894E+03  0.45268985147E+03 0.  0.
      99925    2    3    3    0    0 -0.74030416447E+02  0.72837730620E+02  0.55567489421E+03  0.62349944654E+03  0.26304207689E+03 0.  0.
         25    1    3    3    0    0  0.74030416447E+02 -0.72837730620E+02  0.20445932358E+03  0.26122205240E+03  0.12509000000E+03 0.  0.
         25    1    4    4    0    0 -0.32991338128E+02  0.57522313671E+02  0.36307331131E+03  0.38970114504E+03  0.12509000000E+03 0.  0.
         25    1    4    4    0    0 -0.41039078320E+02  0.15315416949E+02  0.19260158290E+03  0.23379830150E+03  0.12509000000E+03 0.  0.
<mgrwt>
<rscale>  2 0.45268985E+03</rscale>
<asrwt>0</asrwt>
<pdfrwt beam="1">  1       21 0.12094527E+00 0.45268985E+03</pdfrwt>
<pdfrwt beam="2">  1       21 0.91608300E-02 0.45268985E+03</pdfrwt>
<totfact> 0.44704180E+04</totfact>
</mgrwt>
</event>
<event>
 7    0  0.4831799E-002  0.4507272E+03  0.7546771E-02  0.1027505E+00
         21   -1    0    0  502  501  0.00000000000E+00  0.00000000000E+00  0.53938165475E+03  0.53938165475E+03  0.00000000000E+00 0.  1.
         21   -1    0    0  501  502 -0.00000000000E+00 -0.00000000000E+00 -0.94161086985E+02  0.94161086985E+02  0.00000000000E+00 0.  1.
      99926    2    1    2    0    0  0.35527136788E-14  0.14210854715E-13  0.44522056776E+03  0.63354274173E+03  0.45072724750E+03 0.  0.
      99925    2    3    3    0    0 -0.10864823931E+02 -0.10846863750E+03  0.29045311164E+03  0.40664196320E+03  0.26289006535E+03 0.  0.
         25    1    3    3    0    0  0.10864823931E+02  0.10846863750E+03  0.15476745612E+03  0.22690077853E+03  0.12509000000E+03 0.  0.
         25    1    4    4    0    0  0.33601388410E+02 -0.46768533914E+02  0.12887189343E+03  0.18860493653E+03  0.12509000000E+03 0.  0.
         25    1    4    4    0    0 -0.44466212341E+02 -0.61700103590E+02  0.16158121821E+03  0.21803702668E+03  0.12509000000E+03 0.  0.
<mgrwt>
<rscale>  2 0.45072725E+03</rscale>
<asrwt>0</asrwt>
<pdfrwt beam="1">  1       21 0.79320830E-01 0.45072725E+03</pdfrwt>
<pdfrwt beam="2">  1       21 0.13847219E-01 0.45072725E+03</pdfrwt>
<totfact> 0.58611469E+04</totfact>
</mgrwt>
</event>
<event>
 7    0  0.4831799E-002  0.4179288E+03  0.7546771E-02  0.1037743E+00
         21   -1    0    0  502  501  0.00000000000E+00  0.00000000000E+00  0.58702913680E+02  0.58702913680E+02  0.00000000000E+00 0.  1.
         21   -1    0    0  501  502 -0.00000000000E+00 -0.00000000000E+00 -0.74384941442E+03  0.74384941442E+03  0.00000000000E+00 0.  1.
      99926    2    1    2    0    0  0.00000000000E+00  0.00000000000E+00 -0.68514650074E+03  0.80255232810E+03  0.41792883588E+03 0.  0.
      99925    2    3    3    0    0  0.57047767591E+02  0.44918161456E+02 -0.42893951150E+03  0.50833876884E+03  0.26295838144E+03 0.  0.
         25    1    4    4    0    0  0.67832485631E+02  0.32876585116E+02 -0.24720042500E+03  0.28711961649E+03  0.12509000000E+03 0.  0.
         25    1    4    4    0    0 -0.10784718040E+02  0.12041576340E+02 -0.18173908650E+03  0.22121915235E+03  0.12509000000E+03 0.  0.
         25    1    3    3    0    0 -0.57047767591E+02 -0.44918161456E+02 -0.25620698925E+03  0.29421355926E+03  0.12509000000E+03 0.  0.
<mgrwt>
<rscale>  2 0.41792884E+03</rscale>
<asrwt>0</asrwt>
<pdfrwt beam="1">  1       21 0.86327817E-02 0.41792884E+03</pdfrwt>
<pdfrwt beam="2">  1       21 0.10938962E+00 0.41792884E+03</pdfrwt>
<totfact> 0.64440559E+04</totfact>
</mgrwt>
</event>
<event>
 7    0  0.4831799E-002  0.4600159E+03  0.7546771E-02  0.1024777E+00
         21   -1    0    0  502  501  0.00000000000E+00  0.00000000000E+00  0.12706339284E+03  0.12706339284E+03  0.00000000000E+00 0. -1.
         21   -1    0    0  501  502 -0.00000000000E+00 -0.00000000000E+00 -0.41635632878E+03  0.41635632878E+03  0.00000000000E+00 0. -1.
      99926    2    1    2    0    0 -0.35527136788E-14  0.00000000000E+00 -0.28929293595E+03  0.54341972162E+03  0.46001585957E+03 0.  0.
      99925    2    3    3    0    0 -0.26705649244E+02  0.65118551296E+02 -0.69634034585E+02  0.28102467885E+03  0.26300637620E+03 0.  0.
         25    1    4    4    0    0  0.66937409931E+01  0.65985360416E+02 -0.23190688277E+02  0.14347191391E+03  0.12509000000E+03 0.  0.
         25    1    4    4    0    0 -0.33399390237E+02 -0.86680911927E+00 -0.46443346308E+02  0.13755276494E+03  0.12509000000E+03 0.  0.
         25    1    3    3    0    0  0.26705649244E+02 -0.65118551296E+02 -0.21965890136E+03  0.26239504277E+03  0.12509000000E+03 0.  0.
<mgrwt>
<rscale>  2 0.46001586E+03</rscale>
<asrwt>0</asrwt>
<pdfrwt beam="1">  1       21 0.18685793E-01 0.46001586E+03</pdfrwt>
<pdfrwt beam="2">  1       21 0.61228873E-01 0.46001586E+03</pdfrwt>
<totfact> 0.59890619E+04</totfact>
</mgrwt>
</event>
<event>
 7    0  0.4831799E-002  0.4517183E+03  0.7546771E-02  0.1027211E+00
         21   -1    0    0  502  501  0.00000000000E+00  0.00000000000E+00  0.26093458491E+02  0.26093458491E+02  0.00000000000E+00 0.  1.
         21   -1    0    0  501  502 -0.00000000000E+00 -0.00000000000E+00 -0.19549864780E+04  0.19549864780E+04  0.00000000000E+00 0.  1.
      99926    2    1    2    0    0  0.00000000000E+00  0.22204460493E-15 -0.19288930195E+04  0.19810799365E+04  0.45171831273E+03 0.  0.
      99925    2    3    3    0    0  0.85636233856E+02  0.78884406563E+00 -0.15206465261E+04  0.15455952705E+04  0.26299181747E+03 0.  0.
         25    1    4    4    0    0  0.11878004437E+01 -0.32825831983E+01 -0.64487779558E+03  0.65690719706E+03  0.12509000000E+03 0.  0.
         25    1    4    4    0    0  0.84448433412E+02  0.40714272639E+01 -0.87576873055E+03  0.88868807347E+03  0.12509000000E+03 0.  0.
         25    1    3    3    0    0 -0.85636233856E+02 -0.78884406563E+00 -0.40824649338E+03  0.43548466595E+03  0.12509000000E+03 0.  0.
<mgrwt>
<rscale>  2 0.45171831E+03</rscale>
<asrwt>0</asrwt>
<pdfrwt beam="1">  1       21 0.38372723E-02 0.45171831E+03</pdfrwt>
<pdfrwt beam="2">  1       21 0.28749809E+00 0.45171831E+03</pdfrwt>
<totfact> 0.14384038E+04</totfact>
</mgrwt>
</event>
<event>
 7    0  0.4831799E-002  0.4521483E+03  0.7546771E-02  0.1027083E+00
         21   -1    0    0  502  501  0.00000000000E+00  0.00000000000E+00  0.93429416914E+02  0.93429416914E+02  0.00000000000E+00 0.  1.
         21   -1    0    0  501  502 -0.00000000000E+00 -0.00000000000E+00 -0.54703882779E+03  0.54703882779E+03  0.00000000000E+00 0.  1.
      99926    2    1    2    0    0  0.71054273576E-14  0.00000000000E+00 -0.45360941087E+03  0.64046824470E+03  0.45214828855E+03 0.  0.
      99925    2    3    3    0    0  0.61236790679E+02  0.88150947712E+02 -0.32456916014E+03  0.43113733794E+03  0.26270464468E+03 0.  0.
         25    1    4    4    0    0  0.55968578311E+02  0.63972719205E+02 -0.21589479395E+03  0.26359639739E+03  0.12509000000E+03 0.  0.
         25    1    4    4    0    0  0.52682123683E+01  0.24178228507E+02 -0.10867436619E+03  0.16754094055E+03  0.12509000000E+03 0.  0.
         25    1    3    3    0    0 -0.61236790679E+02 -0.88150947712E+02 -0.12904025074E+03  0.20933090676E+03  0.12509000000E+03 0.  0.
<mgrwt>
<rscale>  2 0.45214829E+03</rscale>
<asrwt>0</asrwt>
<pdfrwt beam="1">  1       21 0.13739620E-01 0.45214829E+03</pdfrwt>
<pdfrwt beam="2">  1       21 0.80446888E-01 0.45214829E+03</pdfrwt>
<totfact> 0.57537893E+04</totfact>
</mgrwt>
</event>
<event>
 7    0  0.4831799E-002  0.4063573E+03  0.7546771E-02  0.1041600E+00
         21   -1    0    0  502  501  0.00000000000E+00  0.00000000000E+00  0.90815839251E+03  0.90815839251E+03  0.00000000000E+00 0. -1.
         21   -1    0    0  501  502 -0.00000000000E+00 -0.00000000000E+00 -0.45456353136E+02  0.45456353136E+02  0.00000000000E+00 0. -1.
      99926    2    1    2    0    0  0.00000000000E+00  0.35527136788E-14  0.86270203938E+03  0.95361474565E+03  0.40635732351E+03 0.  0.
      99925    2    3    3    0    0  0.27951696158E+02  0.28511906218E+02  0.66597621393E+03  0.71709247479E+03  0.26287463507E+03 0.  0.
         25    1    3    3    0    0 -0.27951696158E+02 -0.28511906218E+02  0.19672582544E+03  0.23652227086E+03  0.12509000000E+03 0.  0.
         25    1    4    4    0    0  0.74000819556E+01  0.41523937972E+02  0.41704569165E+03  0.43743984234E+03  0.12509000000E+03 0.  0.
         25    1    4    4    0    0  0.20551614202E+02 -0.13012031754E+02  0.24893052228E+03  0.27965263245E+03  0.12509000000E+03 0.  0.
<mgrwt>
<rscale>  2 0.40635732E+03</rscale>
<asrwt>0</asrwt>
<pdfrwt beam="1">  1       21 0.13355269E+00 0.40635732E+03</pdfrwt>
<pdfrwt beam="2">  1       21 0.66847584E-02 0.40635732E+03</pdfrwt>
<totfact> 0.61146766E+04</totfact>
</mgrwt>
</event>
<event>
 7    0  0.4831799E-002  0.4549679E+03  0.7546771E-02  0.1026251E+00
         21   -1    0    0  502  501  0.00000000000E+00  0.00000000000E+00  0.12018057657E+03  0.12018057657E+03  0.00000000000E+00 0.  1.
         21   -1    0    0  501  502 -0.00000000000E+00 -0.00000000000E+00 -0.43059333629E+03  0.43059333629E+03  0.00000000000E+00 0.  1.
      99926    2    1    2    0    0  0.00000000000E+00  0.00000000000E+00 -0.31041275972E+03  0.55077391286E+03  0.45496793480E+03 0.  0.
      99925    2    3    3    0    0  0.39951392181E+02  0.22697359722E+02 -0.71101695818E+02  0.27686046434E+03  0.26360004114E+03 0.  0.
         25    1    3    3    0    0 -0.39951392181E+02 -0.22697359722E+02 -0.23931106390E+03  0.27391344852E+03  0.12509000000E+03 0.  0.
         25    1    4    4    0    0  0.61728353924E+02  0.14731825551E+02 -0.40797257392E+02  0.14607991194E+03  0.12509000000E+03 0.  0.
         25    1    4    4    0    0 -0.21776961743E+02  0.79655341711E+01 -0.30304438425E+02  0.13078055240E+03  0.12509000000E+03 0.  0.
<mgrwt>
<rscale>  2 0.45496793E+03</rscale>
<asrwt>0</asrwt>
<pdfrwt beam="1">  1       21 0.17673614E-01 0.45496793E+03</pdfrwt>
<pdfrwt beam="2">  1       21 0.63322550E-01 0.45496793E+03</pdfrwt>
<totfact> 0.61831085E+04</totfact>
</mgrwt>
</event>
<event>
 7    0  0.4831799E-002  0.4519952E+03  0.7546771E-02  0.1027129E+00
         21   -1    0    0  502  501  0.00000000000E+00  0.00000000000E+00  0.83286989910E+02  0.83286989910E+02  0.00000000000E+00 0.  1.
         21   -1    0    0  501  502 -0.00000000000E+00 -0.00000000000E+00 -0.61324009343E+03  0.61324009343E+03  0.00000000000E+00 0.  1.
      99926    2    1    2    0    0  0.00000000000E+00  0.00000000000E+00 -0.52995310352E+03  0.69652708334E+03  0.45199522774E+03 0.  0.
      99925    2    3    3    0    0 -0.10069714167E+03 -0.46544935983E+02 -0.33821980236E+03  0.44213464580E+03  0.26226716321E+03 0.  0.
         25    1    3    3    0    0  0.10069714167E+03  0.46544935983E+02 -0.19173330116E+03  0.25439243754E+03  0.12509000000E+03 0.  0.
         25    1    4    4    0    0 -0.49558957870E+02 -0.58743327239E+02 -0.14788315484E+03  0.20838379109E+03  0.12509000000E+03 0.  0.
         25    1    4    4    0    0 -0.51138183795E+02  0.12198391256E+02 -0.19033664752E+03  0.23375085471E+03  0.12509000000E+03 0.  0.
<mgrwt>
<rscale>  2 0.45199523E+03</rscale>
<asrwt>0</asrwt>
<pdfrwt beam="1">  1       21 0.12248086E-01 0.45199523E+03</pdfrwt>
<pdfrwt beam="2">  1       21 0.90182369E-01 0.45199523E+03</pdfrwt>
<totfact> 0.54366281E+04</totfact>
</mgrwt>
</event>
<event>
 7    0  0.4831799E-002  0.4548263E+03  0.7546771E-02  0.1026292E+00
         21   -1    0    0  502  501  0.00000000000E+00  0.00000000000E+00  0.97073843362E+02  0.97073843362E+02  0.00000000000E+00 0.  1.
         21   -1    0    0  501  502 -0.00000000000E+00 -0.00000000000E+00 -0.53275675426E+03  0.53275675426E+03  0.00000000000E+00 0.  1.
      99926    2    1    2    0    0  0.14210854715E-13  0.00000000000E+00 -0.43568291090E+03  0.62983059763E+03  0.45482632164E+03 0.  0.
      99925    2    3    3    0    0  0.10385207196E+03  0.15564973909E+02 -0.21403779272E+03  0.35450971615E+03  0.26236890225E+03 0.  0.
         25    1    4    4    0    0  0.24621444856E+02  0.73115145756E+01 -0.13739275525E+03  0.18757385502E+03  0.12509000000E+03 0.  0.
         25    1    3    3    0    0 -0.10385207196E+03 -0.15564973909E+02 -0.22164511818E+03  0.27532088147E+03  0.12509000000E+03 0.  0.
         25    1    4    4    0    0  0.79230627107E+02  0.82534593336E+01 -0.76645037479E+02  0.16693586114E+03  0.12509000000E+03 0.  0.
<mgrwt>
<rscale>  2 0.45482632E+03</rscale>
<asrwt>0</asrwt>
<pdfrwt beam="1">  1       21 0.14275565E-01 0.45482632E+03</pdfrwt>
<pdfrwt beam="2">  1       21 0.78346580E-01 0.45482632E+03</pdfrwt>
<totfact> 0.56956728E+04</totfact>
</mgrwt>
</event>
<event>
 7    0  0.4831799E-002  0.4523399E+03  0.7546771E-02  0.1027027E+00
         21   -1    0    0  502  501  0.00000000000E+00  0.00000000000E+00  0.29071655922E+04  0.29071655922E+04  0.00000000000E+00 0.  1.
         21   -1    0    0  501  502 -0.00000000000E+00 -0.00000000000E+00 -0.17595433568E+02  0.17595433568E+02  0.00000000000E+00 0.  1.
      99926    2    1    2    0    0  0.00000000000E+00  0.00000000000E+00  0.28895701586E+04  0.29247610257E+04  0.45233986801E+03 0.  0.
      99925    2    3    3    0    0 -0.96007747435E+02 -0.39618960192E+02  0.15753942541E+04  0.16005658114E+04  0.26297663628E+03 0.  0.
         25    1    4    4    0    0 -0.69878745352E+02  0.38030534080E+01  0.66940185791E+03  0.68457567715E+03  0.12509000000E+03 0.  0.
         25    1    3    3    0    0  0.96007747435E+02  0.39618960192E+02  0.13141759045E+04  0.13241952144E+04  0.12509000000E+03 0.  0.
         25    1    4    4    0    0 -0.26129002083E+02 -0.43422013600E+02  0.90599239615E+03  0.91599013422E+03  0.12509000000E+03 0.  0.
<mgrwt>
<rscale>  2 0.45233987E+03</rscale>
<asrwt>0</asrwt>
<pdfrwt beam="1">  1       21 0.42752402E+00 0.45233987E+03</pdfrwt>
<pdfrwt beam="2">  1       21 0.25875658E-02 0.45233987E+03</pdfrwt>
<totfact> 0.37657438E+03</totfact>
</mgrwt>
</event>
<event>
 7    0  0.4831799E-002  0.4546851E+03  0.7546771E-02  0.1026334E+00
         21   -1    0    0  502  501  0.00000000000E+00  0.00000000000E+00  0.13721612357E+03  0.13721612357E+03  0.00000000000E+00 0.  1.
         21   -1    0    0  501  502 -0.00000000000E+00 -0.00000000000E+00 -0.37666589100E+03  0.37666589100E+03  0.00000000000E+00 0.  1.
      99926    2    1    2    0    0  0.00000000000E+00 -0.35527136788E-14 -0.23944976743E+03  0.51388201457E+03  0.45468509298E+03 0.  0.
      99925    2    3    3    0    0 -0.90134768749E+02  0.31979133505E+02 -0.21853970078E+03  0.35503718304E+03  0.26295410057E+03 0.  0.
         25    1    3    3    0    0  0.90134768749E+02 -0.31979133505E+02 -0.20910066652E+02  0.15884483153E+03  0.12509000000E+03 0.  0.
         25    1    4    4    0    0 -0.65262149127E+02  0.55323813315E+01 -0.70393175022E+02  0.15777345322E+03  0.12509000000E+03 0.  0.
         25    1    4    4    0    0 -0.24872619621E+02  0.26446752174E+02 -0.14814652576E+03  0.19726372982E+03  0.12509000000E+03 0.  0.
<mgrwt>
<rscale>  2 0.45468509E+03</rscale>
<asrwt>0</asrwt>
<pdfrwt beam="1">  1       21 0.20178842E-01 0.45468509E+03</pdfrwt>
<pdfrwt beam="2">  1       21 0.55392041E-01 0.45468509E+03</pdfrwt>
<totfact> 0.64466950E+04</totfact>
</mgrwt>
</event>
<event>
 7    0  0.4831799E-002  0.4547928E+03  0.7546771E-02  0.1026302E+00
         21   -1    0    0  502  501  0.00000000000E+00  0.00000000000E+00  0.54868622388E+03  0.54868622388E+03  0.00000000000E+00 0. -1.
         21   -1    0    0  501  502 -0.00000000000E+00 -0.00000000000E+00 -0.94241708616E+02  0.94241708616E+02  0.00000000000E+00 0. -1.
      99926    2    1    2    0    0  0.53290705182E-14  0.00000000000E+00  0.45444451526E+03  0.64292793250E+03  0.45479281979E+03 0.  0.
      99925    2    3    3    0    0  0.11992073129E+02  0.36509203577E+02  0.13312932287E+03  0.29598745817E+03  0.26155004688E+03 0.  0.
         25    1    3    3    0    0 -0.11992073129E+02 -0.36509203577E+02  0.32131519239E+03  0.34694047433E+03  0.12509000000E+03 0.  0.
         25    1    4    4    0    0 -0.28572097447E+02  0.23490879595E+02  0.49050756799E+02  0.13936165548E+03  0.12509000000E+03 0.  0.
         25    1    4    4    0    0  0.40564170577E+02  0.13018323982E+02  0.84078566072E+02  0.15662580268E+03  0.12509000000E+03 0.  0.
<mgrwt>
<rscale>  2 0.45479282E+03</rscale>
<asrwt>0</asrwt>
<pdfrwt beam="1">  1       21 0.80689149E-01 0.45479282E+03</pdfrwt>
<pdfrwt beam="2">  1       21 0.13859075E-01 0.45479282E+03</pdfrwt>
<totfact> 0.56202583E+04</totfact>
</mgrwt>
</event>
<event>
 7    0  0.4831799E-002  0.4508271E+03  0.7546771E-02  0.1027476E+00
         21   -1    0    0  502  501  0.00000000000E+00  0.00000000000E+00  0.10955670871E+03  0.10955670871E+03  0.00000000000E+00 0. -1.
         21   -1    0    0  501  502 -0.00000000000E+00 -0.00000000000E+00 -0.46378969617E+03  0.46378969617E+03  0.00000000000E+00 0. -1.
      99926    2    1    2    0    0  0.00000000000E+00 -0.14210854715E-13 -0.35423298746E+03  0.57334640488E+03  0.45082711828E+03 0.  0.
      99925    2    3    3    0    0  0.64559758517E+02  0.87416093833E+02 -0.20998970739E+03  0.35365760720E+03  0.26299903049E+03 0.  0.
         25    1    3    3    0    0 -0.64559758517E+02 -0.87416093833E+02 -0.14424328007E+03  0.21968879768E+03  0.12509000000E+03 0.  0.
         25    1    4    4    0    0  0.35022140816E+02  0.15643892104E+02 -0.13665425416E+03  0.18919084277E+03  0.12509000000E+03 0.  0.
         25    1    4    4    0    0  0.29537617701E+02  0.71772201729E+02 -0.73335453228E+02  0.16446676443E+03  0.12509000000E+03 0.  0.
<mgrwt>
<rscale>  2 0.45082712E+03</rscale>
<asrwt>0</asrwt>
<pdfrwt beam="1">  1       21 0.16111281E-01 0.45082712E+03</pdfrwt>
<pdfrwt beam="2">  1       21 0.68204366E-01 0.45082712E+03</pdfrwt>
<totfact> 0.62382593E+04</totfact>
</mgrwt>
</event>
<event>
 7    0  0.4831799E-002  0.4733621E+03  0.7546771E-02  0.1020976E+00
         21   -1    0    0  502  501  0.00000000000E+00  0.00000000000E+00  0.73908820279E+02  0.73908820279E+02  0.00000000000E+00 0.  1.
         21   -1    0    0  501  502 -0.00000000000E+00 -0.00000000000E+00 -0.75793287172E+03  0.75793287172E+03  0.00000000000E+00 0.  1.
      99926    2    1    2    0    0  0.00000000000E+00  0.14210854715E-13 -0.68402405145E+03  0.83184169200E+03  0.47336212100E+03 0.  0.
      99925    2    3    3    0    0 -0.24461553941E+02  0.81371010044E+02 -0.25184161927E+03  0.37396750440E+03  0.26307391404E+03 0.  0.
         25    1    4    4    0    0  0.28314094556E+02  0.34337435663E+02 -0.12065952412E+03  0.17940729166E+03  0.12509000000E+03 0.  0.
         25    1    4    4    0    0 -0.52775648497E+02  0.47033574381E+02 -0.13118209515E+03  0.19456021274E+03  0.12509000000E+03 0.  0.
         25    1    3    3    0    0  0.24461553941E+02 -0.81371010044E+02 -0.43218243217E+03  0.45787418761E+03  0.12509000000E+03 0.  0.
<mgrwt>
<rscale>  2 0.47336212E+03</rscale>
<asrwt>0</asrwt>
<pdfrwt beam="1">  1       21 0.10868944E-01 0.47336212E+03</pdfrwt>
<pdfrwt beam="2">  1       21 0.11146072E+00 0.47336212E+03</pdfrwt>
<totfact> 0.40157151E+04</totfact>
</mgrwt>
</event>
<event>
 7    0  0.4831799E-002  0.4722773E+03  0.7546771E-02  0.1021279E+00
         21   -1    0    0  502  501  0.00000000000E+00  0.00000000000E+00  0.21722415579E+03  0.21722415579E+03  0.00000000000E+00 0. -1.
         21   -1    0    0  501  502 -0.00000000000E+00 -0.00000000000E+00 -0.25670013197E+03  0.25670013197E+03  0.00000000000E+00 0. -1.
      99926    2    1    2    0    0 -0.14210854715E-13 -0.71054273576E-14 -0.39475976180E+02  0.47392428775E+03  0.47227733147E+03 0.  0.
      99925    2    3    3    0    0  0.86508649588E+02  0.50139662782E+02  0.56975129353E+02  0.28698029588E+03  0.26289502206E+03 0.  0.
         25    1    3    3    0    0 -0.86508649588E+02 -0.50139662782E+02 -0.96451105533E+02  0.18694399187E+03  0.12509000000E+03 0.  0.
         25    1    4    4    0    0  0.44301078703E+02 -0.11255083701E+02  0.82017133585E+01  0.13343177540E+03  0.12509000000E+03 0.  0.
         25    1    4    4    0    0  0.42207570885E+02  0.61394746482E+02  0.48773415995E+02  0.15354852049E+03  0.12509000000E+03 0.  0.
<mgrwt>
<rscale>  2 0.47227733E+03</rscale>
<asrwt>0</asrwt>
<pdfrwt beam="1">  1       21 0.31944729E-01 0.47227733E+03</pdfrwt>
<pdfrwt beam="2">  1       21 0.37750019E-01 0.47227733E+03</pdfrwt>
<totfact> 0.58667036E+04</totfact>
</mgrwt>
</event>
<event>
 7    0  0.4831799E-002  0.4455387E+03  0.7546771E-02  0.1029061E+00
         21   -1    0    0  502  501  0.00000000000E+00  0.00000000000E+00  0.10782424569E+04  0.10782424569E+04  0.00000000000E+00 0.  1.
         21   -1    0    0  501  502 -0.00000000000E+00 -0.00000000000E+00 -0.46025070448E+02  0.46025070448E+02  0.00000000000E+00 0.  1.
      99926    2    1    2    0    0  0.00000000000E+00  0.00000000000E+00  0.10322173865E+04  0.11242675274E+04  0.44553870781E+03 0.  0.
      99925    2    3    3    0    0 -0.52848652594E+02  0.76684655954E+02  0.54410474914E+03  0.61184682974E+03  0.26388074670E+03 0.  0.
         25    1    3    3    0    0  0.52848652594E+02 -0.76684655954E+02  0.48811263733E+03  0.51242069763E+03  0.12509000000E+03 0.  0.
         25    1    4    4    0    0  0.45896232225E+01  0.45266420886E+02  0.32489205090E+03  0.35110178914E+03  0.12509000000E+03 0.  0.
         25    1    4    4    0    0 -0.57438275816E+02  0.31418235069E+02  0.21921269824E+03  0.26074504060E+03  0.12509000000E+03 0.  0.
<mgrwt>
<rscale>  2 0.44553871E+03</rscale>
<asrwt>0</asrwt>
<pdfrwt beam="1">  1       21 0.15856505E+00 0.44553871E+03</pdfrwt>
<pdfrwt beam="2">  1       21 0.67683934E-02 0.44553871E+03</pdfrwt>
<totfact> 0.37331665E+04</totfact>
</mgrwt>
</event>
<event>
 6    0  0.4831799E-002  0.4581826E+03  0.7546771E-02  0.1025310E+00
         21   -1    0    0  502  501  0.00000000000E+00  0.00000000000E+00  0.86498475756E+02  0.86498475756E+02  0.00000000000E+00 0.  1.
         21   -1    0    0  501  502 -0.00000000000E+00 -0.00000000000E+00 -0.60674844256E+03  0.60674844256E+03  0.00000000000E+00 0.  1.
      99926    2    1    2    0    0  0.00000000000E+00  0.00000000000E+00 -0.52024996681E+03  0.69324691832E+03  0.45818256383E+03 0.  0.
         25    1    3    3    0    0  0.82893961559E+02  0.29576121816E+02 -0.26264520925E+03  0.30393448289E+03  0.12509000000E+03 0.  0.
         25    1    3    3    0    0  0.21861226185E+01 -0.98766123958E+01 -0.17640067472E+03  0.21648795058E+03  0.12509000000E+03 0.  0.
         25    1    3    3    0    0 -0.85080084177E+02 -0.19699509420E+02 -0.81204082834E+02  0.17282448485E+03  0.12509000000E+03 0.  0.
<mgrwt>
<rscale>  2 0.45818256E+03</rscale>
<asrwt>0</asrwt>
<pdfrwt beam="1">  1       21 0.12720364E-01 0.45818256E+03</pdfrwt>
<pdfrwt beam="2">  1       21 0.89227712E-01 0.45818256E+03</pdfrwt>
<totfact> 0.51957322E+04</totfact>
</mgrwt>
</event>
<event>
 7    0  0.4831799E-002  0.4540827E+03  0.7546771E-02  0.1026511E+00
         21   -1    0    0  502  501  0.00000000000E+00  0.00000000000E+00  0.17815625700E+02  0.17815625700E+02  0.00000000000E+00 0. -1.
         21   -1    0    0  501  502 -0.00000000000E+00 -0.00000000000E+00 -0.28934023167E+04  0.28934023167E+04  0.00000000000E+00 0. -1.
      99926    2    1    2    0    0  0.14210854715E-13 -0.71054273576E-14 -0.28755866910E+04  0.29112179424E+04  0.45408269147E+03 0.  0.
      99925    2    3    3    0    0 -0.98560908908E+02  0.52083381840E+02 -0.17257189738E+04  0.17492066660E+04  0.26304192110E+03 0.  0.
         25    1    3    3    0    0  0.98560908908E+02 -0.52083381840E+02 -0.11498677171E+04  0.11620112764E+04  0.12509000000E+03 0.  0.
         25    1    4    4    0    0 -0.33434183660E+02  0.34874966290E+02 -0.61576887599E+03  0.63020070188E+03  0.12509000000E+03 0.  0.
         25    1    4    4    0    0 -0.65126725248E+02  0.17208415551E+02 -0.11099500979E+04  0.11190059641E+04  0.12509000000E+03 0.  0.
<mgrwt>
<rscale>  2 0.45408269E+03</rscale>
<asrwt>0</asrwt>
<pdfrwt beam="1">  1       21 0.26199489E-02 0.45408269E+03</pdfrwt>
<pdfrwt beam="2">  1       21 0.42549970E+00 0.45408269E+03</pdfrwt>
<totfact> 0.37997162E+03</totfact>
</mgrwt>
</event>
<event>
 7    0  0.4831799E-002  0.4579833E+03  0.7546771E-02  0.1025368E+00
         21   -1    0    0  502  501  0.00000000000E+00  0.00000000000E+00  0.86646480252E+02  0.86646480252E+02  0.00000000000E+00 0. -1.
         21   -1    0    0  501  502 -0.00000000000E+00 -0.00000000000E+00 -0.60518536181E+03  0.60518536181E+03  0.00000000000E+00 0. -1.
      99926    2    1    2    0    0  0.00000000000E+00  0.00000000000E+00 -0.51853888156E+03  0.69183184206E+03  0.45798332503E+03 0.  0.
      99925    2    3    3    0    0  0.81820884086E+02  0.81306358572E+02 -0.34710518854E+03  0.45029012679E+03  0.26262864534E+03 0.  0.
         25    1    4    4    0    0  0.66130793496E+02  0.34357379344E+02 -0.13172633148E+03  0.19634929557E+03  0.12509000000E+03 0.  0.
         25    1    4    4    0    0  0.15690090591E+02  0.46948979228E+02 -0.21537885706E+03  0.25394083122E+03  0.12509000000E+03 0.  0.
         25    1    3    3    0    0 -0.81820884086E+02 -0.81306358572E+02 -0.17143369302E+03  0.24154171528E+03  0.12509000000E+03 0.  0.
<mgrwt>
<rscale>  2 0.45798333E+03</rscale>
<asrwt>0</asrwt>
<pdfrwt beam="1">  1       21 0.12742130E-01 0.45798333E+03</pdfrwt>
<pdfrwt beam="2">  1       21 0.88997846E-01 0.45798333E+03</pdfrwt>
<totfact> 0.52114098E+04</totfact>
</mgrwt>
</event>
<event>
 7    0  0.4831799E-002  0.4332647E+03  0.7546771E-02  0.1032834E+00
         21   -1    0    0  502  501  0.00000000000E+00  0.00000000000E+00  0.25431483680E+03  0.25431483680E+03  0.00000000000E+00 0.  1.
         21   -1    0    0  501  502 -0.00000000000E+00 -0.00000000000E+00 -0.18453333807E+03  0.18453333807E+03  0.00000000000E+00 0.  1.
      99926    2    1    2    0    0 -0.71054273576E-14  0.00000000000E+00  0.69781498734E+02  0.43884817487E+03  0.43326465702E+03 0.  0.
      99925    2    3    3    0    0 -0.53557823956E+02 -0.32464150449E+02  0.11178291290E+03  0.29278658354E+03  0.26326071168E+03 0.  0.
         25    1    4    4    0    0 -0.21295785055E+02  0.27154480438E+01  0.15474904363E+02  0.12785876929E+03  0.12509000000E+03 0.  0.
         25    1    3    3    0    0  0.53557823956E+02  0.32464150449E+02 -0.42001414166E+02  0.14606159133E+03  0.12509000000E+03 0.  0.
         25    1    4    4    0    0 -0.32262038901E+02 -0.35179598493E+02  0.96308008537E+02  0.16492781425E+03  0.12509000000E+03 0.  0.
<mgrwt>
<rscale>  2 0.43326466E+03</rscale>
<asrwt>0</asrwt>
<pdfrwt beam="1">  1       21 0.37399241E-01 0.43326466E+03</pdfrwt>
<pdfrwt beam="2">  1       21 0.27137256E-01 0.43326466E+03</pdfrwt>
<totfact> 0.83274678E+04</totfact>
</mgrwt>
</event>
<event>
 7    0  0.4831799E-002  0.4578216E+03  0.7546771E-02  0.1025415E+00
         21   -1    0    0  502  501  0.00000000000E+00  0.00000000000E+00  0.16867426085E+03  0.16867426085E+03  0.00000000000E+00 0. -1.
         21   -1    0    0  501  502 -0.00000000000E+00 -0.00000000000E+00 -0.31065889412E+03  0.31065889412E+03  0.00000000000E+00 0. -1.
      99926    2    1    2    0    0  0.00000000000E+00  0.00000000000E+00 -0.14198463328E+03  0.47933315497E+03  0.45782162178E+03 0.  0.
      99925    2    3    3    0    0  0.79888732088E+02  0.77019093649E+02 -0.12513138300E+03  0.31126861247E+03  0.26251882941E+03 0.  0.
         25    1    3    3    0    0 -0.79888732088E+02 -0.77019093649E+02 -0.16853250273E+02  0.16806454250E+03  0.12509000000E+03 0.  0.
         25    1    4    4    0    0  0.55100801244E+02  0.12926356233E+01 -0.60750339302E+02  0.14958569795E+03  0.12509000000E+03 0.  0.
         25    1    4    4    0    0  0.24787930844E+02  0.75726458026E+02 -0.64381043702E+02  0.16168291452E+03  0.12509000000E+03 0.  0.
<mgrwt>
<rscale>  2 0.45782162E+03</rscale>
<asrwt>0</asrwt>
<pdfrwt beam="1">  1       21 0.24805039E-01 0.45782162E+03</pdfrwt>
<pdfrwt beam="2">  1       21 0.45685131E-01 0.45782162E+03</pdfrwt>
<totfact> 0.65274577E+04</totfact>
</mgrwt>
</event>
<event>
 7    0  0.4831799E-002  0.4545903E+03  0.7546771E-02  0.1026362E+00
         21   -1    0    0  502  501  0.00000000000E+00  0.00000000000E+00  0.10139815030E+03  0.10139815030E+03  0.00000000000E+00 0. -1.
         21   -1    0    0  501  502 -0.00000000000E+00 -0.00000000000E+00 -0.50950724843E+03  0.50950724843E+03  0.00000000000E+00 0. -1.
      99926    2    1    2    0    0 -0.14210854715E-13  0.00000000000E+00 -0.40810909813E+03  0.61090539874E+03  0.45459033230E+03 0.  0.
      99925    2    3    3    0    0  0.10791844437E+03  0.32842794296E+02 -0.24956160242E+03  0.37958342340E+03  0.26282606825E+03 0.  0.
         25    1    4    4    0    0  0.96201993309E+02  0.10375863671E+02 -0.14573966118E+03  0.21505822236E+03  0.12509000000E+03 0.  0.
         25    1    3    3    0    0 -0.10791844437E+03 -0.32842794296E+02 -0.15854749572E+03  0.23132197533E+03  0.12509000000E+03 0.  0.
         25    1    4    4    0    0  0.11716451061E+02  0.22466930624E+02 -0.10382194123E+03  0.16452520104E+03  0.12509000000E+03 0.  0.
<mgrwt>
<rscale>  2 0.45459033E+03</rscale>
<asrwt>0</asrwt>
<pdfrwt beam="1">  1       21 0.14911493E-01 0.45459033E+03</pdfrwt>
<pdfrwt beam="2">  1       21 0.74927537E-01 0.45459033E+03</pdfrwt>
<totfact> 0.58200083E+04</totfact>
</mgrwt>
</event>
<event>
 7    0  0.4831799E-002  0.4575129E+03  0.7546771E-02  0.1025505E+00
         21   -1    0    0  502  501  0.00000000000E+00  0.00000000000E+00  0.60437454333E+03  0.60437454333E+03  0.00000000000E+00 0. -1.
         21   -1    0    0  501  502 -0.00000000000E+00 -0.00000000000E+00 -0.86584583459E+02  0.86584583459E+02  0.00000000000E+00 0. -1.
      99926    2    1    2    0    0  0.00000000000E+00  0.00000000000E+00  0.51778995987E+03  0.69095912679E+03  0.45751292042E+03 0.  0.
      99925    2    3    3    0    0  0.11309219165E+03  0.25081502749E+02  0.33241771605E+03  0.43910737978E+03  0.26247824184E+03 0.  0.
         25    1    3    3    0    0 -0.11309219165E+03 -0.25081502749E+02  0.18537224382E+03  0.25185174701E+03  0.12509000000E+03 0.  0.
         25    1    4    4    0    0  0.80160576600E+02  0.28570949550E+02  0.13331140600E+03  0.20164686030E+03  0.12509000000E+03 0.  0.
         25    1    4    4    0    0  0.32931615053E+02 -0.34894468009E+01  0.19910631005E+03  0.23746051948E+03  0.12509000000E+03 0.  0.
<mgrwt>
<rscale>  2 0.45751292E+03</rscale>
<asrwt>0</asrwt>
<pdfrwt beam="1">  1       21 0.88878607E-01 0.45751292E+03</pdfrwt>
<pdfrwt beam="2">  1       21 0.12733027E-01 0.45751292E+03</pdfrwt>
<totfact> 0.52353332E+04</totfact>
</mgrwt>
</event>
<event>
 7    0  0.4831799E-002  0.4860540E+03  0.7546771E-02  0.1017485E+00
         21   -1    0    0  502  501  0.00000000000E+00  0.00000000000E+00  0.34633312195E+03  0.34633312195E+03  0.00000000000E+00 0. -1.
         21   -1    0    0  501  502 -0.00000000000E+00 -0.00000000000E+00 -0.17053556837E+03  0.17053556837E+03  0.00000000000E+00 0. -1.
      99926    2    1    2    0    0  0.00000000000E+00  0.00000000000E+00  0.17579755359E+03  0.51686869032E+03  0.48605397147E+03 0.  0.
      99925    2    3    3    0    0 -0.17426287983E+02  0.30679130358E+02 -0.36600757715E+02  0.26785978426E+03  0.26299118618E+03 0.  0.
         25    1    4    4    0    0 -0.35548518535E+01  0.54125699334E+02 -0.73714873758E+01  0.13654330898E+03  0.12509000000E+03 0.  0.
         25    1    4    4    0    0 -0.13871436129E+02 -0.23446568976E+02 -0.29229270339E+02  0.13131647529E+03  0.12509000000E+03 0.  0.
         25    1    3    3    0    0  0.17426287983E+02 -0.30679130358E+02  0.21239831130E+03  0.24900890606E+03  0.12509000000E+03 0.  0.
<mgrwt>
<rscale>  2 0.48605397E+03</rscale>
<asrwt>0</asrwt>
<pdfrwt beam="1">  1       21 0.50931341E-01 0.48605397E+03</pdfrwt>
<pdfrwt beam="2">  1       21 0.25078760E-01 0.48605397E+03</pdfrwt>
<totfact> 0.50466103E+04</totfact>
</mgrwt>
</event>
<event>
 7    0  0.4831799E-002  0.4568148E+03  0.7546771E-02  0.1025709E+00
         21   -1    0    0  502  501  0.00000000000E+00  0.00000000000E+00  0.95668441628E+03  0.95668441628E+03  0.00000000000E+00 0.  1.
         21   -1    0    0  501  502 -0.00000000000E+00 -0.00000000000E+00 -0.54532028107E+02  0.54532028107E+02  0.00000000000E+00 0.  1.
      99926    2    1    2    0    0 -0.71054273576E-14  0.00000000000E+00  0.90215238817E+03  0.10112164444E+04  0.45681480483E+03 0.  0.
      99925    2    3    3    0    0 -0.62593099719E+02 -0.96393968807E+02  0.56454687511E+03  0.63328168295E+03  0.26291219523E+03 0.  0.
         25    1    4    4    0    0 -0.67126396197E+02 -0.72323860859E+02  0.32366405083E+03  0.36075285143E+03  0.12509000000E+03 0.  0.
         25    1    3    3    0    0  0.62593099719E+02  0.96393968807E+02  0.33760551306E+03  0.37793476144E+03  0.12509000000E+03 0.  0.
         25    1    4    4    0    0  0.45332964781E+01 -0.24070107948E+02  0.24088282428E+03  0.27252883151E+03  0.12509000000E+03 0.  0.
<mgrwt>
<rscale>  2 0.45681480E+03</rscale>
<asrwt>0</asrwt>
<pdfrwt beam="1">  1       21 0.14068887E+00 0.45681480E+03</pdfrwt>
<pdfrwt beam="2">  1       21 0.80194165E-02 0.45681480E+03</pdfrwt>
<totfact> 0.38189263E+04</totfact>
</mgrwt>
</event>
<event>
 7    0  0.4831799E-002  0.4519388E+03  0.7546771E-02  0.1027145E+00
         21   -1    0    0  502  501  0.00000000000E+00  0.00000000000E+00  0.84176778959E+02  0.84176778959E+02  0.00000000000E+00 0.  1.
         21   -1    0    0  501  502 -0.00000000000E+00 -0.00000000000E+00 -0.60660644926E+03  0.60660644926E+03  0.00000000000E+00 0.  1.
      99926    2    1    2    0    0 -0.35527136788E-14  0.14210854715E-13 -0.52242967030E+03  0.69078322822E+03  0.45193883212E+03 0.  0.
      99925    2    3    3    0    0  0.15522587350E+02 -0.80487765090E+02 -0.21668531468E+03  0.35042114140E+03  0.26291295080E+03 0.  0.
         25    1    3    3    0    0 -0.15522587350E+02  0.80487765090E+02 -0.30574435562E+03  0.34036208681E+03  0.12509000000E+03 0.  0.
         25    1    4    4    0    0  0.43250150749E+02 -0.51238970789E+02 -0.91148187450E+02  0.16867574764E+03  0.12509000000E+03 0.  0.
         25    1    4    4    0    0 -0.27727563399E+02 -0.29248794301E+02 -0.12553712723E+03  0.18174539376E+03  0.12509000000E+03 0.  0.
<mgrwt>
<rscale>  2 0.45193883E+03</rscale>
<asrwt>0</asrwt>
<pdfrwt beam="1">  1       21 0.12378939E-01 0.45193883E+03</pdfrwt>
<pdfrwt beam="2">  1       21 0.89206827E-01 0.45193883E+03</pdfrwt>
<totfact> 0.54712846E+04</totfact>
</mgrwt>
</event>
<event>
 7    0  0.4831799E-002  0.4538135E+03  0.7546771E-02  0.1026591E+00
         21   -1    0    0  502  501  0.00000000000E+00  0.00000000000E+00  0.14828427837E+03  0.14828427837E+03  0.00000000000E+00 0.  1.
         21   -1    0    0  501  502 -0.00000000000E+00 -0.00000000000E+00 -0.34721605826E+03  0.34721605826E+03  0.00000000000E+00 0.  1.
      99926    2    1    2    0    0  0.00000000000E+00  0.00000000000E+00 -0.19893177989E+03  0.49550033663E+03  0.45381354161E+03 0.  0.
      99925    2    3    3    0    0 -0.56917422262E+02  0.92711001063E+02 -0.15440748926E+03  0.32384707208E+03  0.26305955729E+03 0.  0.
         25    1    4    4    0    0 -0.49893106154E+02  0.76996462851E+02 -0.60601158413E+02  0.16654664762E+03  0.12509000000E+03 0.  0.
         25    1    4    4    0    0 -0.70243161074E+01  0.15714538213E+02 -0.93806330845E+02  0.15730042446E+03  0.12509000000E+03 0.  0.
         25    1    3    3    0    0  0.56917422262E+02 -0.92711001063E+02 -0.44524290636E+02  0.17165326455E+03  0.12509000000E+03 0.  0.
<mgrwt>
<rscale>  2 0.45381354E+03</rscale>
<asrwt>0</asrwt>
<pdfrwt beam="1">  1       21 0.21806512E-01 0.45381354E+03</pdfrwt>
<pdfrwt beam="2">  1       21 0.51061184E-01 0.45381354E+03</pdfrwt>
<totfact> 0.66209350E+04</totfact>
</mgrwt>
</event>
<event>
 7    0  0.4831799E-002  0.4660685E+03  0.7546771E-02  0.1023036E+00
         21   -1    0    0  502  501  0.00000000000E+00  0.00000000000E+00  0.21710987994E+03  0.21710987994E+03  0.00000000000E+00 0. -1.
         21   -1    0    0  501  502 -0.00000000000E+00 -0.00000000000E+00 -0.25012664063E+03  0.25012664063E+03  0.00000000000E+00 0. -1.
      99926    2    1    2    0    0  0.00000000000E+00  0.00000000000E+00 -0.33016760687E+02  0.46723652058E+03  0.46606851393E+03 0.  0.
      99925    2    3    3    0    0 -0.63717766092E+01 -0.57606449722E+02 -0.12962555722E+03  0.29889202184E+03  0.26301055692E+03 0.  0.
         25    1    3    3    0    0  0.63717766092E+01  0.57606449722E+02  0.96608796530E+02  0.16834449873E+03  0.12509000000E+03 0.  0.
         25    1    4    4    0    0 -0.17010929945E+02 -0.27179017982E+02 -0.22508699537E+02  0.13108096891E+03  0.12509000000E+03 0.  0.
         25    1    4    4    0    0  0.10639153336E+02 -0.30427431740E+02 -0.10711685768E+03  0.16781105293E+03  0.12509000000E+03 0.  0.
<mgrwt>
<rscale>  2 0.46606851E+03</rscale>
<asrwt>0</asrwt>
<pdfrwt beam="1">  1       21 0.31927924E-01 0.46606851E+03</pdfrwt>
<pdfrwt beam="2">  1       21 0.36783329E-01 0.46606851E+03</pdfrwt>
<totfact> 0.61999567E+04</totfact>
</mgrwt>
</event>
<event>
 7    0  0.4831799E-002  0.4610683E+03  0.7546771E-02  0.1024472E+00
         21   -1    0    0  502  501  0.00000000000E+00  0.00000000000E+00  0.44457734020E+03  0.44457734020E+03  0.00000000000E+00 0. -1.
         21   -1    0    0  501  502 -0.00000000000E+00 -0.00000000000E+00 -0.11954274605E+03  0.11954274605E+03  0.00000000000E+00 0. -1.
      99926    2    1    2    0    0  0.00000000000E+00  0.00000000000E+00  0.32503459414E+03  0.56412008625E+03  0.46106830765E+03 0.  0.
      99925    2    3    3    0    0  0.11308807018E+03 -0.85992858037E+01  0.24654389188E+03  0.37791815883E+03  0.26301213815E+03 0.  0.
         25    1    4    4    0    0  0.95527355376E+02 -0.19597222392E+02  0.15274252281E+03  0.22019834951E+03  0.12509000000E+03 0.  0.
         25    1    3    3    0    0 -0.11308807018E+03  0.85992858037E+01  0.78490702265E+02  0.18620192742E+03  0.12509000000E+03 0.  0.
         25    1    4    4    0    0  0.17560714807E+02  0.10997936589E+02  0.93801369065E+02  0.15771980932E+03  0.12509000000E+03 0.  0.
<mgrwt>
<rscale>  2 0.46106831E+03</rscale>
<asrwt>0</asrwt>
<pdfrwt beam="1">  1       21 0.65379020E-01 0.46106831E+03</pdfrwt>
<pdfrwt beam="2">  1       21 0.17579816E-01 0.46106831E+03</pdfrwt>
<totfact> 0.58103655E+04</totfact>
</mgrwt>
</event>
<event>
 7    0  0.4831799E-002  0.4488846E+03  0.7546771E-02  0.1028055E+00
         21   -1    0    0  502  501  0.00000000000E+00  0.00000000000E+00  0.20083952726E+03  0.20083952726E+03  0.00000000000E+00 0.  1.
         21   -1    0    0  501  502 -0.00000000000E+00 -0.00000000000E+00 -0.25081890560E+03  0.25081890560E+03  0.00000000000E+00 0.  1.
      99926    2    1    2    0    0 -0.35527136788E-14  0.00000000000E+00 -0.49979378347E+02  0.45165843286E+03  0.44888461960E+03 0.  0.
      99925    2    3    3    0    0  0.21547554250E+02 -0.39485869062E+02 -0.12952490080E+03  0.29674416885E+03  0.26316719186E+03 0.  0.
         25    1    3    3    0    0 -0.21547554250E+02  0.39485869062E+02  0.79545522458E+02  0.15491426401E+03  0.12509000000E+03 0.  0.
         25    1    4    4    0    0 -0.28854521204E+02 -0.14316501899E+02 -0.72940916413E+02  0.14834227654E+03  0.12509000000E+03 0.  0.
         25    1    4    4    0    0  0.50402075455E+02 -0.25169367163E+02 -0.56583984392E+02  0.14840189232E+03  0.12509000000E+03 0.  0.
<mgrwt>
<rscale>  2 0.44888462E+03</rscale>
<asrwt>0</asrwt>
<pdfrwt beam="1">  1       21 0.29535225E-01 0.44888462E+03</pdfrwt>
<pdfrwt beam="2">  1       21 0.36885133E-01 0.44888462E+03</pdfrwt>
<totfact> 0.72252700E+04</totfact>
</mgrwt>
</event>
<event>
 7    0  0.4831799E-002  0.4605963E+03  0.7546771E-02  0.1024608E+00
         21   -1    0    0  502  501  0.00000000000E+00  0.00000000000E+00  0.10884464485E+04  0.10884464485E+04  0.00000000000E+00 0.  1.
         21   -1    0    0  501  502 -0.00000000000E+00 -0.00000000000E+00 -0.48727458239E+02  0.48727458239E+02  0.00000000000E+00 0.  1.
      99926    2    1    2    0    0 -0.35527136788E-14  0.00000000000E+00  0.10397189903E+04  0.11371739067E+04  0.46059626080E+03 0.  0.
      99925    2    3    3    0    0 -0.19181228775E+02 -0.44472815640E+02  0.38450127124E+03  0.46836637217E+03  0.26302106405E+03 0.  0.
         25    1    4    4    0    0  0.13702486634E+02 -0.16840448484E+02  0.24617602922E+03  0.27698646954E+03  0.12509000000E+03 0.  0.
         25    1    4    4    0    0 -0.32883715409E+02 -0.27632367155E+02  0.13832524202E+03  0.19137990264E+03  0.12509000000E+03 0.  0.
         25    1    3    3    0    0  0.19181228775E+02  0.44472815640E+02  0.65521771903E+03  0.66880753457E+03  0.12509000000E+03 0.  0.
<mgrwt>
<rscale>  2 0.46059626E+03</rscale>
<asrwt>0</asrwt>
<pdfrwt beam="1">  1       21 0.16006564E+00 0.46059626E+03</pdfrwt>
<pdfrwt beam="2">  1       21 0.71658034E-02 0.46059626E+03</pdfrwt>
<totfact> 0.32760930E+04</totfact>
</mgrwt>
</event>
<event>
 7    0  0.4831799E-002  0.4162471E+03  0.7546771E-02  0.1038295E+00
         21   -1    0    0  502  501  0.00000000000E+00  0.00000000000E+00  0.73986491307E+03  0.73986491307E+03  0.00000000000E+00 0.  1.
         21   -1    0    0  501  502 -0.00000000000E+00 -0.00000000000E+00 -0.58545029572E+02  0.58545029572E+02  0.00000000000E+00 0.  1.
      99926    2    1    2    0    0  0.71054273576E-14  0.00000000000E+00  0.68131988349E+03  0.79840994264E+03  0.41624710553E+03 0.  0.
      99925    2    3    3    0    0  0.41049392692E+02  0.46726909653E+02  0.51147736822E+03  0.57849531188E+03  0.26301952578E+03 0.  0.
         25    1    4    4    0    0 -0.16993486173E+02  0.39065576495E+02  0.25315013799E+03  0.28556505092E+03  0.12509000000E+03 0.  0.
         25    1    3    3    0    0 -0.41049392692E+02 -0.46726909653E+02  0.16984251527E+03  0.21991463076E+03  0.12509000000E+03 0.  0.
         25    1    4    4    0    0  0.58042878864E+02  0.76613331585E+01  0.25832723022E+03  0.29293026096E+03  0.12509000000E+03 0.  0.
<mgrwt>
<rscale>  2 0.41624711E+03</rscale>
<asrwt>0</asrwt>
<pdfrwt beam="1">  1       21 0.10880366E+00 0.41624711E+03</pdfrwt>
<pdfrwt beam="2">  1       21 0.86095637E-02 0.41624711E+03</pdfrwt>
<totfact> 0.65641587E+04</totfact>
</mgrwt>
</event>
<event>
 7    0  0.4831799E-002  0.4516485E+03  0.7546771E-02  0.1027232E+00
         21   -1    0    0  502  501  0.00000000000E+00  0.00000000000E+00  0.20287186463E+04  0.20287186463E+04  0.00000000000E+00 0. -1.
         21   -1    0    0  501  502 -0.00000000000E+00 -0.00000000000E+00 -0.25137341626E+02  0.25137341626E+02  0.00000000000E+00 0. -1.
      99926    2    1    2    0    0  0.00000000000E+00  0.00000000000E+00  0.20035813047E+04  0.20538559880E+04  0.45164850792E+03 0.  0.
      99925    2    3    3    0    0 -0.10754954089E+03  0.17493824804E+02  0.12076404718E+04  0.12408109368E+04  0.26333122501E+03 0.  0.
         25    1    4    4    0    0 -0.96724554006E+02  0.91218685324E+01  0.62757190276E+03  0.64725022137E+03  0.12509000000E+03 0.  0.
         25    1    3    3    0    0  0.10754954089E+03 -0.17493824804E+02  0.79594083290E+03  0.81304505117E+03  0.12509000000E+03 0.  0.
         25    1    4    4    0    0 -0.10824986879E+02  0.83719562715E+01  0.58006856906E+03  0.59356071543E+03  0.12509000000E+03 0.  0.
<mgrwt>
<rscale>  2 0.45164851E+03</rscale>
<asrwt>0</asrwt>
<pdfrwt beam="1">  1       21 0.29834086E+00 0.45164851E+03</pdfrwt>
<pdfrwt beam="2">  1       21 0.36966693E-02 0.45164851E+03</pdfrwt>
<totfact> 0.13190209E+04</totfact>
</mgrwt>
</event>
<event>
 7    0  0.4831799E-002  0.4365849E+03  0.7546771E-02  0.1031800E+00
         21   -1    0    0  502  501  0.00000000000E+00  0.00000000000E+00  0.18404325757E+04  0.18404325757E+04  0.00000000000E+00 0.  1.
         21   -1    0    0  501  502 -0.00000000000E+00 -0.00000000000E+00 -0.25891518794E+02  0.25891518794E+02  0.00000000000E+00 0.  1.
      99926    2    1    2    0    0  0.00000000000E+00  0.00000000000E+00  0.18145410569E+04  0.18663240945E+04  0.43658490410E+03 0.  0.
      99925    2    3    3    0    0  0.58206242872E+02 -0.67354011785E+02  0.12989231744E+04  0.13283335383E+04  0.26333257787E+03 0.  0.
         25    1    3    3    0    0 -0.58206242872E+02  0.67354011785E+02  0.51561788254E+03  0.53799055615E+03  0.12509000000E+03 0.  0.
         25    1    4    4    0    0  0.18257158870E+02 -0.17252938986E+02  0.44531293494E+03  0.46323007877E+03  0.12509000000E+03 0.  0.
         25    1    4    4    0    0  0.39949084002E+02 -0.50101072799E+02  0.85361023942E+03  0.86510345956E+03  0.12509000000E+03 0.  0.
<mgrwt>
<rscale>  2 0.43658490E+03</rscale>
<asrwt>0</asrwt>
<pdfrwt beam="1">  1       21 0.27065176E+00 0.43658490E+03</pdfrwt>
<pdfrwt beam="2">  1       21 0.38075775E-02 0.43658490E+03</pdfrwt>
<totfact> 0.18527334E+04</totfact>
</mgrwt>
</event>
<event>
 7    0  0.4831799E-002  0.4592248E+03  0.7546771E-02  0.1025006E+00
         21   -1    0    0  502  501  0.00000000000E+00  0.00000000000E+00  0.11910150250E+03  0.11910150250E+03  0.00000000000E+00 0.  1.
         21   -1    0    0  501  502 -0.00000000000E+00 -0.00000000000E+00 -0.44266318724E+03  0.44266318724E+03  0.00000000000E+00 0.  1.
      99926    2    1    2    0    0  0.00000000000E+00  0.00000000000E+00 -0.32356168473E+03  0.56176468974E+03  0.45922478462E+03 0.  0.
      99925    2    3    3    0    0  0.10112453794E+03  0.43429775812E+02 -0.15361839356E+03  0.32377194213E+03  0.26290177266E+03 0.  0.
         25    1    4    4    0    0  0.37789129571E+02  0.33372731992E+02 -0.33733521734E+02  0.13902235843E+03  0.12509000000E+03 0.  0.
         25    1    4    4    0    0  0.63335408374E+02  0.10057043820E+02 -0.11988487183E+03  0.18474958370E+03  0.12509000000E+03 0.  0.
         25    1    3    3    0    0 -0.10112453794E+03 -0.43429775812E+02 -0.16994329118E+03  0.23799274761E+03  0.12509000000E+03 0.  0.
<mgrwt>
<rscale>  2 0.45922478E+03</rscale>
<asrwt>0</asrwt>
<pdfrwt beam="1">  1       21 0.17514927E-01 0.45922478E+03</pdfrwt>
<pdfrwt beam="2">  1       21 0.65097526E-01 0.45922478E+03</pdfrwt>
<totfact> 0.59096049E+04</totfact>
</mgrwt>
</event>
<event>
 7    0  0.4831799E-002  0.5055087E+03  0.7546771E-02  0.1012351E+00
         21   -1    0    0  502  501  0.00000000000E+00  0.00000000000E+00  0.54323573247E+03  0.54323573247E+03  0.00000000000E+00 0.  1.
         21   -1    0    0  501  502 -0.00000000000E+00 -0.00000000000E+00 -0.11760043102E+03  0.11760043102E+03  0.00000000000E+00 0.  1.
      99926    2    1    2    0    0  0.14210854715E-13  0.00000000000E+00  0.42563530145E+03  0.66083616349E+03  0.50550867959E+03 0.  0.
      99925    2    3    3    0    0  0.12650493331E+03 -0.76645653428E+02  0.19334068632E+03  0.35836905675E+03  0.26300134126E+03 0.  0.
         25    1    4    4    0    0  0.28930537366E+02 -0.79005928815E+01  0.75931658911E+02  0.14937376036E+03  0.12509000000E+03 0.  0.
         25    1    3    3    0    0 -0.12650493331E+03  0.76645653428E+02  0.23229461513E+03  0.30246710675E+03  0.12509000000E+03 0.  0.
         25    1    4    4    0    0  0.97574395949E+02 -0.68745060547E+02  0.11740902741E+03  0.20899529638E+03  0.12509000000E+03 0.  0.
<mgrwt>
<rscale>  2 0.50550868E+03</rscale>
<asrwt>0</asrwt>
<pdfrwt beam="1">  1       21 0.79887607E-01 0.50550868E+03</pdfrwt>
<pdfrwt beam="2">  1       21 0.17294181E-01 0.50550868E+03</pdfrwt>
<totfact> 0.37672565E+04</totfact>
</mgrwt>
</event>
<event>
 7    0  0.4831799E-002  0.4536297E+03  0.7546771E-02  0.1026645E+00
         21   -1    0    0  502  501  0.00000000000E+00  0.00000000000E+00  0.15211577279E+03  0.15211577279E+03  0.00000000000E+00 0. -1.
         21   -1    0    0  501  502 -0.00000000000E+00 -0.00000000000E+00 -0.33819618322E+03  0.33819618322E+03  0.00000000000E+00 0. -1.
      99926    2    1    2    0    0  0.00000000000E+00  0.00000000000E+00 -0.18608041043E+03  0.49031195601E+03  0.45362968935E+03 0.  0.
      99925    2    3    3    0    0  0.37050667654E+02  0.79104664548E+02 -0.41762039644E+02  0.28029862269E+03  0.26304552838E+03 0.  0.
         25    1    3    3    0    0 -0.37050667654E+02 -0.79104664548E+02 -0.14431837079E+03  0.21001333332E+03  0.12509000000E+03 0.  0.
         25    1    4    4    0    0 -0.20321471810E+02  0.24552660406E+02 -0.22015383470E+02  0.13095029805E+03  0.12509000000E+03 0.  0.
         25    1    4    4    0    0  0.57372139463E+02  0.54552004142E+02 -0.19746656174E+02  0.14934832464E+03  0.12509000000E+03 0.  0.
<mgrwt>
<rscale>  2 0.45362969E+03</rscale>
<asrwt>0</asrwt>
<pdfrwt beam="1">  1       21 0.22369967E-01 0.45362969E+03</pdfrwt>
<pdfrwt beam="2">  1       21 0.49734733E-01 0.45362969E+03</pdfrwt>
<totfact> 0.66679198E+04</totfact>
</mgrwt>
</event>
<event>
 7    0  0.4831799E-002  0.4569771E+03  0.7546771E-02  0.1025662E+00
         21   -1    0    0  502  501  0.00000000000E+00  0.00000000000E+00  0.12009610267E+03  0.12009610267E+03  0.00000000000E+00 0.  1.
         21   -1    0    0  501  502 -0.00000000000E+00 -0.00000000000E+00 -0.43471040529E+03  0.43471040529E+03  0.00000000000E+00 0.  1.
      99926    2    1    2    0    0  0.35527136788E-14  0.00000000000E+00 -0.31461430262E+03  0.55480650797E+03  0.45697713495E+03 0.  0.
      99925    2    3    3    0    0  0.23206265963E+02 -0.10805801018E+03 -0.15958172043E+03  0.32699589806E+03  0.26314430928E+03 0.  0.
         25    1    3    3    0    0 -0.23206265963E+02  0.10805801018E+03 -0.15503258218E+03  0.22781060990E+03  0.12509000000E+03 0.  0.
         25    1    4    4    0    0  0.25739374652E+02 -0.31800831321E+02 -0.11236530170E+03  0.17305281681E+03  0.12509000000E+03 0.  0.
         25    1    4    4    0    0 -0.25331086898E+01 -0.76257178863E+02 -0.47216418739E+02  0.15394308126E+03  0.12509000000E+03 0.  0.
<mgrwt>
<rscale>  2 0.45697713E+03</rscale>
<asrwt>0</asrwt>
<pdfrwt beam="1">  1       21 0.17661191E-01 0.45697713E+03</pdfrwt>
<pdfrwt beam="2">  1       21 0.63928002E-01 0.45697713E+03</pdfrwt>
<totfact> 0.60596635E+04</totfact>
</mgrwt>
</event>
<event>
 7    0  0.4831799E-002  0.4562228E+03  0.7546771E-02  0.1025882E+00
         21   -1    0    0  502  501  0.00000000000E+00  0.00000000000E+00  0.14496266719E+03  0.14496266719E+03  0.00000000000E+00 0.  1.
         21   -1    0    0  501  502 -0.00000000000E+00 -0.00000000000E+00 -0.35895325160E+03  0.35895325160E+03  0.00000000000E+00 0.  1.
      99926    2    1    2    0    0  0.00000000000E+00  0.00000000000E+00 -0.21399058441E+03  0.50391591879E+03  0.45622284357E+03 0.  0.
      99925    2    3    3    0    0  0.35586794480E+02 -0.10839934849E+03 -0.13101300143E+03  0.31536983405E+03  0.26320502843E+03 0.  0.
         25    1    4    4    0    0  0.31340887855E+02 -0.93356144899E+02 -0.89574045274E+02  0.18267084805E+03  0.12509000000E+03 0.  0.
         25    1    3    3    0    0 -0.35586794480E+02  0.10839934849E+03 -0.82977582981E+02  0.18854608474E+03  0.12509000000E+03 0.  0.
         25    1    4    4    0    0  0.42459066252E+01 -0.15043203587E+02 -0.41438956151E+02  0.13269898600E+03  0.12509000000E+03 0.  0.
<mgrwt>
<rscale>  2 0.45622284E+03</rscale>
<asrwt>0</asrwt>
<pdfrwt beam="1">  1       21 0.21318039E-01 0.45622284E+03</pdfrwt>
<pdfrwt beam="2">  1       21 0.52787243E-01 0.45622284E+03</pdfrwt>
<totfact> 0.64369355E+04</totfact>
</mgrwt>
</event>
<event>
 7    0  0.4831799E-002  0.4556743E+03  0.7546771E-02  0.1026043E+00
         21   -1    0    0  502  501  0.00000000000E+00  0.00000000000E+00  0.79969947328E+03  0.79969947328E+03  0.00000000000E+00 0. -1.
         21   -1    0    0  501  502 -0.00000000000E+00 -0.00000000000E+00 -0.64911583691E+02  0.64911583691E+02  0.00000000000E+00 0. -1.
      99926    2    1    2    0    0  0.00000000000E+00 -0.71054273576E-14  0.73478788959E+03  0.86461105698E+03  0.45567426650E+03 0.  0.
      99925    2    3    3    0    0 -0.91210317768E+02  0.56797949626E+02  0.53331801687E+03  0.60425947379E+03  0.26297542738E+03 0.  0.
         25    1    4    4    0    0 -0.25566832529E+02 -0.94757879059E+01  0.24310085468E+03  0.27475259258E+03  0.12509000000E+03 0.  0.
         25    1    3    3    0    0  0.91210317768E+02 -0.56797949626E+02  0.20146987273E+03  0.26035158318E+03  0.12509000000E+03 0.  0.
         25    1    4    4    0    0 -0.65643485239E+02  0.66273737532E+02  0.29021716219E+03  0.32950688122E+03  0.12509000000E+03 0.  0.
<mgrwt>
<rscale>  2 0.45567427E+03</rscale>
<asrwt>0</asrwt>
<pdfrwt beam="1">  1       21 0.11760286E+00 0.45567427E+03</pdfrwt>
<pdfrwt beam="2">  1       21 0.95458216E-02 0.45567427E+03</pdfrwt>
<totfact> 0.44556510E+04</totfact>
</mgrwt>
</event>
<event>
 7    0  0.4831799E-002  0.4439926E+03  0.7546771E-02  0.1029529E+00
         21   -1    0    0  502  501  0.00000000000E+00  0.00000000000E+00  0.16007543685E+03  0.16007543685E+03  0.00000000000E+00 0. -1.
         21   -1    0    0  501  502 -0.00000000000E+00 -0.00000000000E+00 -0.30786960809E+03  0.30786960809E+03  0.00000000000E+00 0. -1.
      99926    2    1    2    0    0  0.00000000000E+00  0.26645352591E-14 -0.14779417124E+03  0.46794504494E+03  0.44399262160E+03 0.  0.
      99925    2    3    3    0    0  0.12421079631E+02 -0.63875359576E+01  0.12979593155E+02  0.26376180554E+03  0.26307173240E+03 0.  0.
         25    1    4    4    0    0 -0.81704010016E+01  0.13391708791E+02  0.40733833167E+02  0.13248715629E+03  0.12509000000E+03 0.  0.
         25    1    3    3    0    0 -0.12421079631E+02  0.63875359576E+01 -0.16077376440E+03  0.20418323940E+03  0.12509000000E+03 0.  0.
         25    1    4    4    0    0  0.20591480632E+02 -0.19779244749E+02 -0.27754240012E+02  0.13127464925E+03  0.12509000000E+03 0.  0.
<mgrwt>
<rscale>  2 0.44399262E+03</rscale>
<asrwt>0</asrwt>
<pdfrwt beam="1">  1       21 0.23540506E-01 0.44399262E+03</pdfrwt>
<pdfrwt beam="2">  1       21 0.45274942E-01 0.44399262E+03</pdfrwt>
<totfact> 0.73829939E+04</totfact>
</mgrwt>
</event>
<event>
 7    0  0.4831799E-002  0.4827897E+03  0.7546771E-02  0.1018371E+00
         21   -1    0    0  502  501  0.00000000000E+00  0.00000000000E+00  0.76448490243E+03  0.76448490243E+03  0.00000000000E+00 0.  1.
         21   -1    0    0  501  502 -0.00000000000E+00 -0.00000000000E+00 -0.76223185320E+02  0.76223185320E+02  0.00000000000E+00 0.  1.
      99926    2    1    2    0    0  0.00000000000E+00 -0.71054273576E-14  0.68826171711E+03  0.84070808775E+03  0.48278970325E+03 0.  0.
      99925    2    3    3    0    0 -0.70366323676E+02 -0.44146307339E+02  0.23155849471E+03  0.35995278886E+03  0.26276673644E+03 0.  0.
         25    1    4    4    0    0 -0.19302297615E+02 -0.57675633107E+02  0.10429621459E+03  0.17385127501E+03  0.12509000000E+03 0.  0.
         25    1    3    3    0    0  0.70366323676E+02  0.44146307339E+02  0.45670322240E+03  0.48075529889E+03  0.12509000000E+03 0.  0.
         25    1    4    4    0    0 -0.51064026061E+02  0.13529325767E+02  0.12726228013E+03  0.18610151385E+03  0.12509000000E+03 0.  0.
<mgrwt>
<rscale>  2 0.48278970E+03</rscale>
<asrwt>0</asrwt>
<pdfrwt beam="1">  1       21 0.11242425E+00 0.48278970E+03</pdfrwt>
<pdfrwt beam="2">  1       21 0.11209292E-01 0.48278970E+03</pdfrwt>
<totfact> 0.37086181E+04</totfact>
</mgrwt>
</event>
<event>
 7    0  0.4831799E-002  0.4626778E+03  0.7546771E-02  0.1024007E+00
         21   -1    0    0  502  501  0.00000000000E+00  0.00000000000E+00  0.11400074740E+04  0.11400074740E+04  0.00000000000E+00 0. -1.
         21   -1    0    0  501  502 -0.00000000000E+00 -0.00000000000E+00 -0.46945023246E+02  0.46945023246E+02  0.00000000000E+00 0. -1.
      99926    2    1    2    0    0  0.00000000000E+00  0.14210854715E-13  0.10930624507E+04  0.11869524972E+04  0.46267775986E+03 0.  0.
      99925    2    3    3    0    0  0.26457974414E+02  0.11529591814E+03  0.73844306605E+03  0.79275002483E+03  0.26298529792E+03 0.  0.
         25    1    3    3    0    0 -0.26457974414E+02 -0.11529591814E+03  0.35461938469E+03  0.39420247240E+03  0.12509000000E+03 0.  0.
         25    1    4    4    0    0  0.37528518718E+02  0.87620266091E+02  0.45749027296E+03  0.48376705003E+03  0.12509000000E+03 0.  0.
         25    1    4    4    0    0 -0.11070544304E+02  0.27675652050E+02  0.28095279309E+03  0.30898297480E+03  0.12509000000E+03 0.  0.
<mgrwt>
<rscale>  2 0.46267776E+03</rscale>
<asrwt>0</asrwt>
<pdfrwt beam="1">  1       21 0.16764814E+00 0.46267776E+03</pdfrwt>
<pdfrwt beam="2">  1       21 0.69036807E-02 0.46267776E+03</pdfrwt>
<totfact> 0.30694659E+04</totfact>
</mgrwt>
</event>
<event>
 7    0  0.4831799E-002  0.4565649E+03  0.7546771E-02  0.1025782E+00
         21   -1    0    0  502  501  0.00000000000E+00  0.00000000000E+00  0.18820475040E+03  0.18820475040E+03  0.00000000000E+00 0.  1.
         21   -1    0    0  501  502 -0.00000000000E+00 -0.00000000000E+00 -0.27689455602E+03  0.27689455602E+03  0.00000000000E+00 0.  1.
      99926    2    1    2    0    0  0.71054273576E-14 -0.14210854715E-13 -0.88689805619E+02  0.46509930641E+03  0.45656487294E+03 0.  0.
      99925    2    3    3    0    0  0.34750912709E+02 -0.76196465664E+02 -0.13550163259E+03  0.30745292188E+03  0.26296973100E+03 0.  0.
         25    1    4    4    0    0 -0.30078309061E+01 -0.48592800063E+02 -0.30709762137E+02  0.13769860150E+03  0.12509000000E+03 0.  0.
         25    1    3    3    0    0 -0.34750912709E+02  0.76196465664E+02  0.46811826968E+02  0.15764638454E+03  0.12509000000E+03 0.  0.
         25    1    4    4    0    0  0.37758743615E+02 -0.27603665601E+02 -0.10479187045E+03  0.16975432038E+03  0.12509000000E+03 0.  0.
<mgrwt>
<rscale>  2 0.45656487E+03</rscale>
<asrwt>0</asrwt>
<pdfrwt beam="1">  1       21 0.27677169E-01 0.45656487E+03</pdfrwt>
<pdfrwt beam="2">  1       21 0.40719787E-01 0.45656487E+03</pdfrwt>
<totfact> 0.66965917E+04</totfact>
</mgrwt>
</event>
<event>
 7    0  0.4831799E-002  0.4539579E+03  0.7546771E-02  0.1026548E+00
         21   -1    0    0  502  501  0.00000000000E+00  0.00000000000E+00  0.14804844109E+04  0.14804844109E+04  0.00000000000E+00 0. -1.
         21   -1    0    0  501  502 -0.00000000000E+00 -0.00000000000E+00 -0.34799041849E+02  0.34799041849E+02  0.00000000000E+00 0. -1.
      99926    2    1    2    0    0  0.00000000000E+00  0.00000000000E+00  0.14456853691E+04  0.15152834527E+04  0.45395787898E+03 0.  0.
      99925    2    3    3    0    0 -0.53560152048E+02  0.18370581528E+02  0.12338835165E+04  0.12628677223E+04  0.26298323801E+03 0.  0.
         25    1    3    3    0    0  0.53560152048E+02 -0.18370581528E+02  0.21180185250E+03  0.25241573045E+03  0.12509000000E+03 0.  0.
         25    1    4    4    0    0 -0.67065654936E+01  0.28312021495E+02  0.74394153824E+03  0.75494573911E+03  0.12509000000E+03 0.  0.
         25    1    4    4    0    0 -0.46853586554E+02 -0.99414399675E+01  0.48994197831E+03  0.50792198319E+03  0.12509000000E+03 0.  0.
<mgrwt>
<rscale>  2 0.45395788E+03</rscale>
<asrwt>0</asrwt>
<pdfrwt beam="1">  1       21 0.21771825E+00 0.45395788E+03</pdfrwt>
<pdfrwt beam="2">  1       21 0.51175072E-02 0.45395788E+03</pdfrwt>
<totfact> 0.23597447E+04</totfact>
</mgrwt>
</event>
<event>
 7    0  0.4831799E-002  0.4237498E+03  0.7546771E-02  0.1035853E+00
         21   -1    0    0  502  501  0.00000000000E+00  0.00000000000E+00  0.61558089735E+03  0.61558089735E+03  0.00000000000E+00 0.  1.
         21   -1    0    0  501  502 -0.00000000000E+00 -0.00000000000E+00 -0.72924557435E+02  0.72924557435E+02  0.00000000000E+00 0.  1.
      99926    2    1    2    0    0  0.00000000000E+00  0.00000000000E+00  0.54265633991E+03  0.68850545478E+03  0.42374975872E+03 0.  0.
      99925    2    3    3    0    0  0.70403036180E+02 -0.38717449812E+02  0.35828034061E+03  0.45165603924E+03  0.26300712327E+03 0.  0.
         25    1    3    3    0    0 -0.70403036180E+02  0.38717449812E+02  0.18437599930E+03  0.23684941554E+03  0.12509000000E+03 0.  0.
         25    1    4    4    0    0  0.92392799284E-02 -0.16556123916E+02  0.13061673953E+03  0.18161042391E+03  0.12509000000E+03 0.  0.
         25    1    4    4    0    0  0.70393796900E+02 -0.22161325896E+02  0.22766360108E+03  0.27004561534E+03  0.12509000000E+03 0.  0.
<mgrwt>
<rscale>  2 0.42374976E+03</rscale>
<asrwt>0</asrwt>
<pdfrwt beam="1">  1       21 0.90526600E-01 0.42374976E+03</pdfrwt>
<pdfrwt beam="2">  1       21 0.10724200E-01 0.42374976E+03</pdfrwt>
<totfact> 0.69003700E+04</totfact>
</mgrwt>
</event>
<event>
 7    0  0.4831799E-002  0.4569286E+03  0.7546771E-02  0.1025676E+00
         21   -1    0    0  502  501  0.00000000000E+00  0.00000000000E+00  0.43856579073E+03  0.43856579073E+03  0.00000000000E+00 0.  1.
         21   -1    0    0  501  502 -0.00000000000E+00 -0.00000000000E+00 -0.11901507135E+03  0.11901507135E+03  0.00000000000E+00 0.  1.
      99926    2    1    2    0    0 -0.71054273576E-14  0.00000000000E+00  0.31955071939E+03  0.55758086208E+03  0.45692861094E+03 0.  0.
      99925    2    3    3    0    0  0.56506716242E+02  0.51211276075E+02  0.95969145363E+02  0.29027610694E+03  0.26312456674E+03 0.  0.
         25    1    4    4    0    0  0.15973671896E+02  0.62396231043E+02  0.35463013657E+02  0.14509852267E+03  0.12509000000E+03 0.  0.
         25    1    3    3    0    0 -0.56506716242E+02 -0.51211276075E+02  0.22358157402E+03  0.26730475514E+03  0.12509000000E+03 0.  0.
         25    1    4    4    0    0  0.40533044347E+02 -0.11184954968E+02  0.60506131706E+02  0.14517758427E+03  0.12509000000E+03 0.  0.
<mgrwt>
<rscale>  2 0.45692861E+03</rscale>
<asrwt>0</asrwt>
<pdfrwt beam="1">  1       21 0.64494969E-01 0.45692861E+03</pdfrwt>
<pdfrwt beam="2">  1       21 0.17502217E-01 0.45692861E+03</pdfrwt>
<totfact> 0.60440941E+04</totfact>
</mgrwt>
</event>
<event>
 7    0  0.4831799E-002  0.4520110E+03  0.7546771E-02  0.1027124E+00
         21   -1    0    0  502  501  0.00000000000E+00  0.00000000000E+00  0.85772224275E+02  0.85772224275E+02  0.00000000000E+00 0. -1.
         21   -1    0    0  501  502 -0.00000000000E+00 -0.00000000000E+00 -0.59551311540E+03  0.59551311540E+03  0.00000000000E+00 0. -1.
      99926    2    1    2    0    0  0.00000000000E+00  0.00000000000E+00 -0.50974089112E+03  0.68128533967E+03  0.45201099320E+03 0.  0.
      99925    2    3    3    0    0  0.93826688397E+02 -0.46318252469E+02 -0.26913768989E+03  0.39062017748E+03  0.26305930694E+03 0.  0.
         25    1    4    4    0    0  0.58729460908E+01 -0.26497531666E+02 -0.10657631941E+03  0.16656119188E+03  0.12509000000E+03 0.  0.
         25    1    4    4    0    0  0.87953742306E+02 -0.19820720803E+02 -0.16256137048E+03  0.22405898560E+03  0.12509000000E+03 0.  0.
         25    1    3    3    0    0 -0.93826688397E+02  0.46318252469E+02 -0.24060320123E+03  0.29066516219E+03  0.12509000000E+03 0.  0.
<mgrwt>
<rscale>  2 0.45201099E+03</rscale>
<asrwt>0</asrwt>
<pdfrwt beam="1">  1       21 0.12613562E-01 0.45201099E+03</pdfrwt>
<pdfrwt beam="2">  1       21 0.87575460E-01 0.45201099E+03</pdfrwt>
<totfact> 0.55219385E+04</totfact>
</mgrwt>
</event>
<event>
 7    0  0.4831799E-002  0.4620080E+03  0.7546771E-02  0.1024200E+00
         21   -1    0    0  502  501  0.00000000000E+00  0.00000000000E+00  0.10217869012E+04  0.10217869012E+04  0.00000000000E+00 0.  1.
         21   -1    0    0  501  502 -0.00000000000E+00 -0.00000000000E+00 -0.52225022665E+02  0.52225022665E+02  0.00000000000E+00 0.  1.
      99926    2    1    2    0    0 -0.35527136788E-14  0.14210854715E-13  0.96956187849E+03  0.10740119238E+04  0.46200798293E+03 0.  0.
      99925    2    3    3    0    0  0.13314294970E+02 -0.11873343245E+03  0.61874488699E+03  0.68286621177E+03  0.26303256370E+03 0.  0.
         25    1    4    4    0    0  0.25354385459E+02 -0.66633023563E+02  0.23366264544E+03  0.27446046102E+03  0.12509000000E+03 0.  0.
         25    1    3    3    0    0 -0.13314294970E+02  0.11873343245E+03  0.35081699151E+03  0.39114571206E+03  0.12509000000E+03 0.  0.
         25    1    4    4    0    0 -0.12040090488E+02 -0.52100408883E+02  0.38508224155E+03  0.40840575075E+03  0.12509000000E+03 0.  0.
<mgrwt>
<rscale>  2 0.46200798E+03</rscale>
<asrwt>0</asrwt>
<pdfrwt beam="1">  1       21 0.15026277E+00 0.46200798E+03</pdfrwt>
<pdfrwt beam="2">  1       21 0.76801510E-02 0.46200798E+03</pdfrwt>
<totfact> 0.34483758E+04</totfact>
</mgrwt>
</event>
<event>
 7    0  0.4831799E-002  0.4543186E+03  0.7546771E-02  0.1026442E+00
         21   -1    0    0  502  501  0.00000000000E+00  0.00000000000E+00  0.31498391878E+02  0.31498391878E+02  0.00000000000E+00 0.  1.
         21   -1    0    0  501  502 -0.00000000000E+00 -0.00000000000E+00 -0.16382215069E+04  0.16382215069E+04  0.00000000000E+00 0.  1.
      99926    2    1    2    0    0  0.00000000000E+00 -0.17763568394E-14 -0.16067231150E+04  0.16697198988E+04  0.45431857989E+03 0.  0.
      99925    2    3    3    0    0 -0.10249857285E+03  0.93721699509E+01 -0.11771105616E+04  0.12105813040E+04  0.26329455843E+03 0.  0.
         25    1    3    3    0    0  0.10249857285E+03 -0.93721699509E+01 -0.42961255347E+03  0.45913859477E+03  0.12509000000E+03 0.  0.
         25    1    4    4    0    0 -0.34778873121E+02  0.42528206577E+02 -0.57561512164E+03  0.59160670612E+03  0.12509000000E+03 0.  0.
         25    1    4    4    0    0 -0.67719699727E+02 -0.33156036626E+02 -0.60149543992E+03  0.61897459790E+03  0.12509000000E+03 0.  0.
<mgrwt>
<rscale>  2 0.45431858E+03</rscale>
<asrwt>0</asrwt>
<pdfrwt beam="1">  1       21 0.46321164E-02 0.45431858E+03</pdfrwt>
<pdfrwt beam="2">  1       21 0.24091493E+00 0.45431858E+03</pdfrwt>
<totfact> 0.20004834E+04</totfact>
</mgrwt>
</event>
<event>
 7    0  0.4831799E-002  0.4525517E+03  0.7546771E-02  0.1026964E+00
         21   -1    0    0  502  501  0.00000000000E+00  0.00000000000E+00  0.35473563126E+03  0.35473563126E+03  0.00000000000E+00 0. -1.
         21   -1    0    0  501  502 -0.00000000000E+00 -0.00000000000E+00 -0.14433496429E+03  0.14433496429E+03  0.00000000000E+00 0. -1.
      99926    2    1    2    0    0  0.00000000000E+00  0.00000000000E+00  0.21040066697E+03  0.49907059556E+03  0.45255167516E+03 0.  0.
      99925    2    3    3    0    0  0.87959402303E+02 -0.27522049187E+02  0.20064461100E+03  0.34338819972E+03  0.26298835742E+03 0.  0.
         25    1    3    3    0    0 -0.87959402303E+02  0.27522049187E+02  0.97560559651E+01  0.15568239584E+03  0.12509000000E+03 0.  0.
         25    1    4    4    0    0  0.65829263182E+02 -0.46900845343E+02  0.91531815011E+02  0.17481064740E+03  0.12509000000E+03 0.  0.
         25    1    4    4    0    0  0.22130139121E+02  0.19378796156E+02  0.10911279599E+03  0.16857755232E+03  0.12509000000E+03 0.  0.
<mgrwt>
<rscale>  2 0.45255168E+03</rscale>
<asrwt>0</asrwt>
<pdfrwt beam="1">  1       21 0.52167005E-01 0.45255168E+03</pdfrwt>
<pdfrwt beam="2">  1       21 0.21225730E-01 0.45255168E+03</pdfrwt>
<totfact> 0.66621391E+04</totfact>
</mgrwt>
</event>
<event>
 7    0  0.4831799E-002  0.4433803E+03  0.7546771E-02  0.1029715E+00
         21   -1    0    0  502  501  0.00000000000E+00  0.00000000000E+00  0.10912179672E+03  0.10912179672E+03  0.00000000000E+00 0.  1.
         21   -1    0    0  501  502 -0.00000000000E+00 -0.00000000000E+00 -0.45038233448E+03  0.45038233448E+03  0.00000000000E+00 0.  1.
      99926    2    1    2    0    0  0.00000000000E+00  0.00000000000E+00 -0.34126053776E+03  0.55950413120E+03  0.44338033132E+03 0.  0.
      99925    2    3    3    0    0  0.69583988520E+02  0.42094602615E+02 -0.13950500015E+03  0.30857248297E+03  0.26294760914E+03 0.  0.
         25    1    4    4    0    0  0.49077853227E+02  0.13669583121E+02 -0.29280607818E+02  0.13820403494E+03  0.12509000000E+03 0.  0.
         25    1    4    4    0    0  0.20506135293E+02  0.28425019493E+02 -0.11022439233E+03  0.17036844802E+03  0.12509000000E+03 0.  0.
         25    1    3    3    0    0 -0.69583988520E+02 -0.42094602615E+02 -0.20175553762E+03  0.25093164824E+03  0.12509000000E+03 0.  0.
<mgrwt>
<rscale>  2 0.44338033E+03</rscale>
<asrwt>0</asrwt>
<pdfrwt beam="1">  1       21 0.16047323E-01 0.44338033E+03</pdfrwt>
<pdfrwt beam="2">  1       21 0.66232696E-01 0.44338033E+03</pdfrwt>
<totfact> 0.67210332E+04</totfact>
</mgrwt>
</event>
<event>
 7    0  0.4831799E-002  0.4590598E+03  0.7546771E-02  0.1025054E+00
         21   -1    0    0  502  501  0.00000000000E+00  0.00000000000E+00  0.93150618155E+02  0.93150618155E+02  0.00000000000E+00 0.  1.
         21   -1    0    0  501  502 -0.00000000000E+00 -0.00000000000E+00 -0.56557848864E+03  0.56557848864E+03  0.00000000000E+00 0.  1.
      99926    2    1    2    0    0  0.00000000000E+00 -0.71054273576E-14 -0.47242787048E+03  0.65872910679E+03  0.45905984722E+03 0.  0.
      99925    2    3    3    0    0 -0.10177398902E+03  0.52227889434E+02 -0.33166858327E+03  0.43839667088E+03  0.26287239231E+03 0.  0.
         25    1    3    3    0    0  0.10177398902E+03 -0.52227889434E+02 -0.14075928722E+03  0.22033243591E+03  0.12509000000E+03 0.  0.
         25    1    4    4    0    0 -0.28099723054E+02  0.48157021131E+01 -0.19519443643E+03  0.23358330749E+03  0.12509000000E+03 0.  0.
         25    1    4    4    0    0 -0.73674265964E+02  0.47412187320E+02 -0.13647414683E+03  0.20481336340E+03  0.12509000000E+03 0.  0.
<mgrwt>
<rscale>  2 0.45905985E+03</rscale>
<asrwt>0</asrwt>
<pdfrwt beam="1">  1       21 0.13698620E-01 0.45905985E+03</pdfrwt>
<pdfrwt beam="2">  1       21 0.83173307E-01 0.45905985E+03</pdfrwt>
<totfact> 0.53468562E+04</totfact>
</mgrwt>
</event>
<event>
 7    0  0.4831799E-002  0.4506740E+03  0.7546771E-02  0.1027521E+00
         21   -1    0    0  502  501  0.00000000000E+00  0.00000000000E+00  0.57229528013E+03  0.57229528013E+03  0.00000000000E+00 0. -1.
         21   -1    0    0  501  502 -0.00000000000E+00 -0.00000000000E+00 -0.88724780368E+02  0.88724780368E+02  0.00000000000E+00 0. -1.
      99926    2    1    2    0    0 -0.71054273576E-14  0.00000000000E+00  0.48357049976E+03  0.66102006049E+03  0.45067404201E+03 0.  0.
      99925    2    3    3    0    0 -0.57342851334E+02 -0.71864229482E+02  0.39087798347E+03  0.48021054538E+03  0.26337027140E+03 0.  0.
         25    1    4    4    0    0 -0.47685434283E+02 -0.71544776411E+02  0.24015148661E+03  0.28409998292E+03  0.12509000000E+03 0.  0.
         25    1    3    3    0    0  0.57342851334E+02  0.71864229482E+02  0.92692516289E+02  0.18080951511E+03  0.12509000000E+03 0.  0.
         25    1    4    4    0    0 -0.96574170510E+01 -0.31945307040E+00  0.15072649686E+03  0.19611056246E+03  0.12509000000E+03 0.  0.
<mgrwt>
<rscale>  2 0.45067404E+03</rscale>
<asrwt>0</asrwt>
<pdfrwt beam="1">  1       21 0.84161069E-01 0.45067404E+03</pdfrwt>
<pdfrwt beam="2">  1       21 0.13047762E-01 0.45067404E+03</pdfrwt>
<totfact> 0.56989705E+04</totfact>
</mgrwt>
</event>
<event>
 7    0  0.4831799E-002  0.4568842E+03  0.7546771E-02  0.1025689E+00
         21   -1    0    0  502  501  0.00000000000E+00  0.00000000000E+00  0.13652256374E+03  0.13652256374E+03  0.00000000000E+00 0.  1.
         21   -1    0    0  501  502 -0.00000000000E+00 -0.00000000000E+00 -0.38225027947E+03  0.38225027947E+03  0.00000000000E+00 0.  1.
      99926    2    1    2    0    0 -0.71054273576E-14  0.00000000000E+00 -0.24572771573E+03  0.51877284321E+03  0.45688417851E+03 0.  0.
      99925    2    3    3    0    0  0.59778447699E+02  0.59988412645E+02 -0.66221243621E+02  0.28416219961E+03  0.26304149886E+03 0.  0.
         25    1    3    3    0    0 -0.59778447699E+02 -0.59988412645E+02 -0.17950647211E+03  0.23461064360E+03  0.12509000000E+03 0.  0.
         25    1    4    4    0    0  0.64163681309E+02  0.13643281549E+02 -0.49394330109E+02  0.14963430448E+03  0.12509000000E+03 0.  0.
         25    1    4    4    0    0 -0.43852336097E+01  0.46345131097E+02 -0.16826913512E+02  0.13452789513E+03  0.12509000000E+03 0.  0.
<mgrwt>
<rscale>  2 0.45688418E+03</rscale>
<asrwt>0</asrwt>
<pdfrwt beam="1">  1       21 0.20076848E-01 0.45688418E+03</pdfrwt>
<pdfrwt beam="2">  1       21 0.56213276E-01 0.45688418E+03</pdfrwt>
<totfact> 0.63023485E+04</totfact>
</mgrwt>
</event>
<event>
 7    0  0.4831799E-002  0.4532441E+03  0.7546771E-02  0.1026759E+00
         21   -1    0    0  502  501  0.00000000000E+00  0.00000000000E+00  0.28540757754E+02  0.28540757754E+02  0.00000000000E+00 0. -1.
         21   -1    0    0  501  502 -0.00000000000E+00 -0.00000000000E+00 -0.17994463848E+04  0.17994463848E+04  0.00000000000E+00 0. -1.
      99926    2    1    2    0    0  0.00000000000E+00  0.00000000000E+00 -0.17709056271E+04  0.18279871426E+04  0.45324414331E+03 0.  0.
      99925    2    3    3    0    0 -0.86331709942E+02  0.69566432048E+02 -0.10705906269E+04  0.11080001565E+04  0.26307300072E+03 0.  0.
         25    1    3    3    0    0  0.86331709942E+02 -0.69566432048E+02 -0.70031500013E+03  0.71998698607E+03  0.12509000000E+03 0.  0.
         25    1    4    4    0    0 -0.55622856983E+02  0.27504489387E+02 -0.69056885634E+03  0.70454471299E+03  0.12509000000E+03 0.  0.
         25    1    4    4    0    0 -0.30708852959E+02  0.42061942661E+02 -0.38002177060E+03  0.40345544351E+03  0.12509000000E+03 0.  0.
<mgrwt>
<rscale>  2 0.45324414E+03</rscale>
<asrwt>0</asrwt>
<pdfrwt beam="1">  1       21 0.41971693E-02 0.45324414E+03</pdfrwt>
<pdfrwt beam="2">  1       21 0.26462453E+00 0.45324414E+03</pdfrwt>
<totfact> 0.16957768E+04</totfact>
</mgrwt>
</event>
<event>
 7    0  0.4831799E-002  0.4520660E+03  0.7546771E-02  0.1027108E+00
         21   -1    0    0  502  501  0.00000000000E+00  0.00000000000E+00  0.21249510895E+03  0.21249510895E+03  0.00000000000E+00 0. -1.
         21   -1    0    0  501  502 -0.00000000000E+00 -0.00000000000E+00 -0.24043340147E+03  0.24043340147E+03  0.00000000000E+00 0. -1.
      99926    2    1    2    0    0  0.28421709430E-13  0.00000000000E+00 -0.27938292524E+02  0.45292851041E+03  0.45206602102E+03 0.  0.
      99925    2    3    3    0    0  0.10818342117E+03 -0.64290832345E+01 -0.38741516915E+02  0.28706952367E+03  0.26298863199E+03 0.  0.
         25    1    4    4    0    0  0.91930828245E+02 -0.20667727622E+02 -0.10080331838E+02  0.15693168366E+03  0.12509000000E+03 0.  0.
         25    1    3    3    0    0 -0.10818342117E+03  0.64290832345E+01  0.10803224391E+02  0.16585898675E+03  0.12509000000E+03 0.  0.
         25    1    4    4    0    0  0.16252592930E+02  0.14238644387E+02 -0.28661185078E+02  0.13013784000E+03  0.12509000000E+03 0.  0.
<mgrwt>
<rscale>  2 0.45206602E+03</rscale>
<asrwt>0</asrwt>
<pdfrwt beam="1">  1       21 0.31249281E-01 0.45206602E+03</pdfrwt>
<pdfrwt beam="2">  1       21 0.35357853E-01 0.45206602E+03</pdfrwt>
<totfact> 0.70329884E+04</totfact>
</mgrwt>
</event>
<event>
 7    0  0.4831799E-002  0.4491015E+03  0.7546771E-02  0.1027990E+00
         21   -1    0    0  502  501  0.00000000000E+00  0.00000000000E+00  0.11763076480E+03  0.11763076480E+03  0.00000000000E+00 0.  1.
         21   -1    0    0  501  502 -0.00000000000E+00 -0.00000000000E+00 -0.42865515316E+03  0.42865515316E+03  0.00000000000E+00 0.  1.
      99926    2    1    2    0    0  0.00000000000E+00  0.00000000000E+00 -0.31102438836E+03  0.54628591796E+03  0.44910147407E+03 0.  0.
      99925    2    3    3    0    0 -0.43176509810E+02  0.79736521368E+02 -0.12647350851E+03  0.30560218525E+03  0.26301145115E+03 0.  0.
         25    1    4    4    0    0 -0.38479820024E+02  0.73046630505E+02 -0.46582925561E+02  0.15695217052E+03  0.12509000000E+03 0.  0.
         25    1    4    4    0    0 -0.46966897861E+01  0.66898908635E+01 -0.79890582953E+02  0.14865001473E+03  0.12509000000E+03 0.  0.
         25    1    3    3    0    0  0.43176509810E+02 -0.79736521368E+02 -0.18455087985E+03  0.24068373271E+03  0.12509000000E+03 0.  0.
<mgrwt>
<rscale>  2 0.44910147E+03</rscale>
<asrwt>0</asrwt>
<pdfrwt beam="1">  1       21 0.17298642E-01 0.44910147E+03</pdfrwt>
<pdfrwt beam="2">  1       21 0.63037523E-01 0.44910147E+03</pdfrwt>
<totfact> 0.65098115E+04</totfact>
</mgrwt>
</event>
<event>
 7    0  0.4831799E-002  0.4477665E+03  0.7546771E-02  0.1028390E+00
         21   -1    0    0  502  501  0.00000000000E+00  0.00000000000E+00  0.74142144811E+03  0.74142144811E+03  0.00000000000E+00 0. -1.
         21   -1    0    0  501  502 -0.00000000000E+00 -0.00000000000E+00 -0.67604885082E+02  0.67604885082E+02  0.00000000000E+00 0. -1.
      99926    2    1    2    0    0 -0.14210854715E-13  0.00000000000E+00  0.67381656303E+03  0.80902633319E+03  0.44776650967E+03 0.  0.
      99925    2    3    3    0    0  0.81138764760E+02 -0.52470236585E+02  0.50661477575E+03  0.57893815305E+03  0.26300994120E+03 0.  0.
         25    1    3    3    0    0 -0.81138764760E+02  0.52470236585E+02  0.16720178727E+03  0.23008818014E+03  0.12509000000E+03 0.  0.
         25    1    4    4    0    0  0.36320678640E+02 -0.49720731928E+01  0.17221841595E+03  0.21598750913E+03  0.12509000000E+03 0.  0.
         25    1    4    4    0    0  0.44818086120E+02 -0.47498163392E+02  0.33439635980E+03  0.36295064392E+03  0.12509000000E+03 0.  0.
<mgrwt>
<rscale>  2 0.44776651E+03</rscale>
<asrwt>0</asrwt>
<pdfrwt beam="1">  1       21 0.10903256E+00 0.44776651E+03</pdfrwt>
<pdfrwt beam="2">  1       21 0.99418953E-02 0.44776651E+03</pdfrwt>
<totfact> 0.50116094E+04</totfact>
</mgrwt>
</event>
<event>
 7    0  0.4831799E-002  0.4586523E+03  0.7546771E-02  0.1025173E+00
         21   -1    0    0  502  501  0.00000000000E+00  0.00000000000E+00  0.70540425300E+02  0.70540425300E+02  0.00000000000E+00 0. -1.
         21   -1    0    0  501  502 -0.00000000000E+00 -0.00000000000E+00 -0.74553668071E+03  0.74553668071E+03  0.00000000000E+00 0. -1.
      99926    2    1    2    0    0  0.00000000000E+00  0.00000000000E+00 -0.67499625541E+03  0.81607710601E+03  0.45865226276E+03 0.  0.
      99925    2    3    3    0    0 -0.10150344647E+03 -0.12025045189E+02 -0.52301228322E+03  0.59427947920E+03  0.26301843973E+03 0.  0.
         25    1    3    3    0    0  0.10150344647E+03  0.12025045189E+02 -0.15198397219E+03  0.22179762681E+03  0.12509000000E+03 0.  0.
         25    1    4    4    0    0 -0.53218458773E+02 -0.40630810010E+02 -0.31047293267E+03  0.34135614408E+03  0.12509000000E+03 0.  0.
         25    1    4    4    0    0 -0.48284987696E+02  0.28605764821E+02 -0.21253935055E+03  0.25292333513E+03  0.12509000000E+03 0.  0.
<mgrwt>
<rscale>  2 0.45865226E+03</rscale>
<asrwt>0</asrwt>
<pdfrwt beam="1">  1       21 0.10373592E-01 0.45865226E+03</pdfrwt>
<pdfrwt beam="2">  1       21 0.10963774E+00 0.45865226E+03</pdfrwt>
<totfact> 0.45673896E+04</totfact>
</mgrwt>
</event>
<event>
 7    0  0.4831799E-002  0.4687486E+03  0.7546771E-02  0.1022274E+00
         21   -1    0    0  502  501  0.00000000000E+00  0.00000000000E+00  0.75930764469E+03  0.75930764469E+03  0.00000000000E+00 0. -1.
         21   -1    0    0  501  502 -0.00000000000E+00 -0.00000000000E+00 -0.72343948952E+02  0.72343948952E+02  0.00000000000E+00 0. -1.
      99926    2    1    2    0    0  0.00000000000E+00 -0.17763568394E-14  0.68696369574E+03  0.83165159364E+03  0.46874860421E+03 0.  0.
      99925    2    3    3    0    0  0.12346384211E+03  0.15160654813E+02  0.39505675419E+03  0.49057926057E+03  0.26291634812E+03 0.  0.
         25    1    4    4    0    0  0.46672730968E+02 -0.30832440887E+02  0.18844673771E+03  0.23299927957E+03  0.12509000000E+03 0.  0.
         25    1    4    4    0    0  0.76791111140E+02  0.45993095701E+02  0.20661001648E+03  0.25757998100E+03  0.12509000000E+03 0.  0.
         25    1    3    3    0    0 -0.12346384211E+03 -0.15160654813E+02  0.29190694155E+03  0.34107233307E+03  0.12509000000E+03 0.  0.
<mgrwt>
<rscale>  2 0.46874860E+03</rscale>
<asrwt>0</asrwt>
<pdfrwt beam="1">  1       21 0.11166288E+00 0.46874860E+03</pdfrwt>
<pdfrwt beam="2">  1       21 0.10638816E-01 0.46874860E+03</pdfrwt>
<totfact> 0.41599352E+04</totfact>
</mgrwt>
</event>
<event>
 7    0  0.4831799E-002  0.5224408E+03  0.7546771E-02  0.1008082E+00
         21   -1    0    0  502  501  0.00000000000E+00  0.00000000000E+00  0.72220595666E+02  0.72220595666E+02  0.00000000000E+00 0.  1.
         21   -1    0    0  501  502 -0.00000000000E+00 -0.00000000000E+00 -0.94482867573E+03  0.94482867573E+03  0.00000000000E+00 0.  1.
      99926    2    1    2    0    0  0.00000000000E+00  0.00000000000E+00 -0.87260808006E+03  0.10170492714E+04  0.52244077086E+03 0.  0.
      99925    2    3    3    0    0 -0.16674999013E+03 -0.21263779147E+02 -0.49335173961E+03  0.58375885218E+03  0.26290825588E+03 0.  0.
         25    1    3    3    0    0  0.16674999013E+03  0.21263779147E+02 -0.37925634045E+03  0.43329041922E+03  0.12509000000E+03 0.  0.
         25    1    4    4    0    0 -0.10109246556E+03 -0.43556154600E+02 -0.30126698112E+03  0.34427623678E+03  0.12509000000E+03 0.  0.
         25    1    4    4    0    0 -0.65657524565E+02  0.22292375453E+02 -0.19208475849E+03  0.23948261540E+03  0.12509000000E+03 0.  0.
<mgrwt>
<rscale>  2 0.52244077E+03</rscale>
<asrwt>0</asrwt>
<pdfrwt beam="1">  1       21 0.10620676E-01 0.52244077E+03</pdfrwt>
<pdfrwt beam="2">  1       21 0.13894539E+00 0.52244077E+03</pdfrwt>
<totfact> 0.23480561E+04</totfact>
</mgrwt>
</event>
<event>
 7    0  0.4831799E-002  0.4505349E+03  0.7546771E-02  0.1027563E+00
         21   -1    0    0  502  501  0.00000000000E+00  0.00000000000E+00  0.74639915029E+02  0.74639915029E+02  0.00000000000E+00 0.  1.
         21   -1    0    0  501  502 -0.00000000000E+00 -0.00000000000E+00 -0.67986971799E+03  0.67986971799E+03  0.00000000000E+00 0.  1.
      99926    2    1    2    0    0  0.00000000000E+00  0.00000000000E+00 -0.60522980296E+03  0.75450963302E+03  0.45053487315E+03 0.  0.
      99925    2    3    3    0    0 -0.40896185840E+02 -0.85554533707E+02 -0.29309192720E+03  0.40512497703E+03  0.26311840105E+03 0.  0.
         25    1    3    3    0    0  0.40896185840E+02  0.85554533707E+02 -0.31213787576E+03  0.34938465598E+03  0.12509000000E+03 0.  0.
         25    1    4    4    0    0 -0.33173993646E+02 -0.43319535530E+02 -0.20481101967E+03  0.24611411559E+03  0.12509000000E+03 0.  0.
         25    1    4    4    0    0 -0.77221921939E+01 -0.42234998177E+02 -0.88280907532E+02  0.15901086145E+03  0.12509000000E+03 0.  0.
<mgrwt>
<rscale>  2 0.45053487E+03</rscale>
<asrwt>0</asrwt>
<pdfrwt beam="1">  1       21 0.10976459E-01 0.45053487E+03</pdfrwt>
<pdfrwt beam="2">  1       21 0.99980837E-01 0.45053487E+03</pdfrwt>
<totfact> 0.51836487E+04</totfact>
</mgrwt>
</event>
<event>
 7    0  0.4831799E-002  0.4514753E+03  0.7546771E-02  0.1027283E+00
         21   -1    0    0  502  501  0.00000000000E+00  0.00000000000E+00  0.17618430902E+03  0.17618430902E+03  0.00000000000E+00 0. -1.
         21   -1    0    0  501  502 -0.00000000000E+00 -0.00000000000E+00 -0.28922827397E+03  0.28922827397E+03  0.00000000000E+00 0. -1.
      99926    2    1    2    0    0  0.00000000000E+00  0.14210854715E-13 -0.11304396494E+03  0.46541258299E+03  0.45147528659E+03 0.  0.
      99925    2    3    3    0    0 -0.55064370857E+02 -0.94510219193E+02 -0.81784547271E+02  0.29632998258E+03  0.26297999911E+03 0.  0.
         25    1    4    4    0    0 -0.16336547273E+02 -0.35572375706E+02  0.35043110901E-02  0.13107167811E+03  0.12509000000E+03 0.  0.
         25    1    4    4    0    0 -0.38727823584E+02 -0.58937843487E+02 -0.81788051582E+02  0.16525830447E+03  0.12509000000E+03 0.  0.
         25    1    3    3    0    0  0.55064370857E+02  0.94510219193E+02 -0.31259417674E+02  0.16908260042E+03  0.12509000000E+03 0.  0.
<mgrwt>
<rscale>  2 0.45147529E+03</rscale>
<asrwt>0</asrwt>
<pdfrwt beam="1">  1       21 0.25909458E-01 0.45147529E+03</pdfrwt>
<pdfrwt beam="2">  1       21 0.42533569E-01 0.45147529E+03</pdfrwt>
<totfact> 0.69707208E+04</totfact>
</mgrwt>
</event>
<event>
 7    0  0.4831799E-002  0.4537352E+03  0.7546771E-02  0.1026614E+00
         21   -1    0    0  502  501  0.00000000000E+00  0.00000000000E+00  0.36614508744E+02  0.36614508744E+02  0.00000000000E+00 0.  1.
         21   -1    0    0  501  502 -0.00000000000E+00 -0.00000000000E+00 -0.14056968615E+04  0.14056968615E+04  0.00000000000E+00 0.  1.
      99926    2    1    2    0    0  0.00000000000E+00  0.00000000000E+00 -0.13690823527E+04  0.14423113702E+04  0.45373516516E+03 0.  0.
      99925    2    3    3    0    0  0.41142650736E+02  0.93814108736E+02 -0.71864923101E+03  0.77208412619E+03  0.26298930772E+03 0.  0.
         25    1    4    4    0    0 -0.15221282421E+02  0.28480689753E+02 -0.36409767565E+03  0.38633853372E+03  0.12509000000E+03 0.  0.
         25    1    4    4    0    0  0.56363933157E+02  0.65333418983E+02 -0.35455155536E+03  0.38574559246E+03  0.12509000000E+03 0.  0.
         25    1    3    3    0    0 -0.41142650736E+02 -0.93814108736E+02 -0.65043312173E+03  0.67022724404E+03  0.12509000000E+03 0.  0.
<mgrwt>
<rscale>  2 0.45373517E+03</rscale>
<asrwt>0</asrwt>
<pdfrwt beam="1">  1       21 0.53844871E-02 0.45373517E+03</pdfrwt>
<pdfrwt beam="2">  1       21 0.20672010E+00 0.45373517E+03</pdfrwt>
<totfact> 0.25475425E+04</totfact>
</mgrwt>
</event>
<event>
 7    0  0.4831799E-002  0.4569607E+03  0.7546771E-02  0.1025666E+00
         21   -1    0    0  502  501  0.00000000000E+00  0.00000000000E+00  0.14099478688E+03  0.14099478688E+03  0.00000000000E+00 0.  1.
         21   -1    0    0  501  502 -0.00000000000E+00 -0.00000000000E+00 -0.37024972979E+03  0.37024972979E+03  0.00000000000E+00 0.  1.
      99926    2    1    2    0    0  0.00000000000E+00  0.00000000000E+00 -0.22925494291E+03  0.51124451666E+03  0.45696074992E+03 0.  0.
      99925    2    3    3    0    0  0.50335060237E+02 -0.99139418191E+02 -0.11110952457E+03  0.30638336734E+03  0.26298897087E+03 0.  0.
         25    1    3    3    0    0 -0.50335060237E+02  0.99139418191E+02 -0.11814541834E+03  0.20486114932E+03  0.12509000000E+03 0.  0.
         25    1    4    4    0    0  0.18495473707E+02 -0.28150095590E+02 -0.89593136219E+02  0.15750856671E+03  0.12509000000E+03 0.  0.
         25    1    4    4    0    0  0.31839586529E+02 -0.70989322602E+02 -0.21516388352E+02  0.14887480063E+03  0.12509000000E+03 0.  0.
<mgrwt>
<rscale>  2 0.45696075E+03</rscale>
<asrwt>0</asrwt>
<pdfrwt beam="1">  1       21 0.20734528E-01 0.45696075E+03</pdfrwt>
<pdfrwt beam="2">  1       21 0.54448489E-01 0.45696075E+03</pdfrwt>
<totfact> 0.63493903E+04</totfact>
</mgrwt>
</event>
<event>
 7    0  0.4831799E-002  0.4535145E+03  0.7546771E-02  0.1026679E+00
         21   -1    0    0  502  501  0.00000000000E+00  0.00000000000E+00  0.22986950843E+03  0.22986950843E+03  0.00000000000E+00 0. -1.
         21   -1    0    0  501  502 -0.00000000000E+00 -0.00000000000E+00 -0.22368716341E+03  0.22368716341E+03  0.00000000000E+00 0. -1.
      99926    2    1    2    0    0 -0.71054273576E-14  0.14210854715E-13  0.61823450203E+01  0.45355667184E+03  0.45351453470E+03 0.  0.
      99925    2    3    3    0    0 -0.38935038018E+02  0.89780712413E+02 -0.50340447448E+02  0.28497776547E+03  0.26287193204E+03 0.  0.
         25    1    4    4    0    0 -0.14193983794E+02  0.11294625047E+02  0.18463057532E+01  0.12641184547E+03  0.12509000000E+03 0.  0.
         25    1    4    4    0    0 -0.24741054224E+02  0.78486087366E+02 -0.52186753202E+02  0.15856592000E+03  0.12509000000E+03 0.  0.
         25    1    3    3    0    0  0.38935038018E+02 -0.89780712413E+02  0.56522792469E+02  0.16857890638E+03  0.12509000000E+03 0.  0.
<mgrwt>
<rscale>  2 0.45351453E+03</rscale>
<asrwt>0</asrwt>
<pdfrwt beam="1">  1       21 0.33804340E-01 0.45351453E+03</pdfrwt>
<pdfrwt beam="2">  1       21 0.32895171E-01 0.45351453E+03</pdfrwt>
<totfact> 0.69471422E+04</totfact>
</mgrwt>
</event>
<event>
 7    0  0.4831799E-002  0.4600584E+03  0.7546771E-02  0.1024764E+00
         21   -1    0    0  502  501  0.00000000000E+00  0.00000000000E+00  0.71173635063E+02  0.71173635063E+02  0.00000000000E+00 0.  1.
         21   -1    0    0  501  502 -0.00000000000E+00 -0.00000000000E+00 -0.74344138263E+03  0.74344138263E+03  0.00000000000E+00 0.  1.
      99926    2    1    2    0    0  0.00000000000E+00  0.00000000000E+00 -0.67226774756E+03  0.81461501769E+03  0.46005836872E+03 0.  0.
      99925    2    3    3    0    0  0.71161291996E+02 -0.61334258010E+02 -0.29374511894E+03  0.40503876207E+03  0.26257262461E+03 0.  0.
         25    1    4    4    0    0  0.46839515783E+02 -0.48480779663E+02 -0.20414145973E+03  0.24872790337E+03  0.12509000000E+03 0.  0.
         25    1    4    4    0    0  0.24321776213E+02 -0.12853478347E+02 -0.89603659207E+02  0.15631085870E+03  0.12509000000E+03 0.  0.
         25    1    3    3    0    0 -0.71161291996E+02  0.61334258010E+02 -0.37852262863E+03  0.40957625562E+03  0.12509000000E+03 0.  0.
<mgrwt>
<rscale>  2 0.46005837E+03</rscale>
<asrwt>0</asrwt>
<pdfrwt beam="1">  1       21 0.10466711E-01 0.46005837E+03</pdfrwt>
<pdfrwt beam="2">  1       21 0.10932961E+00 0.46005837E+03</pdfrwt>
<totfact> 0.45243268E+04</totfact>
</mgrwt>
</event>
<event>
 7    0  0.4831799E-002  0.4582311E+03  0.7546771E-02  0.1025295E+00
         21   -1    0    0  502  501  0.00000000000E+00  0.00000000000E+00  0.24773584677E+03  0.24773584677E+03  0.00000000000E+00 0. -1.
         21   -1    0    0  501  502 -0.00000000000E+00 -0.00000000000E+00 -0.21189482938E+03  0.21189482938E+03  0.00000000000E+00 0. -1.
      99926    2    1    2    0    0  0.00000000000E+00  0.71054273576E-14  0.35841017396E+02  0.45963067615E+03  0.45823114247E+03 0.  0.
      99925    2    3    3    0    0 -0.15698744705E+02  0.46321743228E+02  0.12835770745E+03  0.29653867597E+03  0.26280664148E+03 0.  0.
         25    1    3    3    0    0  0.15698744705E+02 -0.46321743228E+02 -0.92516690058E+02  0.16309200017E+03  0.12509000000E+03 0.  0.
         25    1    4    4    0    0 -0.77903287440E+01 -0.19029631807E+01  0.97346380950E+02  0.15870770767E+03  0.12509000000E+03 0.  0.
         25    1    4    4    0    0 -0.79084159614E+01  0.48224706409E+02  0.31011326504E+02  0.13783096830E+03  0.12509000000E+03 0.  0.
<mgrwt>
<rscale>  2 0.45823114E+03</rscale>
<asrwt>0</asrwt>
<pdfrwt beam="1">  1       21 0.36431742E-01 0.45823114E+03</pdfrwt>
<pdfrwt beam="2">  1       21 0.31161004E-01 0.45823114E+03</pdfrwt>
<totfact> 0.66477494E+04</totfact>
</mgrwt>
</event>
<event>
 7    0  0.4831799E-002  0.4530663E+03  0.7546771E-02  0.1026812E+00
         21   -1    0    0  502  501  0.00000000000E+00  0.00000000000E+00  0.89393534107E+02  0.89393534107E+02  0.00000000000E+00 0.  1.
         21   -1    0    0  501  502 -0.00000000000E+00 -0.00000000000E+00 -0.57406025802E+03  0.57406025802E+03  0.00000000000E+00 0.  1.
      99926    2    1    2    0    0  0.00000000000E+00  0.00000000000E+00 -0.48466672391E+03  0.66345379213E+03  0.45306633181E+03 0.  0.
      99925    2    3    3    0    0 -0.10045191815E+03 -0.38198145173E+02 -0.26295464729E+03  0.38713253131E+03  0.26301476026E+03 0.  0.
         25    1    4    4    0    0 -0.66549611586E+02  0.12527390837E+02 -0.15952450617E+03  0.21373198753E+03  0.12509000000E+03 0.  0.
         25    1    3    3    0    0  0.10045191815E+03  0.38198145173E+02 -0.22171207663E+03  0.27632126081E+03  0.12509000000E+03 0.  0.
         25    1    4    4    0    0 -0.33902306567E+02 -0.50725536010E+02 -0.10343014112E+03  0.17340054379E+03  0.12509000000E+03 0.  0.
<mgrwt>
<rscale>  2 0.45306633E+03</rscale>
<asrwt>0</asrwt>
<pdfrwt beam="1">  1       21 0.13146108E-01 0.45306633E+03</pdfrwt>
<pdfrwt beam="2">  1       21 0.84420628E-01 0.45306633E+03</pdfrwt>
<totfact> 0.55777741E+04</totfact>
</mgrwt>
</event>
<event>
 6    0  0.4831799E-002  0.4564406E+03  0.7546771E-02  0.1025819E+00
         21   -1    0    0  502  501  0.00000000000E+00  0.00000000000E+00  0.16979675372E+03  0.16979675372E+03  0.00000000000E+00 0. -1.
         21   -1    0    0  501  502 -0.00000000000E+00 -0.00000000000E+00 -0.30674617565E+03  0.30674617565E+03  0.00000000000E+00 0. -1.
      99926    2    1    2    0    0  0.00000000000E+00  0.00000000000E+00 -0.13694942193E+03  0.47654292938E+03  0.45644059786E+03 0.  0.
         25    1    3    3    0    0 -0.10809312510E+02 -0.88548209469E+01 -0.91806752972E+02  0.15579228826E+03  0.12509000000E+03 0.  0.
         25    1    3    3    0    0  0.84976524247E+02  0.20080077140E+02  0.31819782964E+02  0.15583396889E+03  0.12509000000E+03 0.  0.
         25    1    3    3    0    0 -0.74167211737E+02 -0.11225256193E+02 -0.76962451922E+02  0.16491667223E+03  0.12509000000E+03 0.  0.
<mgrwt>
<rscale>  2 0.45644060E+03</rscale>
<asrwt>0</asrwt>
<pdfrwt beam="1">  1       21 0.24970111E-01 0.45644060E+03</pdfrwt>
<pdfrwt beam="2">  1       21 0.45109731E-01 0.45644060E+03</pdfrwt>
<totfact> 0.66192619E+04</totfact>
</mgrwt>
</event>
<event>
 6    0  0.4831799E-002  0.4560543E+03  0.7546771E-02  0.1025932E+00
         21   -1    0    0  502  501  0.00000000000E+00  0.00000000000E+00  0.15634830400E+04  0.15634830400E+04  0.00000000000E+00 0. -1.
         21   -1    0    0  501  502 -0.00000000000E+00 -0.00000000000E+00 -0.33256763876E+02  0.33256763876E+02  0.00000000000E+00 0. -1.
      99926    2    1    2    0    0  0.00000000000E+00  0.71054273576E-14  0.15302262761E+04  0.15967398039E+04  0.45605432258E+03 0.  0.
         25    1    3    3    0    0 -0.48186619945E+02  0.65815562312E+02  0.49591101573E+03  0.51790817932E+03  0.12509000000E+03 0.  0.
         25    1    3    3    0    0 -0.37927453003E+02 -0.19268755645E+02  0.30447812068E+03  0.33190994367E+03  0.12509000000E+03 0.  0.
         25    1    3    3    0    0  0.86114072948E+02 -0.46546806667E+02  0.72983713974E+03  0.74692168091E+03  0.12509000000E+03 0.  0.
<mgrwt>
<rscale>  2 0.45605432E+03</rscale>
<asrwt>0</asrwt>
<pdfrwt beam="1">  1       21 0.22992393E+00 0.45605432E+03</pdfrwt>
<pdfrwt beam="2">  1       21 0.48907016E-02 0.45605432E+03</pdfrwt>
<totfact> 0.21328416E+04</totfact>
</mgrwt>
</event>
<event>
 7    0  0.4831799E-002  0.4503974E+03  0.7546771E-02  0.1027604E+00
         21   -1    0    0  502  501  0.00000000000E+00  0.00000000000E+00  0.48253106341E+02  0.48253106341E+02  0.00000000000E+00 0.  1.
         21   -1    0    0  501  502 -0.00000000000E+00 -0.00000000000E+00 -0.10510089618E+04  0.10510089618E+04  0.00000000000E+00 0.  1.
      99926    2    1    2    0    0  0.00000000000E+00  0.00000000000E+00 -0.10027558555E+04  0.10992620682E+04  0.45039736767E+03 0.  0.
      99925    2    3    3    0    0  0.33008340116E+02  0.10272414114E+03 -0.60004538980E+03  0.66398626254E+03  0.26302373910E+03 0.  0.
         25    1    4    4    0    0  0.55820611889E+02  0.61435527277E+02 -0.33658875548E+03  0.36855089627E+03  0.12509000000E+03 0.  0.
         25    1    3    3    0    0 -0.33008340116E+02 -0.10272414114E+03 -0.40271046569E+03  0.43527580563E+03  0.12509000000E+03 0.  0.
         25    1    4    4    0    0 -0.22812271773E+02  0.41288613865E+02 -0.26345663432E+03  0.29543536627E+03  0.12509000000E+03 0.  0.
<mgrwt>
<rscale>  2 0.45039737E+03</rscale>
<asrwt>0</asrwt>
<pdfrwt beam="1">  1       21 0.70960455E-02 0.45039737E+03</pdfrwt>
<pdfrwt beam="2">  1       21 0.15456013E+00 0.45039737E+03</pdfrwt>
<totfact> 0.36824363E+04</totfact>
</mgrwt>
</event>
<event>
 7    0  0.4831799E-002  0.4378353E+03  0.7546771E-02  0.1031413E+00
         21   -1    0    0  502  501  0.00000000000E+00  0.00000000000E+00  0.22864348407E+02  0.22864348407E+02  0.00000000000E+00 0.  1.
         21   -1    0    0  501  502 -0.00000000000E+00 -0.00000000000E+00 -0.20960547788E+04  0.20960547788E+04  0.00000000000E+00 0.  1.
      99926    2    1    2    0    0  0.00000000000E+00  0.00000000000E+00 -0.20731904303E+04  0.21189191272E+04  0.43783525094E+03 0.  0.
      99925    2    3    3    0    0  0.84230522901E+02  0.28032631792E+02 -0.15057389475E+04  0.15311017210E+04  0.26294884060E+03 0.  0.
         25    1    3    3    0    0 -0.84230522901E+02 -0.28032631792E+02 -0.56745148288E+03  0.58781740614E+03  0.12509000000E+03 0.  0.
         25    1    4    4    0    0  0.72862824339E+02  0.46641477024E+00 -0.66408132372E+03  0.67967692423E+03  0.12509000000E+03 0.  0.
         25    1    4    4    0    0  0.11367698562E+02  0.27566217022E+02 -0.84165762375E+03  0.85142479680E+03  0.12509000000E+03 0.  0.
<mgrwt>
<rscale>  2 0.43783525E+03</rscale>
<asrwt>0</asrwt>
<pdfrwt beam="1">  1       21 0.33624031E-02 0.43783525E+03</pdfrwt>
<pdfrwt beam="2">  1       21 0.30824345E+00 0.43783525E+03</pdfrwt>
<totfact> 0.13586327E+04</totfact>
</mgrwt>
</event>
<event>
 7    0  0.4831799E-002  0.4558124E+03  0.7546771E-02  0.1026003E+00
         21   -1    0    0  502  501  0.00000000000E+00  0.00000000000E+00  0.98406029185E+02  0.98406029185E+02  0.00000000000E+00 0.  1.
         21   -1    0    0  501  502 -0.00000000000E+00 -0.00000000000E+00 -0.52782564767E+03  0.52782564767E+03  0.00000000000E+00 0.  1.
      99926    2    1    2    0    0  0.00000000000E+00  0.00000000000E+00 -0.42941961848E+03  0.62623167685E+03  0.45581235652E+03 0.  0.
      99925    2    3    3    0    0  0.26286561484E+02  0.48697296443E+02 -0.13321303714E+03  0.29996758608E+03  0.26300651977E+03 0.  0.
         25    1    3    3    0    0 -0.26286561484E+02 -0.48697296443E+02 -0.29620658135E+03  0.32626409077E+03  0.12509000000E+03 0.  0.
         25    1    4    4    0    0 -0.64275088467E-01  0.43577182647E+02 -0.10481442283E+03  0.16891579651E+03  0.12509000000E+03 0.  0.
         25    1    4    4    0    0  0.26350836572E+02  0.51201137961E+01 -0.28398614304E+02  0.13105178956E+03  0.12509000000E+03 0.  0.
<mgrwt>
<rscale>  2 0.45581236E+03</rscale>
<asrwt>0</asrwt>
<pdfrwt beam="1">  1       21 0.14471475E-01 0.45581236E+03</pdfrwt>
<pdfrwt beam="2">  1       21 0.77621417E-01 0.45581236E+03</pdfrwt>
<totfact> 0.56727304E+04</totfact>
</mgrwt>
</event>
<event>
 7    0  0.4831799E-002  0.4348145E+03  0.7546771E-02  0.1032350E+00
         21   -1    0    0  502  501  0.00000000000E+00  0.00000000000E+00  0.21316110009E+03  0.21316110009E+03  0.00000000000E+00 0.  1.
         21   -1    0    0  501  502 -0.00000000000E+00 -0.00000000000E+00 -0.22173800306E+03  0.22173800306E+03  0.00000000000E+00 0.  1.
      99926    2    1    2    0    0  0.00000000000E+00  0.00000000000E+00 -0.85769029715E+01  0.43489910316E+03  0.43481451984E+03 0.  0.
      99925    2    3    3    0    0  0.68416789048E+02  0.61916779701E+02 -0.15659073794E+02  0.27929637222E+03  0.26314770056E+03 0.  0.
         25    1    3    3    0    0 -0.68416789048E+02 -0.61916779701E+02  0.70821708225E+01  0.15560273094E+03  0.12509000000E+03 0.  0.
         25    1    4    4    0    0  0.12065881051E+02  0.41757558680E+02 -0.40367373720E+02  0.13844245069E+03  0.12509000000E+03 0.  0.
         25    1    4    4    0    0  0.56350907997E+02  0.20159221021E+02  0.24708299926E+02  0.14085392153E+03  0.12509000000E+03 0.  0.
<mgrwt>
<rscale>  2 0.43481452E+03</rscale>
<asrwt>0</asrwt>
<pdfrwt beam="1">  1       21 0.31347221E-01 0.43481452E+03</pdfrwt>
<pdfrwt beam="2">  1       21 0.32608530E-01 0.43481452E+03</pdfrwt>
<totfact> 0.82561510E+04</totfact>
</mgrwt>
</event>
<event>
 7    0  0.4831799E-002  0.4544414E+03  0.7546771E-02  0.1026406E+00
         21   -1    0    0  502  501  0.00000000000E+00  0.00000000000E+00  0.90944361002E+02  0.90944361002E+02  0.00000000000E+00 0.  1.
         21   -1    0    0  501  502 -0.00000000000E+00 -0.00000000000E+00 -0.56770143568E+03  0.56770143568E+03  0.00000000000E+00 0.  1.
      99926    2    1    2    0    0 -0.71054273576E-14  0.00000000000E+00 -0.47675707468E+03  0.65864579668E+03  0.45444139032E+03 0.  0.
      99925    2    3    3    0    0  0.62703094634E+02 -0.85708840540E+02 -0.35488994446E+03  0.45425208604E+03  0.26290759131E+03 0.  0.
         25    1    4    4    0    0  0.72787170065E+02 -0.42927095511E+02 -0.18861784743E+03  0.24158830296E+03  0.12509000000E+03 0.  0.
         25    1    3    3    0    0 -0.62703094634E+02  0.85708840540E+02 -0.12186713022E+03  0.20439371065E+03  0.12509000000E+03 0.  0.
         25    1    4    4    0    0 -0.10084075430E+02 -0.42781745029E+02 -0.16627209703E+03  0.21266378308E+03  0.12509000000E+03 0.  0.
<mgrwt>
<rscale>  2 0.45444139E+03</rscale>
<asrwt>0</asrwt>
<pdfrwt beam="1">  1       21 0.13374171E-01 0.45444139E+03</pdfrwt>
<pdfrwt beam="2">  1       21 0.83485503E-01 0.45444139E+03</pdfrwt>
<totfact> 0.55449724E+04</totfact>
</mgrwt>
</event>
<event>
 7    0  0.4831799E-002  0.4590241E+03  0.7546771E-02  0.1025065E+00
         21   -1    0    0  502  501  0.00000000000E+00  0.00000000000E+00  0.78137834688E+02  0.78137834688E+02  0.00000000000E+00 0.  1.
         21   -1    0    0  501  502 -0.00000000000E+00 -0.00000000000E+00 -0.67413939104E+03  0.67413939104E+03  0.00000000000E+00 0.  1.
      99926    2    1    2    0    0  0.00000000000E+00  0.00000000000E+00 -0.59600155635E+03  0.75227722573E+03  0.45902414879E+03 0.  0.
      99925    2    3    3    0    0  0.64894290330E+02  0.90767016316E+02 -0.31602375156E+03  0.42595683188E+03  0.26290357720E+03 0.  0.
         25    1    3    3    0    0 -0.64894290330E+02 -0.90767016316E+02 -0.27997780479E+03  0.32632039385E+03  0.12509000000E+03 0.  0.
         25    1    4    4    0    0  0.49631816521E+02  0.11159061447E+02 -0.17211743447E+03  0.21876873911E+03  0.12509000000E+03 0.  0.
         25    1    4    4    0    0  0.15262473810E+02  0.79607954868E+02 -0.14390631710E+03  0.20718809277E+03  0.12509000000E+03 0.  0.
<mgrwt>
<rscale>  2 0.45902415E+03</rscale>
<asrwt>0</asrwt>
<pdfrwt beam="1">  1       21 0.11490858E-01 0.45902415E+03</pdfrwt>
<pdfrwt beam="2">  1       21 0.99138142E-01 0.45902415E+03</pdfrwt>
<totfact> 0.48599514E+04</totfact>
</mgrwt>
</event>
<event>
 7    0  0.4831799E-002  0.4564076E+03  0.7546771E-02  0.1025828E+00
         21   -1    0    0  502  501  0.00000000000E+00  0.00000000000E+00  0.13063588469E+03  0.13063588469E+03  0.00000000000E+00 0.  1.
         21   -1    0    0  501  502 -0.00000000000E+00 -0.00000000000E+00 -0.39864215762E+03  0.39864215762E+03  0.00000000000E+00 0.  1.
      99926    2    1    2    0    0  0.00000000000E+00  0.00000000000E+00 -0.26800627292E+03  0.52927804231E+03  0.45640758511E+03 0.  0.
      99925    2    3    3    0    0 -0.83370259164E+02 -0.20645733489E+02 -0.80667875586E+02  0.28819708155E+03  0.26300837485E+03 0.  0.
         25    1    4    4    0    0 -0.72889452584E+02 -0.17836701060E+02 -0.15387106422E+02  0.14668091678E+03  0.12509000000E+03 0.  0.
         25    1    3    3    0    0  0.83370259164E+02  0.20645733489E+02 -0.18733839734E+03  0.24108096076E+03  0.12509000000E+03 0.  0.
         25    1    4    4    0    0 -0.10480806580E+02 -0.28090324291E+01 -0.65280769164E+02  0.14151616477E+03  0.12509000000E+03 0.  0.
<mgrwt>
<rscale>  2 0.45640759E+03</rscale>
<asrwt>0</asrwt>
<pdfrwt beam="1">  1       21 0.19211159E-01 0.45640759E+03</pdfrwt>
<pdfrwt beam="2">  1       21 0.58623847E-01 0.45640759E+03</pdfrwt>
<totfact> 0.62554594E+04</totfact>
</mgrwt>
</event>
<event>
 7    0  0.4831799E-002  0.4549940E+03  0.7546771E-02  0.1026243E+00
         21   -1    0    0  502  501  0.00000000000E+00  0.00000000000E+00  0.52248758850E+03  0.52248758850E+03  0.00000000000E+00 0.  1.
         21   -1    0    0  501  502 -0.00000000000E+00 -0.00000000000E+00 -0.99054762071E+02  0.99054762071E+02  0.00000000000E+00 0.  1.
      99926    2    1    2    0    0  0.88817841970E-15  0.00000000000E+00  0.42343282643E+03  0.62154235057E+03  0.45499399453E+03 0.  0.
      99925    2    3    3    0    0  0.76662359885E+01 -0.11287577379E+03  0.26311942529E+03  0.38884596863E+03  0.26300122409E+03 0.  0.
         25    1    4    4    0    0 -0.72568932675E+01 -0.74260739197E+02  0.18575419248E+03  0.23604967276E+03  0.12509000000E+03 0.  0.
         25    1    3    3    0    0 -0.76662359885E+01  0.11287577379E+03  0.16031340114E+03  0.23269638194E+03  0.12509000000E+03 0.  0.
         25    1    4    4    0    0  0.14923129256E+02 -0.38615034596E+02  0.77365232808E+02  0.15279629587E+03  0.12509000000E+03 0.  0.
<mgrwt>
<rscale>  2 0.45499399E+03</rscale>
<asrwt>0</asrwt>
<pdfrwt beam="1">  1       21 0.76836409E-01 0.45499399E+03</pdfrwt>
<pdfrwt beam="2">  1       21 0.14566877E-01 0.45499399E+03</pdfrwt>
<totfact> 0.57374215E+04</totfact>
</mgrwt>
</event>
<event>
 7    0  0.4831799E-002  0.4527574E+03  0.7546771E-02  0.1026903E+00
         21   -1    0    0  502  501  0.00000000000E+00  0.00000000000E+00  0.55094721498E+03  0.55094721498E+03  0.00000000000E+00 0.  1.
         21   -1    0    0  501  502 -0.00000000000E+00 -0.00000000000E+00 -0.93016732223E+02  0.93016732223E+02  0.00000000000E+00 0.  1.
      99926    2    1    2    0    0  0.00000000000E+00  0.00000000000E+00  0.45793048275E+03  0.64396394720E+03  0.45275737239E+03 0.  0.
      99925    2    3    3    0    0 -0.39450833024E+02  0.10098579485E+03  0.25431039580E+03  0.38154606119E+03  0.26296220338E+03 0.  0.
         25    1    4    4    0    0  0.17425464357E+01  0.75360665714E+02  0.16510016489E+03  0.22042649331E+03  0.12509000000E+03 0.  0.
         25    1    4    4    0    0 -0.41193379460E+02  0.25625129137E+02  0.89210230909E+02  0.16111956788E+03  0.12509000000E+03 0.  0.
         25    1    3    3    0    0  0.39450833024E+02 -0.10098579485E+03  0.20362008696E+03  0.26241788601E+03  0.12509000000E+03 0.  0.
<mgrwt>
<rscale>  2 0.45275737E+03</rscale>
<asrwt>0</asrwt>
<pdfrwt beam="1">  1       21 0.81021648E-01 0.45275737E+03</pdfrwt>
<pdfrwt beam="2">  1       21 0.13678931E-01 0.45275737E+03</pdfrwt>
<totfact> 0.57053459E+04</totfact>
</mgrwt>
</event>
<event>
 7    0  0.4831799E-002  0.4464941E+03  0.7546771E-02  0.1028773E+00
         21   -1    0    0  502  501  0.00000000000E+00  0.00000000000E+00  0.52756688366E+03  0.52756688366E+03  0.00000000000E+00 0.  1.
         21   -1    0    0  501  502 -0.00000000000E+00 -0.00000000000E+00 -0.94469995083E+02  0.94469995083E+02  0.00000000000E+00 0.  1.
      99926    2    1    2    0    0  0.00000000000E+00  0.17763568394E-14  0.43309688858E+03  0.62203687875E+03  0.44649408016E+03 0.  0.
      99925    2    3    3    0    0  0.10243218582E+03 -0.10736148275E+02  0.30275566232E+03  0.41408505516E+03  0.26305479328E+03 0.  0.
         25    1    4    4    0    0  0.46048994489E+02 -0.29985116390E+02  0.19718929701E+03  0.23989736150E+03  0.12509000000E+03 0.  0.
         25    1    4    4    0    0  0.56383191327E+02  0.19248968115E+02  0.10556636531E+03  0.17418769366E+03  0.12509000000E+03 0.  0.
         25    1    3    3    0    0 -0.10243218582E+03  0.10736148275E+02  0.13034122626E+03  0.20795182359E+03  0.12509000000E+03 0.  0.
<mgrwt>
<rscale>  2 0.44649408E+03</rscale>
<asrwt>0</asrwt>
<pdfrwt beam="1">  1       21 0.77583364E-01 0.44649408E+03</pdfrwt>
<pdfrwt beam="2">  1       21 0.13892647E-01 0.44649408E+03</pdfrwt>
<totfact> 0.61360167E+04</totfact>
</mgrwt>
</event>
<event>
 7    0  0.4831799E-002  0.4639212E+03  0.7546771E-02  0.1023650E+00
         21   -1    0    0  502  501  0.00000000000E+00  0.00000000000E+00  0.80069415594E+02  0.80069415594E+02  0.00000000000E+00 0.  1.
         21   -1    0    0  501  502 -0.00000000000E+00 -0.00000000000E+00 -0.67198847688E+03  0.67198847688E+03  0.00000000000E+00 0.  1.
      99926    2    1    2    0    0 -0.71054273576E-14  0.53290705182E-14 -0.59191906129E+03  0.75205789248E+03  0.46392122017E+03 0.  0.
      99925    2    3    3    0    0  0.35445301323E+02 -0.73437967531E+01 -0.18189378096E+03  0.32185033868E+03  0.26304370781E+03 0.  0.
         25    1    4    4    0    0  0.86782398633E+00  0.33193411909E+02 -0.83558120570E+02  0.15405201500E+03  0.12509000000E+03 0.  0.
         25    1    3    3    0    0 -0.35445301323E+02  0.73437967531E+01 -0.41002528033E+03  0.43020755380E+03  0.12509000000E+03 0.  0.
         25    1    4    4    0    0  0.34577477336E+02 -0.40537208662E+02 -0.98335660392E+02  0.16779832368E+03  0.12509000000E+03 0.  0.
<mgrwt>
<rscale>  2 0.46392122E+03</rscale>
<asrwt>0</asrwt>
<pdfrwt beam="1">  1       21 0.11774914E-01 0.46392122E+03</pdfrwt>
<pdfrwt beam="2">  1       21 0.98821832E-01 0.46392122E+03</pdfrwt>
<totfact> 0.46797548E+04</totfact>
</mgrwt>
</event>
<event>
 7    0  0.4831799E-002  0.4568771E+03  0.7546771E-02  0.1025691E+00
         21   -1    0    0  502  501  0.00000000000E+00  0.00000000000E+00  0.17824364898E+03  0.17824364898E+03  0.00000000000E+00 0.  1.
         21   -1    0    0  501  502 -0.00000000000E+00 -0.00000000000E+00 -0.29276875596E+03  0.29276875596E+03  0.00000000000E+00 0.  1.
      99926    2    1    2    0    0  0.14210854715E-13  0.00000000000E+00 -0.11452510697E+03  0.47101240494E+03  0.45687710107E+03 0.  0.
      99925    2    3    3    0    0  0.69497843484E+02  0.19195888668E+02  0.20034882585E+02  0.27364895523E+03  0.26321839181E+03 0.  0.
         25    1    4    4    0    0  0.52366680106E+00  0.29615888368E+02  0.21955755135E+02  0.13041065276E+03  0.12509000000E+03 0.  0.
         25    1    3    3    0    0 -0.69497843484E+02 -0.19195888668E+02 -0.13455998956E+03  0.19736344971E+03  0.12509000000E+03 0.  0.
         25    1    4    4    0    0  0.68974176683E+02 -0.10419999700E+02 -0.19208725501E+01  0.14323830247E+03  0.12509000000E+03 0.  0.
<mgrwt>
<rscale>  2 0.45687710E+03</rscale>
<asrwt>0</asrwt>
<pdfrwt beam="1">  1       21 0.26212302E-01 0.45687710E+03</pdfrwt>
<pdfrwt beam="2">  1       21 0.43054228E-01 0.45687710E+03</pdfrwt>
<totfact> 0.66366731E+04</totfact>
</mgrwt>
</event>
<event>
 7    0  0.4831799E-002  0.4497213E+03  0.7546771E-02  0.1027805E+00
         21   -1    0    0  502  501  0.00000000000E+00  0.00000000000E+00  0.18732412954E+03  0.18732412954E+03  0.00000000000E+00 0. -1.
         21   -1    0    0  501  502 -0.00000000000E+00 -0.00000000000E+00 -0.26991883692E+03  0.26991883692E+03  0.00000000000E+00 0. -1.
      99926    2    1    2    0    0  0.00000000000E+00  0.13322676296E-14 -0.82594707374E+02  0.45724296646E+03  0.44972129668E+03 0.  0.
      99925    2    3    3    0    0 -0.10795698697E+03 -0.26180155474E+01 -0.54776812034E+02  0.28966340791E+03  0.26314031562E+03 0.  0.
         25    1    3    3    0    0  0.10795698697E+03  0.26180155474E+01 -0.27817895339E+02  0.16757955855E+03  0.12509000000E+03 0.  0.
         25    1    4    4    0    0 -0.50273675155E+02 -0.17254239833E+02  0.10914757929E+02  0.13635171890E+03  0.12509000000E+03 0.  0.
         25    1    4    4    0    0 -0.57683311817E+02  0.14636224286E+02 -0.65691569964E+02  0.15331168901E+03  0.12509000000E+03 0.  0.
<mgrwt>
<rscale>  2 0.44972130E+03</rscale>
<asrwt>0</asrwt>
<pdfrwt beam="1">  1       21 0.27547666E-01 0.44972130E+03</pdfrwt>
<pdfrwt beam="2">  1       21 0.39693947E-01 0.44972130E+03</pdfrwt>
<totfact> 0.71336640E+04</totfact>
</mgrwt>
</event>
<event>
 7    0  0.4831799E-002  0.4531627E+03  0.7546771E-02  0.1026783E+00
         21   -1    0    0  502  501  0.00000000000E+00  0.00000000000E+00  0.97056013642E+02  0.97056013642E+02  0.00000000000E+00 0. -1.
         21   -1    0    0  501  502 -0.00000000000E+00 -0.00000000000E+00 -0.52896360403E+03  0.52896360403E+03  0.00000000000E+00 0. -1.
      99926    2    1    2    0    0  0.00000000000E+00  0.14210854715E-13 -0.43190759039E+03  0.62601961767E+03  0.45316265852E+03 0.  0.
      99925    2    3    3    0    0  0.65044717109E+02  0.82405743716E+02 -0.22060068346E+03  0.35896224774E+03  0.26299755120E+03 0.  0.
         25    1    4    4    0    0  0.67928169195E+01  0.73054840399E+01 -0.86518683150E+02  0.15242212140E+03  0.12509000000E+03 0.  0.
         25    1    3    3    0    0 -0.65044717109E+02 -0.82405743716E+02 -0.21130690693E+03  0.26705736994E+03  0.12509000000E+03 0.  0.
         25    1    4    4    0    0  0.58251900189E+02  0.75100259676E+02 -0.13408200031E+03  0.20654012633E+03  0.12509000000E+03 0.  0.
<mgrwt>
<rscale>  2 0.45316266E+03</rscale>
<asrwt>0</asrwt>
<pdfrwt beam="1">  1       21 0.14272943E-01 0.45316266E+03</pdfrwt>
<pdfrwt beam="2">  1       21 0.77788768E-01 0.45316266E+03</pdfrwt>
<totfact> 0.57940512E+04</totfact>
</mgrwt>
</event>
<event>
 7    0  0.4831799E-002  0.4515281E+03  0.7546771E-02  0.1027267E+00
         21   -1    0    0  502  501  0.00000000000E+00  0.00000000000E+00  0.34961929671E+03  0.34961929671E+03  0.00000000000E+00 0. -1.
         21   -1    0    0  501  502 -0.00000000000E+00 -0.00000000000E+00 -0.14578545648E+03  0.14578545648E+03  0.00000000000E+00 0. -1.
      99926    2    1    2    0    0  0.00000000000E+00 -0.14210854715E-13  0.20383384023E+03  0.49540475318E+03  0.45152811103E+03 0.  0.
      99925    2    3    3    0    0 -0.36139866273E+02 -0.71896734394E+02  0.46559125084E+02  0.27893749359E+03  0.26298886450E+03 0.  0.
         25    1    4    4    0    0 -0.33373398803E+02 -0.41652958587E+02 -0.13924459232E+02  0.13671192842E+03  0.12509000000E+03 0.  0.
         25    1    4    4    0    0 -0.27664674697E+01 -0.30243775807E+02  0.60483584317E+02  0.14222556517E+03  0.12509000000E+03 0.  0.
         25    1    3    3    0    0  0.36139866273E+02  0.71896734394E+02  0.15727471515E+03  0.21646725959E+03  0.12509000000E+03 0.  0.
<mgrwt>
<rscale>  2 0.45152811E+03</rscale>
<asrwt>0</asrwt>
<pdfrwt beam="1">  1       21 0.51414602E-01 0.45152811E+03</pdfrwt>
<pdfrwt beam="2">  1       21 0.21439038E-01 0.45152811E+03</pdfrwt>
<totfact> 0.67434187E+04</totfact>
</mgrwt>
</event>
<event>
 7    0  0.4831799E-002  0.4538590E+03  0.7546771E-02  0.1026577E+00
         21   -1    0    0  502  501  0.00000000000E+00  0.00000000000E+00  0.56941251118E+02  0.56941251118E+02  0.00000000000E+00 0.  1.
         21   -1    0    0  501  502 -0.00000000000E+00 -0.00000000000E+00 -0.90438839210E+03  0.90438839210E+03  0.00000000000E+00 0.  1.
      99926    2    1    2    0    0  0.00000000000E+00 -0.35527136788E-14 -0.84744714098E+03  0.96132964322E+03  0.45385903778E+03 0.  0.
      99925    2    3    3    0    0 -0.10899744181E+03 -0.17978536626E+02 -0.57437483619E+03  0.64129892306E+03  0.26297183532E+03 0.  0.
         25    1    3    3    0    0  0.10899744181E+03  0.17978536626E+02 -0.27307230479E+03  0.32003072016E+03  0.12509000000E+03 0.  0.
         25    1    4    4    0    0 -0.23780973292E+02 -0.23907191561E+02 -0.21076164833E+03  0.24739658245E+03  0.12509000000E+03 0.  0.
         25    1    4    4    0    0 -0.85216468518E+02  0.59286549346E+01 -0.36361318785E+03  0.39390234061E+03  0.12509000000E+03 0.  0.
<mgrwt>
<rscale>  2 0.45385904E+03</rscale>
<asrwt>0</asrwt>
<pdfrwt beam="1">  1       21 0.83737144E-02 0.45385904E+03</pdfrwt>
<pdfrwt beam="2">  1       21 0.13299828E+00 0.45385904E+03</pdfrwt>
<totfact> 0.41050428E+04</totfact>
</mgrwt>
</event>
<event>
 7    0  0.4831799E-002  0.4547584E+03  0.7546771E-02  0.1026312E+00
         21   -1    0    0  502  501  0.00000000000E+00  0.00000000000E+00  0.33478640679E+03  0.33478640679E+03  0.00000000000E+00 0.  1.
         21   -1    0    0  501  502 -0.00000000000E+00 -0.00000000000E+00 -0.15443067496E+03  0.15443067496E+03  0.00000000000E+00 0.  1.
      99926    2    1    2    0    0 -0.17763568394E-14  0.00000000000E+00  0.18035573183E+03  0.48921708175E+03  0.45475835679E+03 0.  0.
      99925    2    3    3    0    0 -0.15793716347E+02 -0.72385985664E+02  0.21812485509E+02  0.27410631621E+03  0.26300060013E+03 0.  0.
         25    1    4    4    0    0 -0.10275142997E+02 -0.21962657169E+02  0.48814385822E+02  0.13644885209E+03  0.12509000000E+03 0.  0.
         25    1    4    4    0    0 -0.55185733500E+01 -0.50423328494E+02 -0.27001900312E+02  0.13765746412E+03  0.12509000000E+03 0.  0.
         25    1    3    3    0    0  0.15793716347E+02  0.72385985664E+02  0.15854324632E+03  0.21511076554E+03  0.12509000000E+03 0.  0.
<mgrwt>
<rscale>  2 0.45475836E+03</rscale>
<asrwt>0</asrwt>
<pdfrwt beam="1">  1       21 0.49233295E-01 0.45475836E+03</pdfrwt>
<pdfrwt beam="2">  1       21 0.22710393E-01 0.45475836E+03</pdfrwt>
<totfact> 0.66161866E+04</totfact>
</mgrwt>
</event>
<event>
 7    0  0.4831799E-002  0.4569926E+03  0.7546771E-02  0.1025657E+00
         21   -1    0    0  502  501  0.00000000000E+00  0.00000000000E+00  0.29051491055E+03  0.29051491055E+03  0.00000000000E+00 0.  1.
         21   -1    0    0  501  502 -0.00000000000E+00 -0.00000000000E+00 -0.17971734671E+03  0.17971734671E+03  0.00000000000E+00 0.  1.
      99926    2    1    2    0    0 -0.71054273576E-14 -0.14210854715E-13  0.11079756384E+03  0.47023225726E+03  0.45699264285E+03 0.  0.
      99925    2    3    3    0    0  0.48940141424E+02  0.94827648570E+02  0.25418314435E+02  0.28496341286E+03  0.26300310946E+03 0.  0.
         25    1    4    4    0    0  0.54175277191E+02  0.73731821047E+02  0.30260414623E+02  0.15790675377E+03  0.12509000000E+03 0.  0.
         25    1    3    3    0    0 -0.48940141424E+02 -0.94827648570E+02  0.85379249409E+02  0.18526884440E+03  0.12509000000E+03 0.  0.
         25    1    4    4    0    0 -0.52351357673E+01  0.21095827523E+02 -0.48421001879E+01  0.12705665909E+03  0.12509000000E+03 0.  0.
<mgrwt>
<rscale>  2 0.45699264E+03</rscale>
<asrwt>0</asrwt>
<pdfrwt beam="1">  1       21 0.42722781E-01 0.45699264E+03</pdfrwt>
<pdfrwt beam="2">  1       21 0.26429022E-01 0.45699264E+03</pdfrwt>
<totfact> 0.66363296E+04</totfact>
</mgrwt>
</event>
<event>
 7    0  0.4831799E-002  0.4482320E+03  0.7546771E-02  0.1028251E+00
         21   -1    0    0  502  501  0.00000000000E+00  0.00000000000E+00  0.16100871542E+02  0.16100871542E+02  0.00000000000E+00 0. -1.
         21   -1    0    0  501  502 -0.00000000000E+00 -0.00000000000E+00 -0.31195817571E+04  0.31195817571E+04  0.00000000000E+00 0. -1.
      99926    2    1    2    0    0 -0.71054273576E-14  0.00000000000E+00 -0.31034808855E+04  0.31356826286E+04  0.44823201641E+03 0.  0.
      99925    2    3    3    0    0 -0.41457484576E+02 -0.78621917585E+02 -0.23781650226E+04  0.23943117780E+04  0.26298267400E+03 0.  0.
         25    1    4    4    0    0 -0.73717384086E+01 -0.65894761660E+01 -0.89587803904E+03  0.90462297818E+03  0.12509000000E+03 0.  0.
         25    1    3    3    0    0  0.41457484576E+02  0.78621917585E+02 -0.72531586295E+03  0.74137085059E+03  0.12509000000E+03 0.  0.
         25    1    4    4    0    0 -0.34085746167E+02 -0.72032441419E+02 -0.14822869835E+04  0.14896887998E+04  0.12509000000E+03 0.  0.
<mgrwt>
<rscale>  2 0.44823202E+03</rscale>
<asrwt>0</asrwt>
<pdfrwt beam="1">  1       21 0.23677731E-02 0.44823202E+03</pdfrwt>
<pdfrwt beam="2">  1       21 0.45876244E+00 0.44823202E+03</pdfrwt>
<totfact> 0.26997211E+03</totfact>
</mgrwt>
</event>
<event>
 7    0  0.4831799E-002  0.4595094E+03  0.7546771E-02  0.1024924E+00
         21   -1    0    0  502  501  0.00000000000E+00  0.00000000000E+00  0.29666666565E+03  0.29666666565E+03  0.00000000000E+00 0.  1.
         21   -1    0    0  501  502 -0.00000000000E+00 -0.00000000000E+00 -0.17793443494E+03  0.17793443494E+03  0.00000000000E+00 0.  1.
      99926    2    1    2    0    0  0.00000000000E+00  0.71054273576E-14  0.11873223071E+03  0.47460110059E+03  0.45950937104E+03 0.  0.
      99925    2    3    3    0    0  0.60904965807E+02 -0.49412797329E+02  0.16482429639E+03  0.31993039871E+03  0.26274963738E+03 0.  0.
         25    1    4    4    0    0  0.50880841515E+02 -0.54890048351E+02  0.11124289845E+03  0.18336921224E+03  0.12509000000E+03 0.  0.
         25    1    3    3    0    0 -0.60904965807E+02  0.49412797329E+02 -0.46092065683E+02  0.15467070188E+03  0.12509000000E+03 0.  0.
         25    1    4    4    0    0  0.10024124291E+02  0.54772510218E+01  0.53581397943E+02  0.13656118648E+03  0.12509000000E+03 0.  0.
<mgrwt>
<rscale>  2 0.45950937E+03</rscale>
<asrwt>0</asrwt>
<pdfrwt beam="1">  1       21 0.43627451E-01 0.45950937E+03</pdfrwt>
<pdfrwt beam="2">  1       21 0.26166829E-01 0.45950937E+03</pdfrwt>
<totfact> 0.64747521E+04</totfact>
</mgrwt>
</event>
<event>
 7    0  0.4831799E-002  0.4499080E+03  0.7546771E-02  0.1027749E+00
         21   -1    0    0  502  501  0.00000000000E+00  0.00000000000E+00  0.31690855253E+02  0.31690855253E+02  0.00000000000E+00 0. -1.
         21   -1    0    0  501  502 -0.00000000000E+00 -0.00000000000E+00 -0.15968106339E+04  0.15968106339E+04  0.00000000000E+00 0. -1.
      99926    2    1    2    0    0  0.00000000000E+00  0.00000000000E+00 -0.15651197786E+04  0.16285014891E+04  0.44990796688E+03 0.  0.
      99925    2    3    3    0    0  0.66391757019E+02  0.18108721009E+02 -0.12919598677E+04  0.13202813791E+04  0.26314792255E+03 0.  0.
         25    1    4    4    0    0  0.64402048453E+00 -0.16167799199E+02 -0.63819135693E+03  0.65053633923E+03  0.12509000000E+03 0.  0.
         25    1    4    4    0    0  0.65747736534E+02  0.34276520208E+02 -0.65376851075E+03  0.66974503988E+03  0.12509000000E+03 0.  0.
         25    1    3    3    0    0 -0.66391757019E+02 -0.18108721009E+02 -0.27315991096E+03  0.30822011004E+03  0.12509000000E+03 0.  0.
<mgrwt>
<rscale>  2 0.44990797E+03</rscale>
<asrwt>0</asrwt>
<pdfrwt beam="1">  1       21 0.46604180E-02 0.44990797E+03</pdfrwt>
<pdfrwt beam="2">  1       21 0.23482519E+00 0.44990797E+03</pdfrwt>
<totfact> 0.21636182E+04</totfact>
</mgrwt>
</event>
<event>
 7    0  0.4831799E-002  0.4534111E+03  0.7546771E-02  0.1026710E+00
         21   -1    0    0  502  501  0.00000000000E+00  0.00000000000E+00  0.12518495534E+04  0.12518495534E+04  0.00000000000E+00 0.  1.
         21   -1    0    0  501  502 -0.00000000000E+00 -0.00000000000E+00 -0.41055576777E+02  0.41055576777E+02  0.00000000000E+00 0.  1.
      99926    2    1    2    0    0  0.00000000000E+00  0.00000000000E+00  0.12107939766E+04  0.12929051302E+04  0.45341109582E+03 0.  0.
      99925    2    3    3    0    0 -0.10885246633E+03  0.18446336101E+02  0.80746438938E+03  0.85642902455E+03  0.26321627463E+03 0.  0.
         25    1    3    3    0    0  0.10885246633E+03 -0.18446336101E+02  0.40332958726E+03  0.43647610565E+03  0.12509000000E+03 0.  0.
         25    1    4    4    0    0 -0.72058056226E+02  0.42015490007E+02  0.48608684842E+03  0.50880801603E+03  0.12509000000E+03 0.  0.
         25    1    4    4    0    0 -0.36794410102E+02 -0.23569153906E+02  0.32137754096E+03  0.34762100852E+03  0.12509000000E+03 0.  0.
<mgrwt>
<rscale>  2 0.45341110E+03</rscale>
<asrwt>0</asrwt>
<pdfrwt beam="1">  1       21 0.18409550E+00 0.45341110E+03</pdfrwt>
<pdfrwt beam="2">  1       21 0.60375856E-02 0.45341110E+03</pdfrwt>
<totfact> 0.29686633E+04</totfact>
</mgrwt>
</event>
<event>
 7    0  0.4831799E-002  0.4497405E+03  0.7546771E-02  0.1027799E+00
         21   -1    0    0  502  501  0.00000000000E+00  0.00000000000E+00  0.32688176627E+03  0.32688176627E+03  0.00000000000E+00 0. -1.
         21   -1    0    0  501  502 -0.00000000000E+00 -0.00000000000E+00 -0.15469394134E+03  0.15469394134E+03  0.00000000000E+00 0. -1.
      99926    2    1    2    0    0  0.71054273576E-14  0.14210854715E-13  0.17218782492E+03  0.48157570761E+03  0.44974049752E+03 0.  0.
      99925    2    3    3    0    0  0.55643746970E+02  0.85268143925E+02  0.66193031809E+02  0.28857496354E+03  0.26177683086E+03 0.  0.
         25    1    4    4    0    0  0.15071799766E+02  0.66831598292E+02  0.62544774840E+02  0.15573367856E+03  0.12509000000E+03 0.  0.
         25    1    4    4    0    0  0.40571947204E+02  0.18436545632E+02  0.36482569689E+01  0.13284128497E+03  0.12509000000E+03 0.  0.
         25    1    3    3    0    0 -0.55643746970E+02 -0.85268143925E+02  0.10599479311E+03  0.19300074407E+03  0.12509000000E+03 0.  0.
<mgrwt>
<rscale>  2 0.44974050E+03</rscale>
<asrwt>0</asrwt>
<pdfrwt beam="1">  1       21 0.48070848E-01 0.44974050E+03</pdfrwt>
<pdfrwt beam="2">  1       21 0.22749109E-01 0.44974050E+03</pdfrwt>
<totfact> 0.69439822E+04</totfact>
</mgrwt>
</event>
<event>
 7    0  0.4831799E-002  0.4568429E+03  0.7546771E-02  0.1025701E+00
         21   -1    0    0  502  501  0.00000000000E+00  0.00000000000E+00  0.34314544626E+02  0.34314544626E+02  0.00000000000E+00 0. -1.
         21   -1    0    0  501  502 -0.00000000000E+00 -0.00000000000E+00 -0.15205317879E+04  0.15205317879E+04  0.00000000000E+00 0. -1.
      99926    2    1    2    0    0  0.00000000000E+00  0.14210854715E-13 -0.14862172432E+04  0.15548463325E+04  0.45684288717E+03 0.  0.
      99925    2    3    3    0    0  0.73434838463E+02 -0.87262679896E+02 -0.98280107788E+03  0.10237316608E+04  0.26290892703E+03 0.  0.
         25    1    4    4    0    0  0.33439197656E+02 -0.79742864650E+01 -0.37241859603E+03  0.39436643867E+03  0.12509000000E+03 0.  0.
         25    1    4    4    0    0  0.39995640806E+02 -0.79288393431E+02 -0.61038248185E+03  0.62936522216E+03  0.12509000000E+03 0.  0.
         25    1    3    3    0    0 -0.73434838463E+02  0.87262679896E+02 -0.50341616536E+03  0.53111467165E+03  0.12509000000E+03 0.  0.
<mgrwt>
<rscale>  2 0.45684289E+03</rscale>
<asrwt>0</asrwt>
<pdfrwt beam="1">  1       21 0.50462587E-02 0.45684289E+03</pdfrwt>
<pdfrwt beam="2">  1       21 0.22360752E+00 0.45684289E+03</pdfrwt>
<totfact> 0.22147729E+04</totfact>
</mgrwt>
</event>
<event>
 7    0  0.4831799E-002  0.4359486E+03  0.7546771E-02  0.1031997E+00
         21   -1    0    0  502  501  0.00000000000E+00  0.00000000000E+00  0.32825768151E+03  0.32825768151E+03  0.00000000000E+00 0.  1.
         21   -1    0    0  501  502 -0.00000000000E+00 -0.00000000000E+00 -0.14474240256E+03  0.14474240256E+03  0.00000000000E+00 0.  1.
      99926    2    1    2    0    0  0.00000000000E+00 -0.17763568394E-14  0.18351527896E+03  0.47300008407E+03  0.43594864596E+03 0.  0.
      99925    2    3    3    0    0 -0.89057618464E+02  0.48948065548E+01  0.15033917942E+03  0.31582699407E+03  0.26303916587E+03 0.  0.
         25    1    4    4    0    0 -0.63222380445E+02  0.37786443745E+02  0.89855952477E+02  0.17072341672E+03  0.12509000000E+03 0.  0.
         25    1    4    4    0    0 -0.25835238019E+02 -0.32891637190E+02  0.60483226942E+02  0.14510357736E+03  0.12509000000E+03 0.  0.
         25    1    3    3    0    0  0.89057618464E+02 -0.48948065548E+01  0.33176099537E+02  0.15717308999E+03  0.12509000000E+03 0.  0.
<mgrwt>
<rscale>  2 0.43594865E+03</rscale>
<asrwt>0</asrwt>
<pdfrwt beam="1">  1       21 0.48273188E-01 0.43594865E+03</pdfrwt>
<pdfrwt beam="2">  1       21 0.21285648E-01 0.43594865E+03</pdfrwt>
<totfact> 0.78418103E+04</totfact>
</mgrwt>
</event>
<event>
 7    0  0.4831799E-002  0.4569039E+03  0.7546771E-02  0.1025683E+00
         21   -1    0    0  502  501  0.00000000000E+00  0.00000000000E+00  0.24478577375E+02  0.24478577375E+02  0.00000000000E+00 0.  1.
         21   -1    0    0  501  502 -0.00000000000E+00 -0.00000000000E+00 -0.21320799510E+04  0.21320799510E+04  0.00000000000E+00 0.  1.
      99926    2    1    2    0    0  0.00000000000E+00  0.14210854715E-13 -0.21076013736E+04  0.21565585284E+04  0.45690385882E+03 0.  0.
      99925    2    3    3    0    0 -0.88967541991E+02 -0.72768871308E+02 -0.13621407931E+04  0.13919870685E+04  0.26265933500E+03 0.  0.
         25    1    3    3    0    0  0.88967541991E+02  0.72768871308E+02 -0.74546058048E+03  0.76457145991E+03  0.12509000000E+03 0.  0.
         25    1    4    4    0    0 -0.56666558907E+02 -0.73899804079E+02 -0.81646149878E+03  0.83122149096E+03  0.12509000000E+03 0.  0.
         25    1    4    4    0    0 -0.32300983084E+02  0.11309327713E+01 -0.54567929435E+03  0.56076557749E+03  0.12509000000E+03 0.  0.
<mgrwt>
<rscale>  2 0.45690386E+03</rscale>
<asrwt>0</asrwt>
<pdfrwt beam="1">  1       21 0.35997903E-02 0.45690386E+03</pdfrwt>
<pdfrwt beam="2">  1       21 0.31354121E+00 0.45690386E+03</pdfrwt>
<totfact> 0.11152200E+04</totfact>
</mgrwt>
</event>
<event>
 7    0  0.4831799E-002  0.4452400E+03  0.7546771E-02  0.1029151E+00
         21   -1    0    0  502  501  0.00000000000E+00  0.00000000000E+00  0.16427744795E+03  0.16427744795E+03  0.00000000000E+00 0.  1.
         21   -1    0    0  501  502 -0.00000000000E+00 -0.00000000000E+00 -0.30168265970E+03  0.30168265970E+03  0.00000000000E+00 0.  1.
      99926    2    1    2    0    0  0.00000000000E+00 -0.14210854715E-13 -0.13740521175E+03  0.46596010765E+03  0.44523996867E+03 0.  0.
      99925    2    3    3    0    0 -0.79446665862E+01 -0.84216145810E+02 -0.14926318400E+03  0.31448866959E+03  0.26356810934E+03 0.  0.
         25    1    3    3    0    0  0.79446665862E+01  0.84216145810E+02  0.11857972243E+02  0.15147143806E+03  0.12509000000E+03 0.  0.
         25    1    4    4    0    0  0.23808587181E+02 -0.10509732433E+02 -0.60389438697E+02  0.14132125001E+03  0.12509000000E+03 0.  0.
         25    1    4    4    0    0 -0.31753253767E+02 -0.73706413377E+02 -0.88873745301E+02  0.17316741957E+03  0.12509000000E+03 0.  0.
<mgrwt>
<rscale>  2 0.44523997E+03</rscale>
<asrwt>0</asrwt>
<pdfrwt beam="1">  1       21 0.24158449E-01 0.44523997E+03</pdfrwt>
<pdfrwt beam="2">  1       21 0.44365096E-01 0.44523997E+03</pdfrwt>
<totfact> 0.73247243E+04</totfact>
</mgrwt>
</event>
<event>
 7    0  0.4831799E-002  0.4538672E+03  0.7546771E-02  0.1026575E+00
         21   -1    0    0  502  501  0.00000000000E+00  0.00000000000E+00  0.62700988111E+02  0.62700988111E+02  0.00000000000E+00 0. -1.
         21   -1    0    0  501  502 -0.00000000000E+00 -0.00000000000E+00 -0.82134039574E+03  0.82134039574E+03  0.00000000000E+00 0. -1.
      99926    2    1    2    0    0  0.00000000000E+00 -0.88817841970E-15 -0.75863940763E+03  0.88404138385E+03  0.45386718052E+03 0.  0.
      99925    2    3    3    0    0 -0.62747091800E+02  0.46502834937E+01 -0.65851791346E+03  0.71190584319E+03  0.26306893497E+03 0.  0.
         25    1    4    4    0    0  0.69309711032E+01 -0.59729890584E+01 -0.34442771681E+03  0.36655378209E+03  0.12509000000E+03 0.  0.
         25    1    3    3    0    0  0.62747091800E+02 -0.46502834937E+01 -0.10012149417E+03  0.17213554067E+03  0.12509000000E+03 0.  0.
         25    1    4    4    0    0 -0.69678062903E+02  0.10623272552E+02 -0.31409019665E+03  0.34535206110E+03  0.12509000000E+03 0.  0.
<mgrwt>
<rscale>  2 0.45386718E+03</rscale>
<asrwt>0</asrwt>
<pdfrwt beam="1">  1       21 0.92207339E-02 0.45386718E+03</pdfrwt>
<pdfrwt beam="2">  1       21 0.12078535E+00 0.45386718E+03</pdfrwt>
<totfact> 0.44322801E+04</totfact>
</mgrwt>
</event>
<event>
 7    0  0.4831799E-002  0.4399749E+03  0.7546771E-02  0.1030755E+00
         21   -1    0    0  502  501  0.00000000000E+00  0.00000000000E+00  0.89156588796E+02  0.89156588796E+02  0.00000000000E+00 0. -1.
         21   -1    0    0  501  502 -0.00000000000E+00 -0.00000000000E+00 -0.54280312001E+03  0.54280312001E+03  0.00000000000E+00 0. -1.
      99926    2    1    2    0    0 -0.35527136788E-14 -0.35527136788E-14 -0.45364653121E+03  0.63195970880E+03  0.43997488368E+03 0.  0.
      99925    2    3    3    0    0 -0.25592941589E+02 -0.21556938485E+02 -0.42266987972E+03  0.49881782473E+03  0.26277308612E+03 0.  0.
         25    1    4    4    0    0  0.11759067166E+00  0.11564660385E+02 -0.14814869481E+03  0.19424031268E+03  0.12509000000E+03 0.  0.
         25    1    4    4    0    0 -0.25710532261E+02 -0.33121598869E+02 -0.27452118491E+03  0.30457751205E+03  0.12509000000E+03 0.  0.
         25    1    3    3    0    0  0.25592941589E+02  0.21556938485E+02 -0.30976651489E+02  0.13314188407E+03  0.12509000000E+03 0.  0.
<mgrwt>
<rscale>  2 0.43997488E+03</rscale>
<asrwt>0</asrwt>
<pdfrwt beam="1">  1       21 0.13111263E-01 0.43997488E+03</pdfrwt>
<pdfrwt beam="2">  1       21 0.79823991E-01 0.43997488E+03</pdfrwt>
<totfact> 0.64013074E+04</totfact>
</mgrwt>
</event>
<event>
 7    0  0.4831799E-002  0.4522696E+03  0.7546771E-02  0.1027047E+00
         21   -1    0    0  502  501  0.00000000000E+00  0.00000000000E+00  0.72628474405E+02  0.72628474405E+02  0.00000000000E+00 0.  1.
         21   -1    0    0  501  502 -0.00000000000E+00 -0.00000000000E+00 -0.70408950377E+03  0.70408950377E+03  0.00000000000E+00 0.  1.
      99926    2    1    2    0    0  0.71054273576E-14  0.00000000000E+00 -0.63146102936E+03  0.77671797817E+03  0.45226959439E+03 0.  0.
      99925    2    3    3    0    0  0.50425048392E+02  0.37806886763E+02 -0.55476578485E+03  0.61702541472E+03  0.26264660701E+03 0.  0.
         25    1    3    3    0    0 -0.50425048392E+02 -0.37806886763E+02 -0.76695244514E+02  0.15969256346E+03  0.12509000000E+03 0.  0.
         25    1    4    4    0    0  0.52053017324E+02 -0.77472745342E+01 -0.30973378780E+03  0.33815982062E+03  0.12509000000E+03 0.  0.
         25    1    4    4    0    0 -0.16279689325E+01  0.45554161297E+02 -0.24503199705E+03  0.27886559410E+03  0.12509000000E+03 0.  0.
<mgrwt>
<rscale>  2 0.45226959E+03</rscale>
<asrwt>0</asrwt>
<pdfrwt beam="1">  1       21 0.10680658E-01 0.45226959E+03</pdfrwt>
<pdfrwt beam="2">  1       21 0.10354257E+00 0.45226959E+03</pdfrwt>
<totfact> 0.49974063E+04</totfact>
</mgrwt>
</event>
<event>
 7    0  0.4831799E-002  0.4545735E+03  0.7546771E-02  0.1026367E+00
         21   -1    0    0  502  501  0.00000000000E+00  0.00000000000E+00  0.19049639891E+04  0.19049639891E+04  0.00000000000E+00 0. -1.
         21   -1    0    0  501  502 -0.00000000000E+00 -0.00000000000E+00 -0.27118232756E+02  0.27118232756E+02  0.00000000000E+00 0. -1.
      99926    2    1    2    0    0 -0.71054273576E-14 -0.71054273576E-14  0.18778457563E+04  0.19320822218E+04  0.45457345653E+03 0.  0.
      99925    2    3    3    0    0 -0.34491292869E+02 -0.42342627309E+02  0.76249352560E+03  0.80840938064E+03  0.26295779651E+03 0.  0.
         25    1    3    3    0    0  0.34491292869E+02  0.42342627309E+02  0.11153522307E+04  0.11236728412E+04  0.12509000000E+03 0.  0.
         25    1    4    4    0    0  0.19141691744E+02 -0.38160678731E+02  0.35896213198E+03  0.38252315231E+03  0.12509000000E+03 0.  0.
         25    1    4    4    0    0 -0.53632984613E+02 -0.41819485780E+01  0.40353139363E+03  0.42588622832E+03  0.12509000000E+03 0.  0.
<mgrwt>
<rscale>  2 0.45457346E+03</rscale>
<asrwt>0</asrwt>
<pdfrwt beam="1">  1       21 0.28014167E+00 0.45457346E+03</pdfrwt>
<pdfrwt beam="2">  1       21 0.39879767E-02 0.45457346E+03</pdfrwt>
<totfact> 0.14899813E+04</totfact>
</mgrwt>
</event>
<event>
 7    0  0.4831799E-002  0.4509029E+03  0.7546771E-02  0.1027453E+00
         21   -1    0    0  502  501  0.00000000000E+00  0.00000000000E+00  0.14012899442E+03  0.14012899442E+03  0.00000000000E+00 0. -1.
         21   -1    0    0  501  502 -0.00000000000E+00 -0.00000000000E+00 -0.36272543185E+03  0.36272543185E+03  0.00000000000E+00 0. -1.
      99926    2    1    2    0    0  0.00000000000E+00 -0.88817841970E-15 -0.22259643743E+03  0.50285442627E+03  0.45090287209E+03 0.  0.
      99925    2    3    3    0    0  0.10906989083E+03 -0.75673224552E+01 -0.13384555920E+03  0.31449909201E+03  0.26275756831E+03 0.  0.
         25    1    3    3    0    0 -0.10906989083E+03  0.75673224552E+01 -0.88750878233E+02  0.18835533426E+03  0.12509000000E+03 0.  0.
         25    1    4    4    0    0  0.66186838620E+02  0.34009463838E+02 -0.77164598507E+02  0.16473986949E+03  0.12509000000E+03 0.  0.
         25    1    4    4    0    0  0.42883052212E+02 -0.41576786294E+02 -0.56680960694E+02  0.14975922252E+03  0.12509000000E+03 0.  0.
<mgrwt>
<rscale>  2 0.45090287E+03</rscale>
<asrwt>0</asrwt>
<pdfrwt beam="1">  1       21 0.20607206E-01 0.45090287E+03</pdfrwt>
<pdfrwt beam="2">  1       21 0.53341974E-01 0.45090287E+03</pdfrwt>
<totfact> 0.67230464E+04</totfact>
</mgrwt>
</event>
<event>
 7    0  0.4831799E-002  0.4558697E+03  0.7546771E-02  0.1025986E+00
         21   -1    0    0  502  501  0.00000000000E+00  0.00000000000E+00  0.28679018744E+03  0.28679018744E+03  0.00000000000E+00 0.  1.
         21   -1    0    0  501  502 -0.00000000000E+00 -0.00000000000E+00 -0.18115789603E+03  0.18115789603E+03  0.00000000000E+00 0.  1.
      99926    2    1    2    0    0  0.35527136788E-14  0.00000000000E+00  0.10563229140E+03  0.46794808347E+03  0.45586974876E+03 0.  0.
      99925    2    3    3    0    0  0.56849542091E+01 -0.43578486226E+01  0.18324878775E+03  0.32056036976E+03  0.26292113437E+03 0.  0.
         25    1    3    3    0    0 -0.56849542091E+01  0.43578486226E+01 -0.77616496349E+02  0.14738771372E+03  0.12509000000E+03 0.  0.
         25    1    4    4    0    0  0.35330767599E+02  0.32761900313E+01  0.63480879753E+02  0.14469390711E+03  0.12509000000E+03 0.  0.
         25    1    4    4    0    0 -0.29645813390E+02 -0.76340386539E+01  0.11976790800E+03  0.17586646265E+03  0.12509000000E+03 0.  0.
<mgrwt>
<rscale>  2 0.45586975E+03</rscale>
<asrwt>0</asrwt>
<pdfrwt beam="1">  1       21 0.42175028E-01 0.45586975E+03</pdfrwt>
<pdfrwt beam="2">  1       21 0.26640867E-01 0.45586975E+03</pdfrwt>
<totfact> 0.67124563E+04</totfact>
</mgrwt>
</event>
<event>
 7    0  0.4831799E-002  0.4532929E+03  0.7546771E-02  0.1026745E+00
         21   -1    0    0  502  501  0.00000000000E+00  0.00000000000E+00  0.38696734522E+03  0.38696734522E+03  0.00000000000E+00 0. -1.
         21   -1    0    0  501  502 -0.00000000000E+00 -0.00000000000E+00 -0.13274663909E+03  0.13274663909E+03  0.00000000000E+00 0. -1.
      99926    2    1    2    0    0 -0.14210854715E-13  0.00000000000E+00  0.25422070613E+03  0.51971398431E+03  0.45329290537E+03 0.  0.
      99925    2    3    3    0    0  0.93011316306E+02  0.17850787332E+02  0.92686958441E+02  0.29452425250E+03  0.26302833968E+03 0.  0.
         25    1    4    4    0    0  0.65530543442E+02 -0.71829314632E+00  0.11346785693E+02  0.14167224751E+03  0.12509000000E+03 0.  0.
         25    1    4    4    0    0  0.27480772864E+02  0.18569080478E+02  0.81340172748E+02  0.15285200499E+03  0.12509000000E+03 0.  0.
         25    1    3    3    0    0 -0.93011316306E+02 -0.17850787332E+02  0.16153374769E+03  0.22518973181E+03  0.12509000000E+03 0.  0.
<mgrwt>
<rscale>  2 0.45329291E+03</rscale>
<asrwt>0</asrwt>
<pdfrwt beam="1">  1       21 0.56906962E-01 0.45329291E+03</pdfrwt>
<pdfrwt beam="2">  1       21 0.19521565E-01 0.45329291E+03</pdfrwt>
<totfact> 0.64779652E+04</totfact>
</mgrwt>
</event>
<event>
 7    0  0.4831799E-002  0.4616092E+03  0.7546771E-02  0.1024316E+00
         21   -1    0    0  502  501  0.00000000000E+00  0.00000000000E+00  0.30345505442E+03  0.30345505442E+03  0.00000000000E+00 0.  1.
         21   -1    0    0  501  502 -0.00000000000E+00 -0.00000000000E+00 -0.17554743846E+03  0.17554743846E+03  0.00000000000E+00 0.  1.
      99926    2    1    2    0    0  0.17763568394E-14 -0.14210854715E-13  0.12790761596E+03  0.47900249288E+03  0.46160917448E+03 0.  0.
      99925    2    3    3    0    0 -0.99447162214E+01 -0.10054776191E+03  0.14351027724E+02  0.28214885020E+03  0.26304614018E+03 0.  0.
         25    1    4    4    0    0 -0.29564028644E+02 -0.22157145444E+02 -0.11740764984E+02  0.13095924765E+03  0.12509000000E+03 0.  0.
         25    1    3    3    0    0  0.99447162214E+01  0.10054776191E+03  0.11355658824E+03  0.19685364269E+03  0.12509000000E+03 0.  0.
         25    1    4    4    0    0  0.19619312423E+02 -0.78390616465E+02  0.26091792709E+02  0.15118960254E+03  0.12509000000E+03 0.  0.
<mgrwt>
<rscale>  2 0.46160917E+03</rscale>
<asrwt>0</asrwt>
<pdfrwt beam="1">  1       21 0.44625743E-01 0.46160917E+03</pdfrwt>
<pdfrwt beam="2">  1       21 0.25815800E-01 0.46160917E+03</pdfrwt>
<totfact> 0.63382613E+04</totfact>
</mgrwt>
</event>
<event>
 7    0  0.4831799E-002  0.4483093E+03  0.7546771E-02  0.1028227E+00
         21   -1    0    0  502  501  0.00000000000E+00  0.00000000000E+00  0.11789463053E+04  0.11789463053E+04  0.00000000000E+00 0. -1.
         21   -1    0    0  501  502 -0.00000000000E+00 -0.00000000000E+00 -0.42618827884E+02  0.42618827884E+02  0.00000000000E+00 0. -1.
      99926    2    1    2    0    0  0.14210854715E-13  0.00000000000E+00  0.11363274774E+04  0.12215651332E+04  0.44830931140E+03 0.  0.
      99925    2    3    3    0    0 -0.10094130991E+03  0.32649459513E+02  0.68507531731E+03  0.74142853247E+03  0.26293144185E+03 0.  0.
         25    1    3    3    0    0  0.10094130991E+03 -0.32649459513E+02  0.45125216014E+03  0.48013660075E+03  0.12509000000E+03 0.  0.
         25    1    4    4    0    0 -0.82988629258E+01  0.87680364068E+01  0.32309968373E+03  0.34667948211E+03  0.12509000000E+03 0.  0.
         25    1    4    4    0    0 -0.92642446981E+02  0.23881423106E+02  0.36197563358E+03  0.39474905036E+03  0.12509000000E+03 0.  0.
<mgrwt>
<rscale>  2 0.44830931E+03</rscale>
<asrwt>0</asrwt>
<pdfrwt beam="1">  1       21 0.17337444E+00 0.44830931E+03</pdfrwt>
<pdfrwt beam="2">  1       21 0.62674755E-02 0.44830931E+03</pdfrwt>
<totfact> 0.33175093E+04</totfact>
</mgrwt>
</event>
<event>
 7    0  0.4831799E-002  0.4557791E+03  0.7546771E-02  0.1026013E+00
         21   -1    0    0  502  501  0.00000000000E+00  0.00000000000E+00  0.31760324704E+03  0.31760324704E+03  0.00000000000E+00 0. -1.
         21   -1    0    0  501  502 -0.00000000000E+00 -0.00000000000E+00 -0.16351734289E+03  0.16351734289E+03  0.00000000000E+00 0. -1.
      99926    2    1    2    0    0  0.00000000000E+00  0.00000000000E+00  0.15408590415E+03  0.48112058994E+03  0.45577906512E+03 0.  0.
      99925    2    3    3    0    0 -0.45621983101E+02  0.76306992039E+02  0.17226732800E+03  0.32658193895E+03  0.26282238903E+03 0.  0.
         25    1    4    4    0    0  0.17289203110E+01  0.59682424932E+02  0.11514057553E+03  0.18019389902E+03  0.12509000000E+03 0.  0.
         25    1    4    4    0    0 -0.47350903412E+02  0.16624567107E+02  0.57126752473E+02  0.14638803993E+03  0.12509000000E+03 0.  0.
         25    1    3    3    0    0  0.45621983101E+02 -0.76306992039E+02 -0.18181423851E+02  0.15453865099E+03  0.12509000000E+03 0.  0.
<mgrwt>
<rscale>  2 0.45577907E+03</rscale>
<asrwt>0</asrwt>
<pdfrwt beam="1">  1       21 0.46706360E-01 0.45577907E+03</pdfrwt>
<pdfrwt beam="2">  1       21 0.24046668E-01 0.45577907E+03</pdfrwt>
<totfact> 0.66208244E+04</totfact>
</mgrwt>
</event>
<event>
 7    0  0.4831799E-002  0.4719250E+03  0.7546771E-02  0.1021378E+00
         21   -1    0    0  502  501  0.00000000000E+00  0.00000000000E+00  0.89200712582E+02  0.89200712582E+02  0.00000000000E+00 0.  1.
         21   -1    0    0  501  502 -0.00000000000E+00 -0.00000000000E+00 -0.62419111442E+03  0.62419111442E+03  0.00000000000E+00 0.  1.
      99926    2    1    2    0    0  0.00000000000E+00  0.88817841970E-15 -0.53499040184E+03  0.71339182701E+03  0.47192496096E+03 0.  0.
      99925    2    3    3    0    0  0.11098400256E+03  0.71653134826E+01 -0.23513835579E+03  0.36998602018E+03  0.26311749889E+03 0.  0.
         25    1    3    3    0    0 -0.11098400256E+03 -0.71653134826E+01 -0.29985204605E+03  0.34340580683E+03  0.12509000000E+03 0.  0.
         25    1    4    4    0    0  0.52050272475E+02 -0.81214153973E+01 -0.16662417012E+03  0.21491000540E+03  0.12509000000E+03 0.  0.
         25    1    4    4    0    0  0.58933730084E+02  0.15286728880E+02 -0.68514185669E+02  0.15507601478E+03  0.12509000000E+03 0.  0.
<mgrwt>
<rscale>  2 0.47192496E+03</rscale>
<asrwt>0</asrwt>
<pdfrwt beam="1">  1       21 0.13117752E-01 0.47192496E+03</pdfrwt>
<pdfrwt beam="2">  1       21 0.91792808E-01 0.47192496E+03</pdfrwt>
<totfact> 0.45774366E+04</totfact>
</mgrwt>
</event>
<event>
 7    0  0.4831799E-002  0.4589516E+03  0.7546771E-02  0.1025086E+00
         21   -1    0    0  502  501  0.00000000000E+00  0.00000000000E+00  0.91427630119E+02  0.91427630119E+02  0.00000000000E+00 0.  1.
         21   -1    0    0  501  502 -0.00000000000E+00 -0.00000000000E+00 -0.57596540730E+03  0.57596540730E+03  0.00000000000E+00 0.  1.
      99926    2    1    2    0    0  0.14210854715E-13  0.35527136788E-14 -0.48453777718E+03  0.66739303742E+03  0.45895164111E+03 0.  0.
      99925    2    3    3    0    0  0.97887422828E+02  0.28738139320E+02 -0.38779295812E+03  0.47920457785E+03  0.26238487164E+03 0.  0.
         25    1    4    4    0    0  0.47221195078E+02 -0.16406692624E+02 -0.23139495815E+03  0.26775017383E+03  0.12509000000E+03 0.  0.
         25    1    4    4    0    0  0.50666227750E+02  0.45144831944E+02 -0.15639799998E+03  0.21145440403E+03  0.12509000000E+03 0.  0.
         25    1    3    3    0    0 -0.97887422828E+02 -0.28738139320E+02 -0.96744819054E+02  0.18818845956E+03  0.12509000000E+03 0.  0.
<mgrwt>
<rscale>  2 0.45895164E+03</rscale>
<asrwt>0</asrwt>
<pdfrwt beam="1">  1       21 0.13445239E-01 0.45895164E+03</pdfrwt>
<pdfrwt beam="2">  1       21 0.84700800E-01 0.45895164E+03</pdfrwt>
<totfact> 0.53037466E+04</totfact>
</mgrwt>
</event>
<event>
 7    0  0.4831799E-002  0.4485141E+03  0.7546771E-02  0.1028166E+00
         21   -1    0    0  502  501  0.00000000000E+00  0.00000000000E+00  0.21392850960E+03  0.21392850960E+03  0.00000000000E+00 0. -1.
         21   -1    0    0  501  502 -0.00000000000E+00 -0.00000000000E+00 -0.23508423680E+03  0.23508423680E+03  0.00000000000E+00 0. -1.
      99926    2    1    2    0    0  0.00000000000E+00  0.00000000000E+00 -0.21155727200E+02  0.44901274640E+03  0.44851408187E+03 0.  0.
      99925    2    3    3    0    0  0.44225857918E+02 -0.92310473634E+02  0.15333062838E+02  0.28331395356E+03  0.26373195372E+03 0.  0.
         25    1    4    4    0    0  0.25658184787E+02 -0.85937127023E+02  0.26569542373E+02  0.15619532941E+03  0.12509000000E+03 0.  0.
         25    1    3    3    0    0 -0.44225857918E+02  0.92310473634E+02 -0.36488790037E+02  0.16569879284E+03  0.12509000000E+03 0.  0.
         25    1    4    4    0    0  0.18567673130E+02 -0.63733466117E+01 -0.11236479536E+02  0.12711862415E+03  0.12509000000E+03 0.  0.
<mgrwt>
<rscale>  2 0.44851408E+03</rscale>
<asrwt>0</asrwt>
<pdfrwt beam="1">  1       21 0.31460075E-01 0.44851408E+03</pdfrwt>
<pdfrwt beam="2">  1       21 0.34571211E-01 0.44851408E+03</pdfrwt>
<totfact> 0.72675468E+04</totfact>
</mgrwt>
</event>
<event>
 7    0  0.4831799E-002  0.4586658E+03  0.7546771E-02  0.1025169E+00
         21   -1    0    0  502  501  0.00000000000E+00  0.00000000000E+00  0.67771170755E+03  0.67771170755E+03  0.00000000000E+00 0.  1.
         21   -1    0    0  501  502 -0.00000000000E+00 -0.00000000000E+00 -0.77604654852E+02  0.77604654852E+02  0.00000000000E+00 0.  1.
      99926    2    1    2    0    0  0.35527136788E-14  0.00000000000E+00  0.60010705270E+03  0.75531636240E+03  0.45866581802E+03 0.  0.
      99925    2    3    3    0    0  0.14219817175E+02  0.12968455014E+02  0.18709802734E+03  0.32335068419E+03  0.26302016863E+03 0.  0.
         25    1    4    4    0    0 -0.24702206455E+02  0.15322278347E+02  0.63653841698E+02  0.14333279764E+03  0.12509000000E+03 0.  0.
         25    1    4    4    0    0  0.38922023630E+02 -0.23538233325E+01  0.12344418564E+03  0.18001788654E+03  0.12509000000E+03 0.  0.
         25    1    3    3    0    0 -0.14219817175E+02 -0.12968455014E+02  0.41300902536E+03  0.43196567822E+03  0.12509000000E+03 0.  0.
<mgrwt>
<rscale>  2 0.45866582E+03</rscale>
<asrwt>0</asrwt>
<pdfrwt beam="1">  1       21 0.99663483E-01 0.45866582E+03</pdfrwt>
<pdfrwt beam="2">  1       21 0.11412450E-01 0.45866582E+03</pdfrwt>
<totfact> 0.48585614E+04</totfact>
</mgrwt>
</event>
<event>
 7    0  0.4831799E-002  0.4542636E+03  0.7546771E-02  0.1026458E+00
         21   -1    0    0  502  501  0.00000000000E+00  0.00000000000E+00  0.24775947189E+03  0.24775947189E+03  0.00000000000E+00 0.  1.
         21   -1    0    0  501  502 -0.00000000000E+00 -0.00000000000E+00 -0.20822149528E+03  0.20822149528E+03  0.00000000000E+00 0.  1.
      99926    2    1    2    0    0  0.14210854715E-13  0.00000000000E+00  0.39537976610E+02  0.45598096716E+03  0.45426356977E+03 0.  0.
      99925    2    3    3    0    0  0.10249103754E+03 -0.13158831042E+01 -0.21075251027E+02  0.28327423368E+03  0.26323749911E+03 0.  0.
         25    1    4    4    0    0  0.12142920769E+02 -0.20611708066E+00  0.92302400819E+01  0.12601665938E+03  0.12509000000E+03 0.  0.
         25    1    4    4    0    0  0.90348116773E+02 -0.11097660236E+01 -0.30305491109E+02  0.15725757431E+03  0.12509000000E+03 0.  0.
         25    1    3    3    0    0 -0.10249103754E+03  0.13158831042E+01  0.60613227637E+02  0.17270673348E+03  0.12509000000E+03 0.  0.
<mgrwt>
<rscale>  2 0.45426357E+03</rscale>
<asrwt>0</asrwt>
<pdfrwt beam="1">  1       21 0.36435217E-01 0.45426357E+03</pdfrwt>
<pdfrwt beam="2">  1       21 0.30620808E-01 0.45426357E+03</pdfrwt>
<totfact> 0.68877829E+04</totfact>
</mgrwt>
</event>
<event>
 7    0  0.4831799E-002  0.4565154E+03  0.7546771E-02  0.1025797E+00
         21   -1    0    0  502  501  0.00000000000E+00  0.00000000000E+00  0.21328368239E+03  0.21328368239E+03  0.00000000000E+00 0.  1.
         21   -1    0    0  501  502 -0.00000000000E+00 -0.00000000000E+00 -0.24428303214E+03  0.24428303214E+03  0.00000000000E+00 0.  1.
      99926    2    1    2    0    0  0.35527136788E-14 -0.71054273576E-14 -0.30999349744E+02  0.45756671453E+03  0.45651543080E+03 0.  0.
      99925    2    3    3    0    0 -0.23042782482E+02  0.58821222148E+02 -0.11529590464E+03  0.29402979739E+03  0.26300089377E+03 0.  0.
         25    1    3    3    0    0  0.23042782482E+02 -0.58821222148E+02  0.84296554897E+02  0.16353691714E+03  0.12509000000E+03 0.  0.
         25    1    4    4    0    0 -0.48725589497E+02  0.17958791824E+02 -0.70332950434E+02  0.15261367335E+03  0.12509000000E+03 0.  0.
         25    1    4    4    0    0  0.25682807016E+02  0.40862430323E+02 -0.44962954207E+02  0.14141612404E+03  0.12509000000E+03 0.  0.
<mgrwt>
<rscale>  2 0.45651543E+03</rscale>
<asrwt>0</asrwt>
<pdfrwt beam="1">  1       21 0.31365248E-01 0.45651543E+03</pdfrwt>
<pdfrwt beam="2">  1       21 0.35923975E-01 0.45651543E+03</pdfrwt>
<totfact> 0.67537880E+04</totfact>
</mgrwt>
</event>
<event>
 7    0  0.4831799E-002  0.4574985E+03  0.7546771E-02  0.1025509E+00
         21   -1    0    0  502  501  0.00000000000E+00  0.00000000000E+00  0.10505385196E+04  0.10505385196E+04  0.00000000000E+00 0.  1.
         21   -1    0    0  501  502 -0.00000000000E+00 -0.00000000000E+00 -0.49808948058E+02  0.49808948058E+02  0.00000000000E+00 0.  1.
      99926    2    1    2    0    0  0.00000000000E+00  0.00000000000E+00  0.10007295715E+04  0.11003474676E+04  0.45749849641E+03 0.  0.
      99925    2    3    3    0    0  0.94348893710E+02  0.62383893418E+02  0.68539107867E+03  0.74274526256E+03  0.26289946830E+03 0.  0.
         25    1    3    3    0    0 -0.94348893710E+02 -0.62383893418E+02  0.31533849285E+03  0.35760220508E+03  0.12509000000E+03 0.  0.
         25    1    4    4    0    0  0.20149994773E+02  0.37327662492E+02  0.40331763344E+03  0.42439603935E+03  0.12509000000E+03 0.  0.
         25    1    4    4    0    0  0.74198898937E+02  0.25056230926E+02  0.28207344524E+03  0.31834922321E+03  0.12509000000E+03 0.  0.
<mgrwt>
<rscale>  2 0.45749850E+03</rscale>
<asrwt>0</asrwt>
<pdfrwt beam="1">  1       21 0.15449094E+00 0.45749850E+03</pdfrwt>
<pdfrwt beam="2">  1       21 0.73248460E-02 0.45749850E+03</pdfrwt>
<totfact> 0.34798966E+04</totfact>
</mgrwt>
</event>
<event>
 7    0  0.4831799E-002  0.3944247E+03  0.7546771E-02  0.1045727E+00
         21   -1    0    0  502  501  0.00000000000E+00  0.00000000000E+00  0.10669213148E+03  0.10669213148E+03  0.00000000000E+00 0.  1.
         21   -1    0    0  501  502 -0.00000000000E+00 -0.00000000000E+00 -0.36453209804E+03  0.36453209804E+03  0.00000000000E+00 0.  1.
      99926    2    1    2    0    0 -0.88817841970E-15 -0.71054273576E-14 -0.25783996655E+03  0.47122422952E+03  0.39442467739E+03 0.  0.
      99925    2    3    3    0    0  0.12391692038E+01  0.32487188554E+02 -0.16274670000E+03  0.31076491878E+03  0.26273826029E+03 0.  0.
         25    1    4    4    0    0  0.33506965175E+02 -0.66897386867E+01 -0.76044624178E+02  0.15032552107E+03  0.12509000000E+03 0.  0.
         25    1    4    4    0    0 -0.32267795971E+02  0.39176927240E+02 -0.86702075823E+02  0.16043939771E+03  0.12509000000E+03 0.  0.
         25    1    3    3    0    0 -0.12391692038E+01 -0.32487188554E+02 -0.95093266551E+02  0.16045931074E+03  0.12509000000E+03 0.  0.
<mgrwt>
<rscale>  2 0.39442468E+03</rscale>
<asrwt>0</asrwt>
<pdfrwt beam="1">  1       21 0.15690019E-01 0.39442468E+03</pdfrwt>
<pdfrwt beam="2">  1       21 0.53607661E-01 0.39442468E+03</pdfrwt>
<totfact> 0.11240183E+05</totfact>
</mgrwt>
</event>
<event>
 7    0  0.4831799E-002  0.4601409E+03  0.7546771E-02  0.1024740E+00
         21   -1    0    0  502  501  0.00000000000E+00  0.00000000000E+00  0.13521077105E+02  0.13521077105E+02  0.00000000000E+00 0. -1.
         21   -1    0    0  501  502 -0.00000000000E+00 -0.00000000000E+00 -0.39148067930E+04  0.39148067930E+04  0.00000000000E+00 0. -1.
      99926    2    1    2    0    0  0.00000000000E+00  0.00000000000E+00 -0.39012857159E+04  0.39283278701E+04  0.46014086756E+03 0.  0.
      99925    2    3    3    0    0  0.10908465737E+03  0.34681046524E+02 -0.21995031016E+04  0.22181191660E+04  0.26293821100E+03 0.  0.
         25    1    4    4    0    0  0.95720532941E+02  0.20394270695E+02 -0.11164699244E+04  0.11277104889E+04  0.12509000000E+03 0.  0.
         25    1    3    3    0    0 -0.10908465737E+03 -0.34681046524E+02 -0.17017826142E+04  0.17102087041E+04  0.12509000000E+03 0.  0.
         25    1    4    4    0    0  0.13364124428E+02  0.14286775829E+02 -0.10830331773E+04  0.10904086770E+04  0.12509000000E+03 0.  0.
<mgrwt>
<rscale>  2 0.46014087E+03</rscale>
<asrwt>0</asrwt>
<pdfrwt beam="1">  1       21 0.19883917E-02 0.46014087E+03</pdfrwt>
<pdfrwt beam="2">  1       21 0.57570746E+00 0.46014087E+03</pdfrwt>
<totfact> 0.50750281E+02</totfact>
</mgrwt>
</event>
<event>
 7    0  0.4831799E-002  0.4560409E+03  0.7546771E-02  0.1025936E+00
         21   -1    0    0  502  501  0.00000000000E+00  0.00000000000E+00  0.17682622588E+03  0.17682622588E+03  0.00000000000E+00 0. -1.
         21   -1    0    0  501  502 -0.00000000000E+00 -0.00000000000E+00 -0.29403631580E+03  0.29403631580E+03  0.00000000000E+00 0. -1.
      99926    2    1    2    0    0  0.35527136788E-14  0.14210854715E-13 -0.11721008991E+03  0.47086254168E+03  0.45604092796E+03 0.  0.
      99925    2    3    3    0    0  0.19054821310E+02  0.92782936929E+02 -0.13951529297E+03  0.31237976727E+03  0.26295406905E+03 0.  0.
         25    1    4    4    0    0  0.14425206823E+02  0.87827784353E+02 -0.87756261815E+02  0.17683460036E+03  0.12509000000E+03 0.  0.
         25    1    3    3    0    0 -0.19054821310E+02 -0.92782936929E+02  0.22305203053E+02  0.15848277441E+03  0.12509000000E+03 0.  0.
         25    1    4    4    0    0  0.46296144865E+01  0.49551525760E+01 -0.51759031153E+02  0.13554516691E+03  0.12509000000E+03 0.  0.
<mgrwt>
<rscale>  2 0.45604093E+03</rscale>
<asrwt>0</asrwt>
<pdfrwt beam="1">  1       21 0.26003857E-01 0.45604093E+03</pdfrwt>
<pdfrwt beam="2">  1       21 0.43240634E-01 0.45604093E+03</pdfrwt>
<totfact> 0.66818144E+04</totfact>
</mgrwt>
</event>
<event>
 7    0  0.4831799E-002  0.4451299E+03  0.7546771E-02  0.1029184E+00
         21   -1    0    0  502  501  0.00000000000E+00  0.00000000000E+00  0.33567891743E+02  0.33567891743E+02  0.00000000000E+00 0.  1.
         21   -1    0    0  501  502 -0.00000000000E+00 -0.00000000000E+00 -0.14756705582E+04  0.14756705582E+04  0.00000000000E+00 0.  1.
      99926    2    1    2    0    0  0.00000000000E+00  0.00000000000E+00 -0.14421026664E+04  0.15092384499E+04  0.44512986664E+03 0.  0.
      99925    2    3    3    0    0  0.28287936962E+02 -0.43973108676E+02 -0.61458650797E+03  0.67068949948E+03  0.26338942133E+03 0.  0.
         25    1    4    4    0    0  0.14361197960E+02  0.15618264691E+02 -0.24861033918E+03  0.27911428313E+03  0.12509000000E+03 0.  0.
         25    1    3    3    0    0 -0.28287936962E+02  0.43973108676E+02 -0.82751615845E+03  0.83854895043E+03  0.12509000000E+03 0.  0.
         25    1    4    4    0    0  0.13926739002E+02 -0.59591373367E+02 -0.36597616879E+03  0.39157521635E+03  0.12509000000E+03 0.  0.
<mgrwt>
<rscale>  2 0.44512987E+03</rscale>
<asrwt>0</asrwt>
<pdfrwt beam="1">  1       21 0.49364552E-02 0.44512987E+03</pdfrwt>
<pdfrwt beam="2">  1       21 0.21701035E+00 0.44512987E+03</pdfrwt>
<totfact> 0.25449472E+04</totfact>
</mgrwt>
</event>
<event>
 7    0  0.4831799E-002  0.4544051E+03  0.7546771E-02  0.1026416E+00
         21   -1    0    0  502  501  0.00000000000E+00  0.00000000000E+00  0.11693897793E+04  0.11693897793E+04  0.00000000000E+00 0. -1.
         21   -1    0    0  501  502 -0.00000000000E+00 -0.00000000000E+00 -0.44143533567E+02  0.44143533567E+02  0.00000000000E+00 0. -1.
      99926    2    1    2    0    0  0.14210854715E-13  0.00000000000E+00  0.11252462457E+04  0.12135333129E+04  0.45440509229E+03 0.  0.
      99925    2    3    3    0    0 -0.86827053712E+02  0.64389242760E+02  0.62424507855E+03  0.68595906268E+03  0.26300761537E+03 0.  0.
         25    1    4    4    0    0 -0.23831913880E+02 -0.15637618064E+01  0.32457003963E+03  0.34865975420E+03  0.12509000000E+03 0.  0.
         25    1    4    4    0    0 -0.62995139832E+02  0.65953004566E+02  0.29967503892E+03  0.33729930849E+03  0.12509000000E+03 0.  0.
         25    1    3    3    0    0  0.86827053712E+02 -0.64389242760E+02  0.50100116718E+03  0.52757425018E+03  0.12509000000E+03 0.  0.
<mgrwt>
<rscale>  2 0.45440509E+03</rscale>
<asrwt>0</asrwt>
<pdfrwt beam="1">  1       21 0.17196907E+00 0.45440509E+03</pdfrwt>
<pdfrwt beam="2">  1       21 0.64916968E-02 0.45440509E+03</pdfrwt>
<totfact> 0.31877395E+04</totfact>
</mgrwt>
</event>
<event>
 7    0  0.4831799E-002  0.4403682E+03  0.7546771E-02  0.1030634E+00
         21   -1    0    0  502  501  0.00000000000E+00  0.00000000000E+00  0.31451224122E+03  0.31451224122E+03  0.00000000000E+00 0.  1.
         21   -1    0    0  501  502 -0.00000000000E+00 -0.00000000000E+00 -0.15414675769E+03  0.15414675769E+03  0.00000000000E+00 0.  1.
      99926    2    1    2    0    0  0.71054273576E-14 -0.71054273576E-14  0.16036548353E+03  0.46865899892E+03  0.44036821974E+03 0.  0.
      99925    2    3    3    0    0  0.54882724894E+02 -0.60674091416E+02  0.16127358822E+03  0.31918729051E+03  0.26301691448E+03 0.  0.
         25    1    4    4    0    0  0.37387912066E+02  0.17943995993E+01  0.50686062019E+02  0.14006306016E+03  0.12509000000E+03 0.  0.
         25    1    3    3    0    0 -0.54882724894E+02  0.60674091416E+02 -0.90810469319E+00  0.14947170841E+03  0.12509000000E+03 0.  0.
         25    1    4    4    0    0  0.17494812828E+02 -0.62468491015E+02  0.11058752620E+03  0.17912423035E+03  0.12509000000E+03 0.  0.
<mgrwt>
<rscale>  2 0.44036822E+03</rscale>
<asrwt>0</asrwt>
<pdfrwt beam="1">  1       21 0.46251800E-01 0.44036822E+03</pdfrwt>
<pdfrwt beam="2">  1       21 0.22668641E-01 0.44036822E+03</pdfrwt>
<totfact> 0.75982867E+04</totfact>
</mgrwt>
</event>
<event>
 7    0  0.4831799E-002  0.4554281E+03  0.7546771E-02  0.1026116E+00
         21   -1    0    0  502  501  0.00000000000E+00  0.00000000000E+00  0.75272103487E+02  0.75272103487E+02  0.00000000000E+00 0.  1.
         21   -1    0    0  501  502 -0.00000000000E+00 -0.00000000000E+00 -0.68888321694E+03  0.68888321694E+03  0.00000000000E+00 0.  1.
      99926    2    1    2    0    0  0.00000000000E+00  0.00000000000E+00 -0.61361111346E+03  0.76415532043E+03  0.45542810101E+03 0.  0.
      99925    2    3    3    0    0 -0.79039494684E+02 -0.57864884249E+02 -0.48246310346E+03  0.55813858525E+03  0.26296852967E+03 0.  0.
         25    1    4    4    0    0 -0.49108614922E+02 -0.14634026745E+02 -0.16788262708E+03  0.21554093665E+03  0.12509000000E+03 0.  0.
         25    1    4    4    0    0 -0.29930879761E+02 -0.43230857504E+02 -0.31458047638E+03  0.34259764860E+03  0.12509000000E+03 0.  0.
         25    1    3    3    0    0  0.79039494684E+02  0.57864884249E+02 -0.13114801000E+03  0.20601673518E+03  0.12509000000E+03 0.  0.
<mgrwt>
<rscale>  2 0.45542810E+03</rscale>
<asrwt>0</asrwt>
<pdfrwt beam="1">  1       21 0.11069427E-01 0.45542810E+03</pdfrwt>
<pdfrwt beam="2">  1       21 0.10130636E+00 0.45542810E+03</pdfrwt>
<totfact> 0.49381030E+04</totfact>
</mgrwt>
</event>
<event>
 7    0  0.4831799E-002  0.4545414E+03  0.7546771E-02  0.1026376E+00
         21   -1    0    0  502  501  0.00000000000E+00  0.00000000000E+00  0.87764974083E+02  0.87764974083E+02  0.00000000000E+00 0.  1.
         21   -1    0    0  501  502 -0.00000000000E+00 -0.00000000000E+00 -0.58852607931E+03  0.58852607931E+03  0.00000000000E+00 0.  1.
      99926    2    1    2    0    0 -0.88817841970E-15  0.00000000000E+00 -0.50076110522E+03  0.67629105339E+03  0.45454142208E+03 0.  0.
      99925    2    3    3    0    0  0.33481698269E+01  0.23165595582E+02 -0.14982020679E+03  0.30298839153E+03  0.26231282084E+03 0.  0.
         25    1    3    3    0    0 -0.33481698269E+01 -0.23165595582E+02 -0.35094089843E+03  0.37330266186E+03  0.12509000000E+03 0.  0.
         25    1    4    4    0    0  0.23231332649E+02  0.29385345217E+02 -0.43902956282E+02  0.13776128266E+03  0.12509000000E+03 0.  0.
         25    1    4    4    0    0 -0.19883162822E+02 -0.62197496343E+01 -0.10591725051E+03  0.16522710887E+03  0.12509000000E+03 0.  0.
<mgrwt>
<rscale>  2 0.45454142E+03</rscale>
<asrwt>0</asrwt>
<pdfrwt beam="1">  1       21 0.12906614E-01 0.45454142E+03</pdfrwt>
<pdfrwt beam="2">  1       21 0.86547952E-01 0.45454142E+03</pdfrwt>
<totfact> 0.54406025E+04</totfact>
</mgrwt>
</event>
<event>
 6    0  0.4831799E-002  0.4632096E+03  0.7546771E-02  0.1023854E+00
         21   -1    0    0  502  501  0.00000000000E+00  0.00000000000E+00  0.26487339122E+03  0.26487339122E+03  0.00000000000E+00 0.  1.
         21   -1    0    0  501  502 -0.00000000000E+00 -0.00000000000E+00 -0.20251480571E+03  0.20251480571E+03  0.00000000000E+00 0.  1.
      99926    2    1    2    0    0 -0.14210854715E-13  0.00000000000E+00  0.62358585507E+02  0.46738819693E+03  0.46320959990E+03 0.  0.
         25    1    3    3    0    0 -0.78971558200E+02 -0.27396522032E+02  0.18803348103E+01  0.15045969621E+03  0.12509000000E+03 0.  0.
         25    1    3    3    0    0  0.77576932037E+02  0.44861577209E+02  0.10124962245E+03  0.18420025961E+03  0.12509000000E+03 0.  0.
         25    1    3    3    0    0  0.13946261635E+01 -0.17465055177E+02 -0.40771371750E+02  0.13272824111E+03  0.12509000000E+03 0.  0.
<mgrwt>
<rscale>  2 0.46320960E+03</rscale>
<asrwt>0</asrwt>
<pdfrwt beam="1">  1       21 0.38951969E-01 0.46320960E+03</pdfrwt>
<pdfrwt beam="2">  1       21 0.29781589E-01 0.46320960E+03</pdfrwt>
<totfact> 0.63392371E+04</totfact>
</mgrwt>
</event>
<event>
 7    0  0.4831799E-002  0.4537902E+03  0.7546771E-02  0.1026598E+00
         21   -1    0    0  502  501  0.00000000000E+00  0.00000000000E+00  0.11798609930E+03  0.11798609930E+03  0.00000000000E+00 0. -1.
         21   -1    0    0  501  502 -0.00000000000E+00 -0.00000000000E+00 -0.43633428120E+03  0.43633428120E+03  0.00000000000E+00 0. -1.
      99926    2    1    2    0    0 -0.14210854715E-13  0.17763568394E-14 -0.31834818190E+03  0.55432038051E+03  0.45379017103E+03 0.  0.
      99925    2    3    3    0    0 -0.11086005360E+03  0.77604578536E+01 -0.18377097910E+03  0.33959099778E+03  0.26305911280E+03 0.  0.
         25    1    4    4    0    0 -0.18222312575E+02  0.22618777610E+02 -0.95455335392E+02  0.16000903390E+03  0.12509000000E+03 0.  0.
         25    1    4    4    0    0 -0.92637741021E+02 -0.14858319756E+02 -0.88315643708E+02  0.17958196388E+03  0.12509000000E+03 0.  0.
         25    1    3    3    0    0  0.11086005360E+03 -0.77604578536E+01 -0.13457720280E+03  0.21472938272E+03  0.12509000000E+03 0.  0.
<mgrwt>
<rscale>  2 0.45379017E+03</rscale>
<asrwt>0</asrwt>
<pdfrwt beam="1">  1       21 0.17350897E-01 0.45379017E+03</pdfrwt>
<pdfrwt beam="2">  1       21 0.64166806E-01 0.45379017E+03</pdfrwt>
<totfact> 0.62174858E+04</totfact>
</mgrwt>
</event>
<event>
 7    0  0.4831799E-002  0.4547183E+03  0.7546771E-02  0.1026324E+00
         21   -1    0    0  502  501  0.00000000000E+00  0.00000000000E+00  0.42116875767E+03  0.42116875767E+03  0.00000000000E+00 0. -1.
         21   -1    0    0  501  502 -0.00000000000E+00 -0.00000000000E+00 -0.12273507771E+03  0.12273507771E+03  0.00000000000E+00 0. -1.
      99926    2    1    2    0    0  0.00000000000E+00 -0.24424906542E-14  0.29843367995E+03  0.54390383538E+03  0.45471828731E+03 0.  0.
      99925    2    3    3    0    0  0.93183841473E+02  0.10602484309E+01  0.11216123395E+03  0.30094440527E+03  0.26325470599E+03 0.  0.
         25    1    3    3    0    0 -0.93183841473E+02 -0.10602484309E+01  0.18627244600E+03  0.24295943011E+03  0.12509000000E+03 0.  0.
         25    1    4    4    0    0  0.38474289638E+02  0.16796779250E+02  0.15352751025E+02  0.13283680898E+03  0.12509000000E+03 0.  0.
         25    1    4    4    0    0  0.54709551835E+02 -0.15736530819E+02  0.96808482930E+02  0.16810759629E+03  0.12509000000E+03 0.  0.
<mgrwt>
<rscale>  2 0.45471829E+03</rscale>
<asrwt>0</asrwt>
<pdfrwt beam="1">  1       21 0.61936581E-01 0.45471829E+03</pdfrwt>
<pdfrwt beam="2">  1       21 0.18049276E-01 0.45471829E+03</pdfrwt>
<totfact> 0.62410169E+04</totfact>
</mgrwt>
</event>
<event>
 7    0  0.4831799E-002  0.4574158E+03  0.7546771E-02  0.1025533E+00
         21   -1    0    0  502  501  0.00000000000E+00  0.00000000000E+00  0.80539373374E+03  0.80539373374E+03  0.00000000000E+00 0.  1.
         21   -1    0    0  501  502 -0.00000000000E+00 -0.00000000000E+00 -0.64946262040E+02  0.64946262040E+02  0.00000000000E+00 0.  1.
      99926    2    1    2    0    0  0.71054273576E-14 -0.71054273576E-14  0.74044747170E+03  0.87033999578E+03  0.45741583915E+03 0.  0.
      99925    2    3    3    0    0  0.61358020492E+02 -0.58094654702E+02  0.61514977929E+03  0.67415942740E+03  0.26256787126E+03 0.  0.
         25    1    4    4    0    0  0.20272111310E+02 -0.29644396334E+02  0.39684966547E+03  0.41764448257E+03  0.12509000000E+03 0.  0.
         25    1    3    3    0    0 -0.61358020492E+02  0.58094654702E+02  0.12529769241E+03  0.19618056837E+03  0.12509000000E+03 0.  0.
         25    1    4    4    0    0  0.41085909182E+02 -0.28450258368E+02  0.21830011381E+03  0.25651494484E+03  0.12509000000E+03 0.  0.
<mgrwt>
<rscale>  2 0.45741584E+03</rscale>
<asrwt>0</asrwt>
<pdfrwt beam="1">  1       21 0.11844025E+00 0.45741584E+03</pdfrwt>
<pdfrwt beam="2">  1       21 0.95509213E-02 0.45741584E+03</pdfrwt>
<totfact> 0.43707930E+04</totfact>
</mgrwt>
</event>
<event>
 7    0  0.4831799E-002  0.4589077E+03  0.7546771E-02  0.1025099E+00
         21   -1    0    0  502  501  0.00000000000E+00  0.00000000000E+00  0.71186425438E+03  0.71186425438E+03  0.00000000000E+00 0.  1.
         21   -1    0    0  501  502 -0.00000000000E+00 -0.00000000000E+00 -0.73959408841E+02  0.73959408841E+02  0.00000000000E+00 0.  1.
      99926    2    1    2    0    0  0.00000000000E+00  0.00000000000E+00  0.63790484554E+03  0.78582366322E+03  0.45890765707E+03 0.  0.
      99925    2    3    3    0    0  0.25614804377E+02  0.58601128414E+02  0.56740677974E+03  0.62863684496E+03  0.26295174213E+03 0.  0.
         25    1    4    4    0    0  0.22394741145E+02  0.69442866300E+02  0.31595557117E+03  0.34756188969E+03  0.12509000000E+03 0.  0.
         25    1    4    4    0    0  0.32200632318E+01 -0.10841737886E+02  0.25145120857E+03  0.28107495527E+03  0.12509000000E+03 0.  0.
         25    1    3    3    0    0 -0.25614804377E+02 -0.58601128414E+02  0.70498065798E+02  0.15718681826E+03  0.12509000000E+03 0.  0.
<mgrwt>
<rscale>  2 0.45890766E+03</rscale>
<asrwt>0</asrwt>
<pdfrwt beam="1">  1       21 0.10468592E+00 0.45890766E+03</pdfrwt>
<pdfrwt beam="2">  1       21 0.10876384E-01 0.45890766E+03</pdfrwt>
<totfact> 0.47000024E+04</totfact>
</mgrwt>
</event>
<event>
 7    0  0.4831799E-002  0.4536114E+03  0.7546771E-02  0.1026651E+00
         21   -1    0    0  502  501  0.00000000000E+00  0.00000000000E+00  0.79274911811E+03  0.79274911811E+03  0.00000000000E+00 0.  1.
         21   -1    0    0  501  502 -0.00000000000E+00 -0.00000000000E+00 -0.64889157063E+02  0.64889157063E+02  0.00000000000E+00 0.  1.
      99926    2    1    2    0    0 -0.14210854715E-13  0.35527136788E-14  0.72785996104E+03  0.85763827517E+03  0.45361138450E+03 0.  0.
      99925    2    3    3    0    0 -0.95204414868E+02  0.21089628047E+02  0.56383914146E+03  0.62947388185E+03  0.26232448889E+03 0.  0.
         25    1    4    4    0    0 -0.14986671335E+02 -0.14455734879E+02  0.24233385311E+03  0.27350826870E+03  0.12509000000E+03 0.  0.
         25    1    3    3    0    0  0.95204414868E+02 -0.21089628047E+02  0.16402081958E+03  0.22816439332E+03  0.12509000000E+03 0.  0.
         25    1    4    4    0    0 -0.80217743534E+02  0.35545362926E+02  0.32150528836E+03  0.35596561315E+03  0.12509000000E+03 0.  0.
<mgrwt>
<rscale>  2 0.45361138E+03</rscale>
<asrwt>0</asrwt>
<pdfrwt beam="1">  1       21 0.11658075E+00 0.45361138E+03</pdfrwt>
<pdfrwt beam="2">  1       21 0.95425236E-02 0.45361138E+03</pdfrwt>
<totfact> 0.45594170E+04</totfact>
</mgrwt>
</event>
<event>
 7    0  0.4831799E-002  0.4528612E+03  0.7546771E-02  0.1026872E+00
         21   -1    0    0  502  501  0.00000000000E+00  0.00000000000E+00  0.60363981677E+03  0.60363981677E+03  0.00000000000E+00 0. -1.
         21   -1    0    0  501  502 -0.00000000000E+00 -0.00000000000E+00 -0.84936090152E+02  0.84936090152E+02  0.00000000000E+00 0. -1.
      99926    2    1    2    0    0  0.17763568394E-14  0.00000000000E+00  0.51870372661E+03  0.68857590692E+03  0.45286115266E+03 0.  0.
      99925    2    3    3    0    0 -0.12545273589E+02  0.76608090102E+02  0.20592068373E+03  0.34287817280E+03  0.26293712183E+03 0.  0.
         25    1    4    4    0    0 -0.39671355052E+02  0.62507253053E+02  0.11167459391E+03  0.18330219890E+03  0.12509000000E+03 0.  0.
         25    1    4    4    0    0  0.27126081463E+02  0.14100837049E+02  0.94246089826E+02  0.15957597391E+03  0.12509000000E+03 0.  0.
         25    1    3    3    0    0  0.12545273589E+02 -0.76608090102E+02  0.31278304288E+03  0.34569773412E+03  0.12509000000E+03 0.  0.
<mgrwt>
<rscale>  2 0.45286115E+03</rscale>
<asrwt>0</asrwt>
<pdfrwt beam="1">  1       21 0.88770559E-01 0.45286115E+03</pdfrwt>
<pdfrwt beam="2">  1       21 0.12490602E-01 0.45286115E+03</pdfrwt>
<totfact> 0.54438580E+04</totfact>
</mgrwt>
</event>
<event>
 7    0  0.4831799E-002  0.4452808E+03  0.7546771E-02  0.1029139E+00
         21   -1    0    0  502  501  0.00000000000E+00  0.00000000000E+00  0.99465180767E+02  0.99465180767E+02  0.00000000000E+00 0. -1.
         21   -1    0    0  501  502 -0.00000000000E+00 -0.00000000000E+00 -0.49835285316E+03  0.49835285316E+03  0.00000000000E+00 0. -1.
      99926    2    1    2    0    0 -0.14210854715E-13  0.00000000000E+00 -0.39888767239E+03  0.59781803393E+03  0.44528084003E+03 0.  0.
      99925    2    3    3    0    0 -0.10084947528E+03  0.16387874192E+02 -0.22940450896E+03  0.36370005113E+03  0.26308196322E+03 0.  0.
         25    1    4    4    0    0 -0.37291618310E+02 -0.89650798922E+01 -0.15510766356E+03  0.20292100150E+03  0.12509000000E+03 0.  0.
         25    1    3    3    0    0  0.10084947528E+03 -0.16387874192E+02 -0.16948316343E+03  0.23411798280E+03  0.12509000000E+03 0.  0.
         25    1    4    4    0    0 -0.63557856966E+02  0.25352954085E+02 -0.74296845403E+02  0.16077904963E+03  0.12509000000E+03 0.  0.
<mgrwt>
<rscale>  2 0.44528084E+03</rscale>
<asrwt>0</asrwt>
<pdfrwt beam="1">  1       21 0.14627233E-01 0.44528084E+03</pdfrwt>
<pdfrwt beam="2">  1       21 0.73287184E-01 0.44528084E+03</pdfrwt>
<totfact> 0.63554630E+04</totfact>
</mgrwt>
</event>
<event>
 7    0  0.4831799E-002  0.4554567E+03  0.7546771E-02  0.1026107E+00
         21   -1    0    0  502  501  0.00000000000E+00  0.00000000000E+00  0.24682014650E+03  0.24682014650E+03  0.00000000000E+00 0. -1.
         21   -1    0    0  501  502 -0.00000000000E+00 -0.00000000000E+00 -0.21011331996E+03  0.21011331996E+03  0.00000000000E+00 0. -1.
      99926    2    1    2    0    0  0.00000000000E+00 -0.71054273576E-14  0.36706826536E+02  0.45693346646E+03  0.45545669570E+03 0.  0.
      99925    2    3    3    0    0 -0.71803358618E+02 -0.39413803652E+02  0.10173400827E+03  0.29388374186E+03  0.26326540803E+03 0.  0.
         25    1    4    4    0    0 -0.15659790565E+02 -0.41723302263E+02  0.20129272614E+02  0.13430844615E+03  0.12509000000E+03 0.  0.
         25    1    3    3    0    0  0.71803358618E+02  0.39413803652E+02 -0.65027181737E+02  0.16304972460E+03  0.12509000000E+03 0.  0.
         25    1    4    4    0    0 -0.56143568053E+02  0.23094986118E+01  0.81604735659E+02  0.15957529571E+03  0.12509000000E+03 0.  0.
<mgrwt>
<rscale>  2 0.45545670E+03</rscale>
<asrwt>0</asrwt>
<pdfrwt beam="1">  1       21 0.36297081E-01 0.45545670E+03</pdfrwt>
<pdfrwt beam="2">  1       21 0.30899017E-01 0.45545670E+03</pdfrwt>
<totfact> 0.68155724E+04</totfact>
</mgrwt>
</event>
<event>
 7    0  0.4831799E-002  0.4598230E+03  0.7546771E-02  0.1024833E+00
         21   -1    0    0  502  501  0.00000000000E+00  0.00000000000E+00  0.21563919541E+03  0.21563919541E+03  0.00000000000E+00 0. -1.
         21   -1    0    0  501  502 -0.00000000000E+00 -0.00000000000E+00 -0.24512838031E+03  0.24512838031E+03  0.00000000000E+00 0. -1.
      99926    2    1    2    0    0  0.71054273576E-14  0.00000000000E+00 -0.29489184904E+02  0.46076757572E+03  0.45982295159E+03 0.  0.
      99925    2    3    3    0    0 -0.33845625381E+02 -0.10342396532E+03 -0.63406605699E+02  0.29153417922E+03  0.26292534500E+03 0.  0.
         25    1    4    4    0    0 -0.55976644158E+02 -0.42705381548E+02 -0.37665847236E+02  0.14840269018E+03  0.12509000000E+03 0.  0.
         25    1    3    3    0    0  0.33845625381E+02  0.10342396532E+03  0.33917420795E+02  0.16923339651E+03  0.12509000000E+03 0.  0.
         25    1    4    4    0    0  0.22131018776E+02 -0.60718583773E+02 -0.25740758463E+02  0.14313148904E+03  0.12509000000E+03 0.  0.
<mgrwt>
<rscale>  2 0.45982295E+03</rscale>
<asrwt>0</asrwt>
<pdfrwt beam="1">  1       21 0.31711646E-01 0.45982295E+03</pdfrwt>
<pdfrwt beam="2">  1       21 0.36048291E-01 0.45982295E+03</pdfrwt>
<totfact> 0.65565733E+04</totfact>
</mgrwt>
</event>
<event>
 7    0  0.4831799E-002  0.4552749E+03  0.7546771E-02  0.1026161E+00
         21   -1    0    0  502  501  0.00000000000E+00  0.00000000000E+00  0.11213427970E+04  0.11213427970E+04  0.00000000000E+00 0. -1.
         21   -1    0    0  501  502 -0.00000000000E+00 -0.00000000000E+00 -0.46211382674E+02  0.46211382674E+02  0.00000000000E+00 0. -1.
      99926    2    1    2    0    0  0.00000000000E+00  0.00000000000E+00  0.10751314143E+04  0.11675541797E+04  0.45527486687E+03 0.  0.
      99925    2    3    3    0    0 -0.42279850489E+02 -0.35560427245E+02  0.93058255054E+03  0.96857173858E+03  0.26285965772E+03 0.  0.
         25    1    3    3    0    0  0.42279850489E+02  0.35560427245E+02  0.14454886378E+03  0.19898244109E+03  0.12509000000E+03 0.  0.
         25    1    4    4    0    0 -0.77962861720E+01 -0.41733769614E+02  0.36229797588E+03  0.38562912368E+03  0.12509000000E+03 0.  0.
         25    1    4    4    0    0 -0.34483564317E+02  0.61733423697E+01  0.56828457466E+03  0.58294261490E+03  0.12509000000E+03 0.  0.
<mgrwt>
<rscale>  2 0.45527487E+03</rscale>
<asrwt>0</asrwt>
<pdfrwt beam="1">  1       21 0.16490334E+00 0.45527487E+03</pdfrwt>
<pdfrwt beam="2">  1       21 0.67957923E-02 0.45527487E+03</pdfrwt>
<totfact> 0.33130633E+04</totfact>
</mgrwt>
</event>
<event>
 7    0  0.4831799E-002  0.4667717E+03  0.7546771E-02  0.1022835E+00
         21   -1    0    0  502  501  0.00000000000E+00  0.00000000000E+00  0.85376106204E+02  0.85376106204E+02  0.00000000000E+00 0. -1.
         21   -1    0    0  501  502 -0.00000000000E+00 -0.00000000000E+00 -0.63798835416E+03  0.63798835416E+03  0.00000000000E+00 0. -1.
      99926    2    1    2    0    0  0.14210854715E-13  0.00000000000E+00 -0.55261224796E+03  0.72336446037E+03  0.46677172786E+03 0.  0.
      99925    2    3    3    0    0 -0.86855295214E+02  0.46611449030E+02 -0.46054106869E+03  0.53940500930E+03  0.26295098139E+03 0.  0.
         25    1    4    4    0    0 -0.80720188977E+02  0.55863240775E+01 -0.23912809196E+03  0.28173872362E+03  0.12509000000E+03 0.  0.
         25    1    3    3    0    0  0.86855295214E+02 -0.46611449030E+02 -0.92071179269E+02  0.18395945107E+03  0.12509000000E+03 0.  0.
         25    1    4    4    0    0 -0.61351062362E+01  0.41025124953E+02 -0.22141297674E+03  0.25766628567E+03  0.12509000000E+03 0.  0.
<mgrwt>
<rscale>  2 0.46677173E+03</rscale>
<asrwt>0</asrwt>
<pdfrwt beam="1">  1       21 0.12555310E-01 0.46677173E+03</pdfrwt>
<pdfrwt beam="2">  1       21 0.93821815E-01 0.46677173E+03</pdfrwt>
<totfact> 0.47134751E+04</totfact>
</mgrwt>
</event>
<event>
 7    0  0.4831799E-002  0.4508117E+03  0.7546771E-02  0.1027480E+00
         21   -1    0    0  502  501  0.00000000000E+00  0.00000000000E+00  0.23254188291E+03  0.23254188291E+03  0.00000000000E+00 0.  1.
         21   -1    0    0  501  502 -0.00000000000E+00 -0.00000000000E+00 -0.21848877735E+03  0.21848877735E+03  0.00000000000E+00 0.  1.
      99926    2    1    2    0    0  0.00000000000E+00  0.88817841970E-15  0.14053105562E+02  0.45103066026E+03  0.45081167545E+03 0.  0.
      99925    2    3    3    0    0  0.10375426989E+03  0.49353660304E+01  0.43105127204E+02  0.28586155171E+03  0.26281070830E+03 0.  0.
         25    1    4    4    0    0  0.57663379255E+02 -0.33011112326E+02  0.40155271980E+02  0.14722347915E+03  0.12509000000E+03 0.  0.
         25    1    4    4    0    0  0.46090890631E+02  0.37946478357E+02  0.29498552241E+01  0.13863807257E+03  0.12509000000E+03 0.  0.
         25    1    3    3    0    0 -0.10375426989E+03 -0.49353660304E+01 -0.29052021642E+02  0.16516910855E+03  0.12509000000E+03 0.  0.
<mgrwt>
<rscale>  2 0.45081168E+03</rscale>
<asrwt>0</asrwt>
<pdfrwt beam="1">  1       21 0.34197336E-01 0.45081168E+03</pdfrwt>
<pdfrwt beam="2">  1       21 0.32130702E-01 0.45081168E+03</pdfrwt>
<totfact> 0.71186947E+04</totfact>
</mgrwt>
</event>
<event>
 7    0  0.4831799E-002  0.4528477E+03  0.7546771E-02  0.1026876E+00
         21   -1    0    0  502  501  0.00000000000E+00  0.00000000000E+00  0.96368734255E+02  0.96368734255E+02  0.00000000000E+00 0. -1.
         21   -1    0    0  501  502 -0.00000000000E+00 -0.00000000000E+00 -0.53199589605E+03  0.53199589605E+03  0.00000000000E+00 0. -1.
      99926    2    1    2    0    0  0.00000000000E+00 -0.14210854715E-13 -0.43562716179E+03  0.62836463030E+03  0.45284774983E+03 0.  0.
      99925    2    3    3    0    0 -0.25702501642E+02 -0.10629254688E+03 -0.25526122240E+03  0.38313391382E+03  0.26395942897E+03 0.  0.
         25    1    3    3    0    0  0.25702501642E+02  0.10629254688E+03 -0.18036593939E+03  0.24523071648E+03  0.12509000000E+03 0.  0.
         25    1    4    4    0    0 -0.33802447533E+02 -0.75264484869E+02 -0.17789357923E+03  0.23259617747E+03  0.12509000000E+03 0.  0.
         25    1    4    4    0    0  0.80999458913E+01 -0.31028062015E+02 -0.77367643170E+02  0.15053773635E+03  0.12509000000E+03 0.  0.
<mgrwt>
<rscale>  2 0.45284775E+03</rscale>
<asrwt>0</asrwt>
<pdfrwt beam="1">  1       21 0.14171873E-01 0.45284775E+03</pdfrwt>
<pdfrwt beam="2">  1       21 0.78234690E-01 0.45284775E+03</pdfrwt>
<totfact> 0.57943693E+04</totfact>
</mgrwt>
</event>
<event>
 7    0  0.4831799E-002  0.4554525E+03  0.7546771E-02  0.1026108E+00
         21   -1    0    0  502  501  0.00000000000E+00  0.00000000000E+00  0.59426123944E+03  0.59426123944E+03  0.00000000000E+00 0.  1.
         21   -1    0    0  501  502 -0.00000000000E+00 -0.00000000000E+00 -0.87266762533E+02  0.87266762533E+02  0.00000000000E+00 0.  1.
      99926    2    1    2    0    0 -0.71054273576E-14  0.00000000000E+00  0.50699447691E+03  0.68152800198E+03  0.45545254183E+03 0.  0.
      99925    2    3    3    0    0 -0.57065870045E+02  0.80590564336E+02  0.23531506521E+03  0.36655409286E+03  0.26312994982E+03 0.  0.
         25    1    4    4    0    0  0.55846571917E+01  0.52651150582E+02  0.90194513538E+02  0.16305180289E+03  0.12509000000E+03 0.  0.
         25    1    3    3    0    0  0.57065870045E+02 -0.80590564336E+02  0.27167941170E+03  0.31497390912E+03  0.12509000000E+03 0.  0.
         25    1    4    4    0    0 -0.62650527237E+02  0.27939413753E+02  0.14512055167E+03  0.20350228996E+03  0.12509000000E+03 0.  0.
<mgrwt>
<rscale>  2 0.45545254E+03</rscale>
<asrwt>0</asrwt>
<pdfrwt beam="1">  1       21 0.87391357E-01 0.45545254E+03</pdfrwt>
<pdfrwt beam="2">  1       21 0.12833348E-01 0.45545254E+03</pdfrwt>
<totfact> 0.53726049E+04</totfact>
</mgrwt>
</event>
<event>
 7    0  0.4831799E-002  0.4427389E+03  0.7546771E-02  0.1029910E+00
         21   -1    0    0  502  501  0.00000000000E+00  0.00000000000E+00  0.27142906457E+03  0.27142906457E+03  0.00000000000E+00 0. -1.
         21   -1    0    0  501  502 -0.00000000000E+00 -0.00000000000E+00 -0.18054228721E+03  0.18054228721E+03  0.00000000000E+00 0. -1.
      99926    2    1    2    0    0  0.00000000000E+00  0.00000000000E+00  0.90886777357E+02  0.45197135177E+03  0.44273885816E+03 0.  0.
      99925    2    3    3    0    0  0.55527294112E+02 -0.82392740203E+02  0.77985963319E+02  0.29170350368E+03  0.26293968806E+03 0.  0.
         25    1    3    3    0    0 -0.55527294112E+02  0.82392740203E+02  0.12900814039E+02  0.16026784809E+03  0.12509000000E+03 0.  0.
         25    1    4    4    0    0  0.56614441500E+02 -0.12972612925E+02  0.34328989695E+02  0.14212484408E+03  0.12509000000E+03 0.  0.
         25    1    4    4    0    0 -0.10871473877E+01 -0.69420127277E+02  0.43656973624E+02  0.14957865960E+03  0.12509000000E+03 0.  0.
<mgrwt>
<rscale>  2 0.44273886E+03</rscale>
<asrwt>0</asrwt>
<pdfrwt beam="1">  1       21 0.39916039E-01 0.44273886E+03</pdfrwt>
<pdfrwt beam="2">  1       21 0.26550336E-01 0.44273886E+03</pdfrwt>
<totfact> 0.75919968E+04</totfact>
</mgrwt>
</event>
<event>
 7    0  0.4831799E-002  0.4578031E+03  0.7546771E-02  0.1025420E+00
         21   -1    0    0  502  501  0.00000000000E+00  0.00000000000E+00  0.10944162900E+03  0.10944162900E+03  0.00000000000E+00 0.  1.
         21   -1    0    0  501  502 -0.00000000000E+00 -0.00000000000E+00 -0.47875670206E+03  0.47875670206E+03  0.00000000000E+00 0.  1.
      99926    2    1    2    0    0  0.00000000000E+00  0.00000000000E+00 -0.36931507306E+03  0.58819833106E+03  0.45780307282E+03 0.  0.
      99925    2    3    3    0    0 -0.92650499064E+02 -0.67694171877E+02 -0.21177764115E+03  0.35661213451E+03  0.26297495946E+03 0.  0.
         25    1    4    4    0    0 -0.44094064532E+02 -0.14812184698E+02 -0.57206241566E+02  0.14520244322E+03  0.12509000000E+03 0.  0.
         25    1    4    4    0    0 -0.48556434532E+02 -0.52881987179E+02 -0.15457139959E+03  0.21140969129E+03  0.12509000000E+03 0.  0.
         25    1    3    3    0    0  0.92650499064E+02  0.67694171877E+02 -0.15753743191E+03  0.23158619655E+03  0.12509000000E+03 0.  0.
<mgrwt>
<rscale>  2 0.45780307E+03</rscale>
<asrwt>0</asrwt>
<pdfrwt beam="1">  1       21 0.16094357E-01 0.45780307E+03</pdfrwt>
<pdfrwt beam="2">  1       21 0.70405398E-01 0.45780307E+03</pdfrwt>
<totfact> 0.58112382E+04</totfact>
</mgrwt>
</event>
<event>
 7    0  0.4831799E-002  0.4503567E+03  0.7546771E-02  0.1027616E+00
         21   -1    0    0  502  501  0.00000000000E+00  0.00000000000E+00  0.58641585034E+03  0.58641585034E+03  0.00000000000E+00 0. -1.
         21   -1    0    0  501  502 -0.00000000000E+00 -0.00000000000E+00 -0.86466438537E+02  0.86466438537E+02  0.00000000000E+00 0. -1.
      99926    2    1    2    0    0 -0.71054273576E-14  0.00000000000E+00  0.49994941180E+03  0.67288228887E+03  0.45035670343E+03 0.  0.
      99925    2    3    3    0    0 -0.40731385163E+02 -0.59076328080E+02  0.43802239192E+03  0.51593796063E+03  0.26301959075E+03 0.  0.
         25    1    4    4    0    0 -0.28690977602E+02 -0.61132929003E+02  0.18393870684E+03  0.23246798313E+03  0.12509000000E+03 0.  0.
         25    1    4    4    0    0 -0.12040407561E+02  0.20566009233E+01  0.25408368508E+03  0.28346997751E+03  0.12509000000E+03 0.  0.
         25    1    3    3    0    0  0.40731385163E+02  0.59076328080E+02  0.61927019875E+02  0.15694432824E+03  0.12509000000E+03 0.  0.
<mgrwt>
<rscale>  2 0.45035670E+03</rscale>
<asrwt>0</asrwt>
<pdfrwt beam="1">  1       21 0.86237623E-01 0.45035670E+03</pdfrwt>
<pdfrwt beam="2">  1       21 0.12715653E-01 0.45035670E+03</pdfrwt>
<totfact> 0.56436669E+04</totfact>
</mgrwt>
</event>
<event>
 7    0  0.4831799E-002  0.4556446E+03  0.7546771E-02  0.1026052E+00
         21   -1    0    0  502  501  0.00000000000E+00  0.00000000000E+00  0.64984348843E+03  0.64984348843E+03  0.00000000000E+00 0. -1.
         21   -1    0    0  501  502 -0.00000000000E+00 -0.00000000000E+00 -0.79869994504E+02  0.79869994504E+02  0.00000000000E+00 0. -1.
      99926    2    1    2    0    0  0.14210854715E-13 -0.71054273576E-14  0.56997349393E+03  0.72971348293E+03  0.45564458012E+03 0.  0.
      99925    2    3    3    0    0  0.97533509421E+02 -0.42410355218E+02  0.42313828103E+03  0.50944203327E+03  0.26300904300E+03 0.  0.
         25    1    4    4    0    0  0.86819382482E+01 -0.37133437831E+01  0.18457944831E+03  0.22317312969E+03  0.12509000000E+03 0.  0.
         25    1    3    3    0    0 -0.97533509421E+02  0.42410355218E+02  0.14683521290E+03  0.22027144966E+03  0.12509000000E+03 0.  0.
         25    1    4    4    0    0  0.88851571173E+02 -0.38697011435E+02  0.23855883272E+03  0.28626890359E+03  0.12509000000E+03 0.  0.
<mgrwt>
<rscale>  2 0.45564458E+03</rscale>
<asrwt>0</asrwt>
<pdfrwt beam="1">  1       21 0.95565216E-01 0.45564458E+03</pdfrwt>
<pdfrwt beam="2">  1       21 0.11745588E-01 0.45564458E+03</pdfrwt>
<totfact> 0.51059958E+04</totfact>
</mgrwt>
</event>
<event>
 7    0  0.4831799E-002  0.4547399E+03  0.7546771E-02  0.1026318E+00
         21   -1    0    0  502  501  0.00000000000E+00  0.00000000000E+00  0.12174890165E+03  0.12174890165E+03  0.00000000000E+00 0. -1.
         21   -1    0    0  501  502 -0.00000000000E+00 -0.00000000000E+00 -0.42462068990E+03  0.42462068990E+03  0.00000000000E+00 0. -1.
      99926    2    1    2    0    0  0.00000000000E+00  0.00000000000E+00 -0.30287178825E+03  0.54636959154E+03  0.45473993716E+03 0.  0.
      99925    2    3    3    0    0 -0.87566006849E+02  0.65947771272E+02 -0.22288908148E+03  0.36181159098E+03  0.26308016008E+03 0.  0.
         25    1    4    4    0    0 -0.79596505235E+02  0.23788430431E+02 -0.14271167377E+03  0.20716086261E+03  0.12509000000E+03 0.  0.
         25    1    4    4    0    0 -0.79695016148E+01  0.42159340840E+02 -0.80177407717E+02  0.15465072837E+03  0.12509000000E+03 0.  0.
         25    1    3    3    0    0  0.87566006849E+02 -0.65947771272E+02 -0.79982706767E+02  0.18455800057E+03  0.12509000000E+03 0.  0.
<mgrwt>
<rscale>  2 0.45473994E+03</rscale>
<asrwt>0</asrwt>
<pdfrwt beam="1">  1       21 0.17904250E-01 0.45473994E+03</pdfrwt>
<pdfrwt beam="2">  1       21 0.62444218E-01 0.45473994E+03</pdfrwt>
<totfact> 0.62235019E+04</totfact>
</mgrwt>
</event>
<event>
 7    0  0.4831799E-002  0.4550996E+03  0.7546771E-02  0.1026212E+00
         21   -1    0    0  502  501  0.00000000000E+00  0.00000000000E+00  0.22311506723E+03  0.22311506723E+03  0.00000000000E+00 0.  1.
         21   -1    0    0  501  502 -0.00000000000E+00 -0.00000000000E+00 -0.23207265526E+03  0.23207265526E+03  0.00000000000E+00 0.  1.
      99926    2    1    2    0    0  0.00000000000E+00  0.00000000000E+00 -0.89575880317E+01  0.45518772249E+03  0.45509957627E+03 0.  0.
      99925    2    3    3    0    0  0.72158032342E+02 -0.76681596263E+02 -0.47222967624E+02  0.28726334602E+03  0.26306533876E+03 0.  0.
         25    1    4    4    0    0  0.39154908800E+02 -0.20848298258E+02  0.14344153713E+02  0.13349539793E+03  0.12509000000E+03 0.  0.
         25    1    3    3    0    0 -0.72158032342E+02  0.76681596263E+02  0.38265379592E+02  0.16792437647E+03  0.12509000000E+03 0.  0.
         25    1    4    4    0    0  0.33003123542E+02 -0.55833298004E+02 -0.61567121337E+02  0.15376794809E+03  0.12509000000E+03 0.  0.
<mgrwt>
<rscale>  2 0.45509958E+03</rscale>
<asrwt>0</asrwt>
<pdfrwt beam="1">  1       21 0.32811039E-01 0.45509958E+03</pdfrwt>
<pdfrwt beam="2">  1       21 0.34128332E-01 0.45509958E+03</pdfrwt>
<totfact> 0.68477623E+04</totfact>
</mgrwt>
</event>
<event>
 7    0  0.4831799E-002  0.4558741E+03  0.7546771E-02  0.1025985E+00
         21   -1    0    0  502  501  0.00000000000E+00  0.00000000000E+00  0.52980958310E+02  0.52980958310E+02  0.00000000000E+00 0. -1.
         21   -1    0    0  501  502 -0.00000000000E+00 -0.00000000000E+00 -0.98064079884E+03  0.98064079884E+03  0.00000000000E+00 0. -1.
      99926    2    1    2    0    0  0.00000000000E+00  0.00000000000E+00 -0.92765984053E+03  0.10336217571E+04  0.45587405840E+03 0.  0.
      99925    2    3    3    0    0 -0.19512951732E+02  0.10784656710E+03 -0.65391494695E+03  0.71331657114E+03  0.26306678906E+03 0.  0.
         25    1    3    3    0    0  0.19512951732E+02 -0.10784656710E+03 -0.27374489358E+03  0.32030518601E+03  0.12509000000E+03 0.  0.
         25    1    4    4    0    0 -0.33268704694E+02  0.21435140059E+02 -0.27084124582E+03  0.30094644122E+03  0.12509000000E+03 0.  0.
         25    1    4    4    0    0  0.13755752961E+02  0.86411427043E+02 -0.38307370112E+03  0.41237012992E+03  0.12509000000E+03 0.  0.
<mgrwt>
<rscale>  2 0.45587406E+03</rscale>
<asrwt>0</asrwt>
<pdfrwt beam="1">  1       21 0.77913181E-02 0.45587406E+03</pdfrwt>
<pdfrwt beam="2">  1       21 0.14421187E+00 0.45587406E+03</pdfrwt>
<totfact> 0.37626765E+04</totfact>
</mgrwt>
</event>
<event>
 7    0  0.4831799E-002  0.4516818E+03  0.7546771E-02  0.1027222E+00
         21   -1    0    0  502  501  0.00000000000E+00  0.00000000000E+00  0.46887638326E+03  0.46887638326E+03  0.00000000000E+00 0.  1.
         21   -1    0    0  501  502 -0.00000000000E+00 -0.00000000000E+00 -0.10877944610E+03  0.10877944610E+03  0.00000000000E+00 0.  1.
      99926    2    1    2    0    0  0.00000000000E+00  0.00000000000E+00  0.36009693716E+03  0.57765582935E+03  0.45168180507E+03 0.  0.
      99925    2    3    3    0    0  0.39486701094E+02  0.79186445668E+02  0.31108922942E+03  0.41678645297E+03  0.26287781567E+03 0.  0.
         25    1    4    4    0    0  0.47374302594E+02  0.52010200235E+02  0.12231834230E+03  0.18857006771E+03  0.12509000000E+03 0.  0.
         25    1    3    3    0    0 -0.39486701094E+02 -0.79186445668E+02  0.49007707740E+02  0.16086937639E+03  0.12509000000E+03 0.  0.
         25    1    4    4    0    0 -0.78876015004E+01  0.27176245433E+02  0.18877088712E+03  0.22821638525E+03  0.12509000000E+03 0.  0.
<mgrwt>
<rscale>  2 0.45168181E+03</rscale>
<asrwt>0</asrwt>
<pdfrwt beam="1">  1       21 0.68952409E-01 0.45168181E+03</pdfrwt>
<pdfrwt beam="2">  1       21 0.15996978E-01 0.45168181E+03</pdfrwt>
<totfact> 0.61677320E+04</totfact>
</mgrwt>
</event>
<event>
 7    0  0.4831799E-002  0.4534494E+03  0.7546771E-02  0.1026698E+00
         21   -1    0    0  502  501  0.00000000000E+00  0.00000000000E+00  0.10239684302E+03  0.10239684302E+03  0.00000000000E+00 0. -1.
         21   -1    0    0  501  502 -0.00000000000E+00 -0.00000000000E+00 -0.50200854561E+03  0.50200854561E+03  0.00000000000E+00 0. -1.
      99926    2    1    2    0    0  0.00000000000E+00  0.00000000000E+00 -0.39961170259E+03  0.60440538863E+03  0.45344940286E+03 0.  0.
      99925    2    3    3    0    0  0.59295226237E+02  0.56387368525E+02 -0.35327413473E+03  0.44791213804E+03  0.26292053924E+03 0.  0.
         25    1    4    4    0    0  0.28374076590E+02  0.64877190938E+02 -0.15595633986E+03  0.21209438034E+03  0.12509000000E+03 0.  0.
         25    1    4    4    0    0  0.30921149647E+02 -0.84898224132E+01 -0.19731779486E+03  0.23581775770E+03  0.12509000000E+03 0.  0.
         25    1    3    3    0    0 -0.59295226237E+02 -0.56387368525E+02 -0.46337567863E+02  0.15649325059E+03  0.12509000000E+03 0.  0.
<mgrwt>
<rscale>  2 0.45344940E+03</rscale>
<asrwt>0</asrwt>
<pdfrwt beam="1">  1       21 0.15058359E-01 0.45344940E+03</pdfrwt>
<pdfrwt beam="2">  1       21 0.73824786E-01 0.45344940E+03</pdfrwt>
<totfact> 0.59128928E+04</totfact>
</mgrwt>
</event>
<event>
 7    0  0.4831799E-002  0.4557396E+03  0.7546771E-02  0.1026024E+00
         21   -1    0    0  502  501  0.00000000000E+00  0.00000000000E+00  0.38265742345E+03  0.38265742345E+03  0.00000000000E+00 0. -1.
         21   -1    0    0  501  502 -0.00000000000E+00 -0.00000000000E+00 -0.13569484257E+03  0.13569484257E+03  0.00000000000E+00 0. -1.
      99926    2    1    2    0    0 -0.14210854715E-13  0.00000000000E+00  0.24696258088E+03  0.51835226602E+03  0.45573956964E+03 0.  0.
      99925    2    3    3    0    0 -0.99609697709E+02 -0.54421090958E+02  0.15374677035E+03  0.32542626349E+03  0.26340166393E+03 0.  0.
         25    1    4    4    0    0 -0.69612101861E+02 -0.65791505147E+02  0.89352338935E+02  0.18112348122E+03  0.12509000000E+03 0.  0.
         25    1    3    3    0    0  0.99609697709E+02  0.54421090958E+02  0.93215810534E+02  0.19292600253E+03  0.12509000000E+03 0.  0.
         25    1    4    4    0    0 -0.29997595848E+02  0.11370414189E+02  0.64394431410E+02  0.14430278227E+03  0.12509000000E+03 0.  0.
<mgrwt>
<rscale>  2 0.45573957E+03</rscale>
<asrwt>0</asrwt>
<pdfrwt beam="1">  1       21 0.56273150E-01 0.45573957E+03</pdfrwt>
<pdfrwt beam="2">  1       21 0.19955124E-01 0.45573957E+03</pdfrwt>
<totfact> 0.63625500E+04</totfact>
</mgrwt>
</event>
<event>
 7    0  0.4831799E-002  0.4488629E+03  0.7546771E-02  0.1028062E+00
         21   -1    0    0  502  501  0.00000000000E+00  0.00000000000E+00  0.46270406818E+03  0.46270406818E+03  0.00000000000E+00 0. -1.
         21   -1    0    0  501  502 -0.00000000000E+00 -0.00000000000E+00 -0.10885894452E+03  0.10885894452E+03  0.00000000000E+00 0. -1.
      99926    2    1    2    0    0  0.35527136788E-14  0.17763568394E-14  0.35384512366E+03  0.57156301270E+03  0.44886290328E+03 0.  0.
      99925    2    3    3    0    0  0.30626202013E+02  0.13982707164E+02  0.35339980265E+03  0.44202079270E+03  0.26335808384E+03 0.  0.
         25    1    3    3    0    0 -0.30626202013E+02 -0.13982707164E+02  0.44532101545E+00  0.12954221999E+03  0.12509000000E+03 0.  0.
         25    1    4    4    0    0  0.44757853144E+02  0.25550309741E+02  0.14531084115E+03  0.19854176488E+03  0.12509000000E+03 0.  0.
         25    1    4    4    0    0 -0.14131651132E+02 -0.11567602577E+02  0.20808896149E+03  0.24347902782E+03  0.12509000000E+03 0.  0.
<mgrwt>
<rscale>  2 0.44886290E+03</rscale>
<asrwt>0</asrwt>
<pdfrwt beam="1">  1       21 0.68044715E-01 0.44886290E+03</pdfrwt>
<pdfrwt beam="2">  1       21 0.16008669E-01 0.44886290E+03</pdfrwt>
<totfact> 0.63489072E+04</totfact>
</mgrwt>
</event>
<event>
 7    0  0.4831799E-002  0.4569154E+03  0.7546771E-02  0.1025680E+00
         21   -1    0    0  502  501  0.00000000000E+00  0.00000000000E+00  0.89740870493E+02  0.89740870493E+02  0.00000000000E+00 0.  1.
         21   -1    0    0  501  502 -0.00000000000E+00 -0.00000000000E+00 -0.58159584322E+03  0.58159584322E+03  0.00000000000E+00 0.  1.
      99926    2    1    2    0    0  0.00000000000E+00  0.00000000000E+00 -0.49185497272E+03  0.67133671371E+03  0.45691538493E+03 0.  0.
      99925    2    3    3    0    0 -0.47792741556E+02  0.89994819734E+02 -0.23076940949E+03  0.36442240457E+03  0.26299421072E+03 0.  0.
         25    1    4    4    0    0  0.63602954510E+01  0.14187499929E+02 -0.10538466588E+03  0.16430208281E+03  0.12509000000E+03 0.  0.
         25    1    4    4    0    0 -0.54153037007E+02  0.75807319804E+02 -0.12538474361E+03  0.20012032177E+03  0.12509000000E+03 0.  0.
         25    1    3    3    0    0  0.47792741556E+02 -0.89994819734E+02 -0.26108556323E+03  0.30691430913E+03  0.12509000000E+03 0.  0.
<mgrwt>
<rscale>  2 0.45691538E+03</rscale>
<asrwt>0</asrwt>
<pdfrwt beam="1">  1       21 0.13197187E-01 0.45691538E+03</pdfrwt>
<pdfrwt beam="2">  1       21 0.85528799E-01 0.45691538E+03</pdfrwt>
<totfact> 0.53672166E+04</totfact>
</mgrwt>
</event>
<event>
 7    0  0.4831799E-002  0.4532021E+03  0.7546771E-02  0.1026771E+00
         21   -1    0    0  502  501  0.00000000000E+00  0.00000000000E+00  0.66306572543E+02  0.66306572543E+02  0.00000000000E+00 0. -1.
         21   -1    0    0  501  502 -0.00000000000E+00 -0.00000000000E+00 -0.77440350443E+03  0.77440350443E+03  0.00000000000E+00 0. -1.
      99926    2    1    2    0    0  0.14210854715E-13  0.00000000000E+00 -0.70809693189E+03  0.84071007697E+03  0.45320212773E+03 0.  0.
      99925    2    3    3    0    0  0.78948171588E+02  0.13469005610E+02 -0.30143552191E+03  0.40777216182E+03  0.26267952752E+03 0.  0.
         25    1    3    3    0    0 -0.78948171588E+02 -0.13469005610E+02 -0.40666140998E+03  0.43293791515E+03  0.12509000000E+03 0.  0.
         25    1    4    4    0    0  0.80030772215E+02  0.10304626715E+01 -0.17419482781E+03  0.22890463624E+03  0.12509000000E+03 0.  0.
         25    1    4    4    0    0 -0.10826006273E+01  0.12438542938E+02 -0.12724069409E+03  0.17886752558E+03  0.12509000000E+03 0.  0.
<mgrwt>
<rscale>  2 0.45320213E+03</rscale>
<asrwt>0</asrwt>
<pdfrwt beam="1">  1       21 0.97509668E-02 0.45320213E+03</pdfrwt>
<pdfrwt beam="2">  1       21 0.11388287E+00 0.45320213E+03</pdfrwt>
<totfact> 0.46510410E+04</totfact>
</mgrwt>
</event>
<event>
 7    0  0.4831799E-002  0.4540385E+03  0.7546771E-02  0.1026525E+00
         21   -1    0    0  502  501  0.00000000000E+00  0.00000000000E+00  0.76744648851E+03  0.76744648851E+03  0.00000000000E+00 0. -1.
         21   -1    0    0  501  502 -0.00000000000E+00 -0.00000000000E+00 -0.67154818145E+02  0.67154818145E+02  0.00000000000E+00 0. -1.
      99926    2    1    2    0    0  0.00000000000E+00 -0.14210854715E-13  0.70029167037E+03  0.83460130666E+03  0.45403845376E+03 0.  0.
      99925    2    3    3    0    0 -0.87679613189E+02  0.69962630598E+02  0.43310962317E+03  0.51898090381E+03  0.26301092865E+03 0.  0.
         25    1    4    4    0    0 -0.52321738887E+02  0.76502588893E+02  0.24244012275E+03  0.28812311897E+03  0.12509000000E+03 0.  0.
         25    1    3    3    0    0  0.87679613189E+02 -0.69962630598E+02  0.26718204720E+03  0.31562040285E+03  0.12509000000E+03 0.  0.
         25    1    4    4    0    0 -0.35357874302E+02 -0.65399582946E+01  0.19066950042E+03  0.23085778484E+03  0.12509000000E+03 0.  0.
<mgrwt>
<rscale>  2 0.45403845E+03</rscale>
<asrwt>0</asrwt>
<pdfrwt beam="1">  1       21 0.11285977E+00 0.45403845E+03</pdfrwt>
<pdfrwt beam="2">  1       21 0.98757090E-02 0.45403845E+03</pdfrwt>
<totfact> 0.46485970E+04</totfact>
</mgrwt>
</event>
<event>
 7    0  0.4831799E-002  0.4547751E+03  0.7546771E-02  0.1026308E+00
         21   -1    0    0  502  501  0.00000000000E+00  0.00000000000E+00  0.60429428764E+03  0.60429428764E+03  0.00000000000E+00 0.  1.
         21   -1    0    0  501  502 -0.00000000000E+00 -0.00000000000E+00 -0.85562790854E+02  0.85562790854E+02  0.00000000000E+00 0.  1.
      99926    2    1    2    0    0  0.00000000000E+00 -0.88817841970E-15  0.51873149679E+03  0.68985707850E+03  0.45477513453E+03 0.  0.
      99925    2    3    3    0    0 -0.52320793034E+02  0.52964051726E+01  0.47815757306E+03  0.54822633085E+03  0.26296754149E+03 0.  0.
         25    1    4    4    0    0 -0.45039582134E+01  0.37043926662E+02  0.23478005511E+03  0.26862933667E+03  0.12509000000E+03 0.  0.
         25    1    3    3    0    0  0.52320793034E+02 -0.52964051726E+01  0.40573923731E+02  0.14163074764E+03  0.12509000000E+03 0.  0.
         25    1    4    4    0    0 -0.47816834821E+02 -0.31747521489E+02  0.24337751795E+03  0.27959699418E+03  0.12509000000E+03 0.  0.
<mgrwt>
<rscale>  2 0.45477513E+03</rscale>
<asrwt>0</asrwt>
<pdfrwt beam="1">  1       21 0.88866805E-01 0.45477513E+03</pdfrwt>
<pdfrwt beam="2">  1       21 0.12582764E-01 0.45477513E+03</pdfrwt>
<totfact> 0.53551958E+04</totfact>
</mgrwt>
</event>
<event>
 7    0  0.4831799E-002  0.4507943E+03  0.7546771E-02  0.1027485E+00
         21   -1    0    0  502  501  0.00000000000E+00  0.00000000000E+00  0.19282077901E+03  0.19282077901E+03  0.00000000000E+00 0.  1.
         21   -1    0    0  501  502 -0.00000000000E+00 -0.00000000000E+00 -0.26347713605E+03  0.26347713605E+03  0.00000000000E+00 0.  1.
      99926    2    1    2    0    0  0.00000000000E+00  0.00000000000E+00 -0.70656357043E+02  0.45629791505E+03  0.45079426182E+03 0.  0.
      99925    2    3    3    0    0  0.44147139898E+02 -0.12654042251E+02  0.55605639127E+02  0.27272587327E+03  0.26301771823E+03 0.  0.
         25    1    4    4    0    0  0.60512482209E+02 -0.21019704683E+02  0.27393831430E+02  0.14318351368E+03  0.12509000000E+03 0.  0.
         25    1    4    4    0    0 -0.16365342311E+02  0.83656624320E+01  0.28211807697E+02  0.12954235960E+03  0.12509000000E+03 0.  0.
         25    1    3    3    0    0 -0.44147139898E+02  0.12654042251E+02 -0.12626199617E+03  0.18357204178E+03  0.12509000000E+03 0.  0.
<mgrwt>
<rscale>  2 0.45079426E+03</rscale>
<asrwt>0</asrwt>
<pdfrwt beam="1">  1       21 0.28355997E-01 0.45079426E+03</pdfrwt>
<pdfrwt beam="2">  1       21 0.38746637E-01 0.45079426E+03</pdfrwt>
<totfact> 0.70795985E+04</totfact>
</mgrwt>
</event>
<event>
 7    0  0.4831799E-002  0.4502767E+03  0.7546771E-02  0.1027640E+00
         21   -1    0    0  502  501  0.00000000000E+00  0.00000000000E+00  0.24142931574E+03  0.24142931574E+03  0.00000000000E+00 0.  1.
         21   -1    0    0  501  502 -0.00000000000E+00 -0.00000000000E+00 -0.20994662383E+03  0.20994662383E+03  0.00000000000E+00 0.  1.
      99926    2    1    2    0    0  0.35527136788E-14  0.71054273576E-14  0.31482691918E+02  0.45137593957E+03  0.45027666932E+03 0.  0.
      99925    2    3    3    0    0 -0.29534373840E+02 -0.53796051462E+02  0.10972106787E+03  0.29157904985E+03  0.26308427393E+03 0.  0.
         25    1    4    4    0    0 -0.16589613460E+02 -0.24924722499E+02  0.10957103993E+02  0.12908920673E+03  0.12509000000E+03 0.  0.
         25    1    3    3    0    0  0.29534373840E+02  0.53796051462E+02 -0.78238375954E+02  0.15979688972E+03  0.12509000000E+03 0.  0.
         25    1    4    4    0    0 -0.12944760380E+02 -0.28871328963E+02  0.98763963879E+02  0.16248984312E+03  0.12509000000E+03 0.  0.
<mgrwt>
<rscale>  2 0.45027667E+03</rscale>
<asrwt>0</asrwt>
<pdfrwt beam="1">  1       21 0.35504311E-01 0.45027667E+03</pdfrwt>
<pdfrwt beam="2">  1       21 0.30874503E-01 0.45027667E+03</pdfrwt>
<totfact> 0.71467764E+04</totfact>
</mgrwt>
</event>
<event>
 7    0  0.4831799E-002  0.4521503E+03  0.7546771E-02  0.1027083E+00
         21   -1    0    0  502  501  0.00000000000E+00  0.00000000000E+00  0.42654020094E+03  0.42654020094E+03  0.00000000000E+00 0. -1.
         21   -1    0    0  501  502 -0.00000000000E+00 -0.00000000000E+00 -0.11982449429E+03  0.11982449429E+03  0.00000000000E+00 0. -1.
      99926    2    1    2    0    0  0.00000000000E+00  0.00000000000E+00  0.30671570665E+03  0.54636469523E+03  0.45215025765E+03 0.  0.
      99925    2    3    3    0    0  0.44113145124E+02 -0.88618364237E+02  0.25150592838E+03  0.37756063198E+03  0.26362400263E+03 0.  0.
         25    1    4    4    0    0  0.51436895767E+02 -0.75555705223E+02  0.12552708775E+03  0.19939653131E+03  0.12509000000E+03 0.  0.
         25    1    3    3    0    0 -0.44113145124E+02  0.88618364237E+02  0.55209778270E+02  0.16880406325E+03  0.12509000000E+03 0.  0.
         25    1    4    4    0    0 -0.73237506431E+01 -0.13062659014E+02  0.12597884063E+03  0.17816410068E+03  0.12509000000E+03 0.  0.
<mgrwt>
<rscale>  2 0.45215026E+03</rscale>
<asrwt>0</asrwt>
<pdfrwt beam="1">  1       21 0.62726500E-01 0.45215026E+03</pdfrwt>
<pdfrwt beam="2">  1       21 0.17621249E-01 0.45215026E+03</pdfrwt>
<totfact> 0.63527782E+04</totfact>
</mgrwt>
</event>
<event>
 7    0  0.4831799E-002  0.4278268E+03  0.7546771E-02  0.1034549E+00
         21   -1    0    0  502  501  0.00000000000E+00  0.00000000000E+00  0.82103408605E+02  0.82103408605E+02  0.00000000000E+00 0.  1.
         21   -1    0    0  501  502 -0.00000000000E+00 -0.00000000000E+00 -0.55733315429E+03  0.55733315429E+03  0.00000000000E+00 0.  1.
      99926    2    1    2    0    0  0.00000000000E+00  0.00000000000E+00 -0.47522974568E+03  0.63943656289E+03  0.42782684205E+03 0.  0.
      99925    2    3    3    0    0 -0.23296390791E+01  0.24207169556E+02 -0.42918692659E+03  0.50394167898E+03  0.26299122339E+03 0.  0.
         25    1    4    4    0    0  0.27705706117E+02  0.10519292071E+02 -0.15971571074E+03  0.20502409130E+03  0.12509000000E+03 0.  0.
         25    1    3    3    0    0  0.23296390791E+01 -0.24207169556E+02 -0.46042819091E+02  0.13549488391E+03  0.12509000000E+03 0.  0.
         25    1    4    4    0    0 -0.30035345196E+02  0.13687877485E+02 -0.26947121586E+03  0.29891758768E+03  0.12509000000E+03 0.  0.
<mgrwt>
<rscale>  2 0.42782684E+03</rscale>
<asrwt>0</asrwt>
<pdfrwt beam="1">  1       21 0.12074030E-01 0.42782684E+03</pdfrwt>
<pdfrwt beam="2">  1       21 0.81960761E-01 0.42782684E+03</pdfrwt>
<totfact> 0.70190941E+04</totfact>
</mgrwt>
</event>
<event>
 7    0  0.4831799E-002  0.4529842E+03  0.7546771E-02  0.1026836E+00
         21   -1    0    0  502  501  0.00000000000E+00  0.00000000000E+00  0.84160438368E+02  0.84160438368E+02  0.00000000000E+00 0. -1.
         21   -1    0    0  501  502 -0.00000000000E+00 -0.00000000000E+00 -0.60953437215E+03  0.60953437215E+03  0.00000000000E+00 0. -1.
      99926    2    1    2    0    0  0.00000000000E+00  0.00000000000E+00 -0.52537393378E+03  0.69369481052E+03  0.45298423796E+03 0.  0.
      99925    2    3    3    0    0  0.12023755644E+02  0.40079016435E+02 -0.17339225555E+03  0.31780984385E+03  0.26303483477E+03 0.  0.
         25    1    4    4    0    0 -0.47234804714E+01  0.29844247469E+02 -0.42077847295E+02  0.13539218481E+03  0.12509000000E+03 0.  0.
         25    1    4    4    0    0  0.16747236115E+02  0.10234768966E+02 -0.13131440826E+03  0.18241765904E+03  0.12509000000E+03 0.  0.
         25    1    3    3    0    0 -0.12023755644E+02 -0.40079016435E+02 -0.35198167823E+03  0.37588496667E+03  0.12509000000E+03 0.  0.
<mgrwt>
<rscale>  2 0.45298424E+03</rscale>
<asrwt>0</asrwt>
<pdfrwt beam="1">  1       21 0.12376535E-01 0.45298424E+03</pdfrwt>
<pdfrwt beam="2">  1       21 0.89637408E-01 0.45298424E+03</pdfrwt>
<totfact> 0.54099941E+04</totfact>
</mgrwt>
</event>
<event>
 7    0  0.4831799E-002  0.4597534E+03  0.7546771E-02  0.1024853E+00
         21   -1    0    0  502  501  0.00000000000E+00  0.00000000000E+00  0.15463905152E+04  0.15463905152E+04  0.00000000000E+00 0.  1.
         21   -1    0    0  501  502 -0.00000000000E+00 -0.00000000000E+00 -0.34172030212E+02  0.34172030212E+02  0.00000000000E+00 0.  1.
      99926    2    1    2    0    0  0.00000000000E+00  0.00000000000E+00  0.15122184850E+04  0.15805625454E+04  0.45975342699E+03 0.  0.
      99925    2    3    3    0    0 -0.68653274735E+02 -0.55732711916E+02  0.12138752616E+04  0.12451887326E+04  0.26302551522E+03 0.  0.
         25    1    4    4    0    0 -0.46995581267E+02 -0.41647220773E+02  0.46895365021E+03  0.48939565773E+03  0.12509000000E+03 0.  0.
         25    1    3    3    0    0  0.68653274735E+02  0.55732711916E+02  0.29834322343E+03  0.33537381290E+03  0.12509000000E+03 0.  0.
         25    1    4    4    0    0 -0.21657693468E+02 -0.14085491143E+02  0.74492161139E+03  0.75579307483E+03  0.12509000000E+03 0.  0.
<mgrwt>
<rscale>  2 0.45975343E+03</rscale>
<asrwt>0</asrwt>
<pdfrwt beam="1">  1       21 0.22741032E+00 0.45975343E+03</pdfrwt>
<pdfrwt beam="2">  1       21 0.50252996E-02 0.45975343E+03</pdfrwt>
<totfact> 0.21082836E+04</totfact>
</mgrwt>
</event>
<event>
 7    0  0.4831799E-002  0.4569069E+03  0.7546771E-02  0.1025682E+00
         21   -1    0    0  502  501  0.00000000000E+00  0.00000000000E+00  0.10691980786E+03  0.10691980786E+03  0.00000000000E+00 0.  1.
         21   -1    0    0  501  502 -0.00000000000E+00 -0.00000000000E+00 -0.48813206266E+03  0.48813206266E+03  0.00000000000E+00 0.  1.
      99926    2    1    2    0    0  0.00000000000E+00  0.00000000000E+00 -0.38121225480E+03  0.59505187051E+03  0.45690693296E+03 0.  0.
      99925    2    3    3    0    0 -0.28294158597E+02 -0.10163433732E+03 -0.29905062157E+03  0.41194496183E+03  0.26293968773E+03 0.  0.
         25    1    3    3    0    0  0.28294158597E+02  0.10163433732E+03 -0.82161633236E+02  0.18310690869E+03  0.12509000000E+03 0.  0.
         25    1    4    4    0    0 -0.36439090887E+02 -0.85716446275E+02 -0.14792551460E+03  0.21495251215E+03  0.12509000000E+03 0.  0.
         25    1    4    4    0    0  0.81449322897E+01 -0.15917891041E+02 -0.15112510696E+03  0.19699244968E+03  0.12509000000E+03 0.  0.
<mgrwt>
<rscale>  2 0.45690693E+03</rscale>
<asrwt>0</asrwt>
<pdfrwt beam="1">  1       21 0.15723501E-01 0.45690693E+03</pdfrwt>
<pdfrwt beam="2">  1       21 0.71784126E-01 0.45690693E+03</pdfrwt>
<totfact> 0.58103327E+04</totfact>
</mgrwt>
</event>
<event>
 7    0  0.4831799E-002  0.4568099E+03  0.7546771E-02  0.1025711E+00
         21   -1    0    0  502  501  0.00000000000E+00  0.00000000000E+00  0.20511873165E+03  0.20511873165E+03  0.00000000000E+00 0.  1.
         21   -1    0    0  501  502 -0.00000000000E+00 -0.00000000000E+00 -0.25433472351E+03  0.25433472351E+03  0.00000000000E+00 0.  1.
      99926    2    1    2    0    0 -0.44408920985E-15  0.00000000000E+00 -0.49215991864E+02  0.45945345516E+03  0.45680987687E+03 0.  0.
      99925    2    3    3    0    0  0.30160702181E+01  0.43261382746E+02  0.76421428551E+02  0.27693520012E+03  0.26262563928E+03 0.  0.
         25    1    4    4    0    0 -0.29137007279E+02  0.11145662681E+02  0.62036833368E+02  0.14307084883E+03  0.12509000000E+03 0.  0.
         25    1    3    3    0    0 -0.30160702181E+01 -0.43261382746E+02 -0.12563742042E+03  0.18251825505E+03  0.12509000000E+03 0.  0.
         25    1    4    4    0    0  0.32153077497E+02  0.32115720065E+02  0.14384595183E+02  0.13386435129E+03  0.12509000000E+03 0.  0.
<mgrwt>
<rscale>  2 0.45680988E+03</rscale>
<asrwt>0</asrwt>
<pdfrwt beam="1">  1       21 0.30164519E-01 0.45680988E+03</pdfrwt>
<pdfrwt beam="2">  1       21 0.37402165E-01 0.45680988E+03</pdfrwt>
<totfact> 0.67244442E+04</totfact>
</mgrwt>
</event>
<event>
 7    0  0.4831799E-002  0.4638333E+03  0.7546771E-02  0.1023675E+00
         21   -1    0    0  502  501  0.00000000000E+00  0.00000000000E+00  0.60669427001E+02  0.60669427001E+02  0.00000000000E+00 0.  1.
         21   -1    0    0  501  502 -0.00000000000E+00 -0.00000000000E+00 -0.88653112253E+03  0.88653112253E+03  0.00000000000E+00 0.  1.
      99926    2    1    2    0    0  0.00000000000E+00 -0.35527136788E-14 -0.82586169553E+03  0.94720054953E+03  0.46383331154E+03 0.  0.
      99925    2    3    3    0    0  0.60189918230E+02  0.31670706045E+02 -0.31077697279E+03  0.41279841670E+03  0.26304818215E+03 0.  0.
         25    1    4    4    0    0  0.40296470696E+02 -0.22080244705E+02 -0.16914575072E+03  0.21533493875E+03  0.12509000000E+03 0.  0.
         25    1    4    4    0    0  0.19893447534E+02  0.53750950750E+02 -0.14163122207E+03  0.19746347796E+03  0.12509000000E+03 0.  0.
         25    1    3    3    0    0 -0.60189918230E+02 -0.31670706045E+02 -0.51508472273E+03  0.53440213283E+03  0.12509000000E+03 0.  0.
<mgrwt>
<rscale>  2 0.46383331E+03</rscale>
<asrwt>0</asrwt>
<pdfrwt beam="1">  1       21 0.89219748E-02 0.46383331E+03</pdfrwt>
<pdfrwt beam="2">  1       21 0.13037222E+00 0.46383331E+03</pdfrwt>
<totfact> 0.38523482E+04</totfact>
</mgrwt>
</event>
<event>
 7    0  0.4831799E-002  0.4557435E+03  0.7546771E-02  0.1026023E+00
         21   -1    0    0  502  501  0.00000000000E+00  0.00000000000E+00  0.52384270155E+03  0.52384270155E+03  0.00000000000E+00 0.  1.
         21   -1    0    0  501  502 -0.00000000000E+00 -0.00000000000E+00 -0.99124274228E+02  0.99124274228E+02  0.00000000000E+00 0.  1.
      99926    2    1    2    0    0  0.00000000000E+00 -0.14210854715E-13  0.42471842732E+03  0.62296697578E+03  0.45574346995E+03 0.  0.
      99925    2    3    3    0    0  0.38292495171E+02 -0.94103328951E+02  0.33710457614E+03  0.43954002376E+03  0.26312389768E+03 0.  0.
         25    1    4    4    0    0  0.29309921563E+01 -0.84878363405E+02  0.16743743048E+03  0.22560081674E+03  0.12509000000E+03 0.  0.
         25    1    3    3    0    0 -0.38292495171E+02  0.94103328951E+02  0.87613851185E+02  0.18342695202E+03  0.12509000000E+03 0.  0.
         25    1    4    4    0    0  0.35361503015E+02 -0.92249655464E+01  0.16966714566E+03  0.21393920702E+03  0.12509000000E+03 0.  0.
<mgrwt>
<rscale>  2 0.45574347E+03</rscale>
<asrwt>0</asrwt>
<pdfrwt beam="1">  1       21 0.77035690E-01 0.45574347E+03</pdfrwt>
<pdfrwt beam="2">  1       21 0.14577099E-01 0.45574347E+03</pdfrwt>
<totfact> 0.56951342E+04</totfact>
</mgrwt>
</event>
<event>
 7    0  0.4831799E-002  0.4554503E+03  0.7546771E-02  0.1026109E+00
         21   -1    0    0  502  501  0.00000000000E+00  0.00000000000E+00  0.20841847697E+03  0.20841847697E+03  0.00000000000E+00 0.  1.
         21   -1    0    0  501  502 -0.00000000000E+00 -0.00000000000E+00 -0.24882025308E+03  0.24882025308E+03  0.00000000000E+00 0.  1.
      99926    2    1    2    0    0 -0.35527136788E-14  0.14210854715E-13 -0.40401776108E+02  0.45723873006E+03  0.45545027473E+03 0.  0.
      99925    2    3    3    0    0  0.17488014542E+02  0.80929710150E+02  0.52593050997E+02  0.28074228645E+03  0.26304895694E+03 0.  0.
         25    1    4    4    0    0  0.38023534984E+02  0.56663313386E+02  0.51972749587E+02  0.15167463564E+03  0.12509000000E+03 0.  0.
         25    1    4    4    0    0 -0.20535520442E+02  0.24266396764E+02  0.62030141021E+00  0.12906765081E+03  0.12509000000E+03 0.  0.
         25    1    3    3    0    0 -0.17488014542E+02 -0.80929710150E+02 -0.92994827105E+02  0.17649644361E+03  0.12509000000E+03 0.  0.
<mgrwt>
<rscale>  2 0.45545027E+03</rscale>
<asrwt>0</asrwt>
<pdfrwt beam="1">  1       21 0.30649776E-01 0.45545027E+03</pdfrwt>
<pdfrwt beam="2">  1       21 0.36591213E-01 0.45545027E+03</pdfrwt>
<totfact> 0.68136999E+04</totfact>
</mgrwt>
</event>
<event>
 7    0  0.4831799E-002  0.4450757E+03  0.7546771E-02  0.1029201E+00
         21   -1    0    0  502  501  0.00000000000E+00  0.00000000000E+00  0.84780911216E+03  0.84780911216E+03  0.00000000000E+00 0.  1.
         21   -1    0    0  501  502 -0.00000000000E+00 -0.00000000000E+00 -0.58413028718E+02  0.58413028718E+02  0.00000000000E+00 0.  1.
      99926    2    1    2    0    0  0.00000000000E+00  0.71054273576E-14  0.78939608344E+03  0.90622214088E+03  0.44507571498E+03 0.  0.
      99925    2    3    3    0    0 -0.65724920179E+02 -0.35359257052E+02  0.35521068844E+03  0.44825433904E+03  0.26303474502E+03 0.  0.
         25    1    4    4    0    0 -0.14475252588E+02 -0.53860920502E+02  0.18037533388E+03  0.22648024388E+03  0.12509000000E+03 0.  0.
         25    1    3    3    0    0  0.65724920179E+02  0.35359257052E+02  0.43418539500E+03  0.45796780184E+03  0.12509000000E+03 0.  0.
         25    1    4    4    0    0 -0.51249667591E+02  0.18501663449E+02  0.17483535456E+03  0.22177409516E+03  0.12509000000E+03 0.  0.
<mgrwt>
<rscale>  2 0.44507571E+03</rscale>
<asrwt>0</asrwt>
<pdfrwt beam="1">  1       21 0.12467780E+00 0.44507571E+03</pdfrwt>
<pdfrwt beam="2">  1       21 0.85901518E-02 0.44507571E+03</pdfrwt>
<totfact> 0.46470897E+04</totfact>
</mgrwt>
</event>
<event>
 7    0  0.4831799E-002  0.4506799E+03  0.7546771E-02  0.1027519E+00
         21   -1    0    0  502  501  0.00000000000E+00  0.00000000000E+00  0.11571313516E+03  0.11571313516E+03  0.00000000000E+00 0.  1.
         21   -1    0    0  501  502 -0.00000000000E+00 -0.00000000000E+00 -0.43882745452E+03  0.43882745452E+03  0.00000000000E+00 0.  1.
      99926    2    1    2    0    0  0.71054273576E-14  0.14210854715E-13 -0.32311431936E+03  0.55454058969E+03  0.45067993325E+03 0.  0.
      99925    2    3    3    0    0  0.54121550625E+02  0.91325751666E+02 -0.17370953162E+03  0.33264233855E+03  0.26307107188E+03 0.  0.
         25    1    4    4    0    0 -0.14116109590E+02  0.39070432594E+02 -0.85233757597E+02  0.15696517062E+03  0.12509000000E+03 0.  0.
         25    1    4    4    0    0  0.68237660214E+02  0.52255319072E+02 -0.88475774019E+02  0.17567716793E+03  0.12509000000E+03 0.  0.
         25    1    3    3    0    0 -0.54121550625E+02 -0.91325751666E+02 -0.14940478774E+03  0.22189825114E+03  0.12509000000E+03 0.  0.
<mgrwt>
<rscale>  2 0.45067993E+03</rscale>
<asrwt>0</asrwt>
<pdfrwt beam="1">  1       21 0.17016638E-01 0.45067993E+03</pdfrwt>
<pdfrwt beam="2">  1       21 0.64533448E-01 0.45067993E+03</pdfrwt>
<totfact> 0.63717283E+04</totfact>
</mgrwt>
</event>
<event>
 7    0  0.4831799E-002  0.4556961E+03  0.7546771E-02  0.1026037E+00
         21   -1    0    0  502  501  0.00000000000E+00  0.00000000000E+00  0.25724081298E+03  0.25724081298E+03  0.00000000000E+00 0. -1.
         21   -1    0    0  501  502 -0.00000000000E+00 -0.00000000000E+00 -0.20181373934E+03  0.20181373934E+03  0.00000000000E+00 0. -1.
      99926    2    1    2    0    0 -0.71054273576E-14  0.00000000000E+00  0.55427073637E+02  0.45905455233E+03  0.45569608460E+03 0.  0.
      99925    2    3    3    0    0  0.34372436728E+02  0.71357858263E+02 -0.47044109281E+02  0.27899550709E+03  0.26334755821E+03 0.  0.
         25    1    4    4    0    0 -0.56755244835E+01  0.36244829731E+02 -0.57832265146E+02  0.14261128375E+03  0.12509000000E+03 0.  0.
         25    1    4    4    0    0  0.40047961212E+02  0.35113028532E+02  0.10788155865E+02  0.13638422334E+03  0.12509000000E+03 0.  0.
         25    1    3    3    0    0 -0.34372436728E+02 -0.71357858263E+02  0.10247118292E+03  0.18005904524E+03  0.12509000000E+03 0.  0.
<mgrwt>
<rscale>  2 0.45569608E+03</rscale>
<asrwt>0</asrwt>
<pdfrwt beam="1">  1       21 0.37829531E-01 0.45569608E+03</pdfrwt>
<pdfrwt beam="2">  1       21 0.29678491E-01 0.45569608E+03</pdfrwt>
<totfact> 0.67871923E+04</totfact>
</mgrwt>
</event>
<event>
 7    0  0.4831799E-002  0.4548883E+03  0.7546771E-02  0.1026274E+00
         21   -1    0    0  502  501  0.00000000000E+00  0.00000000000E+00  0.55469186895E+03  0.55469186895E+03  0.00000000000E+00 0. -1.
         21   -1    0    0  501  502 -0.00000000000E+00 -0.00000000000E+00 -0.93260501025E+02  0.93260501025E+02  0.00000000000E+00 0. -1.
      99926    2    1    2    0    0  0.00000000000E+00  0.00000000000E+00  0.46143136792E+03  0.64795236997E+03  0.45488830107E+03 0.  0.
      99925    2    3    3    0    0  0.28554592137E+02 -0.82869160052E+02  0.39209324114E+03  0.48020867755E+03  0.26302205579E+03 0.  0.
         25    1    4    4    0    0  0.31285690150E+02 -0.66022421794E+02  0.25901799014E+03  0.29677530542E+03  0.12509000000E+03 0.  0.
         25    1    4    4    0    0 -0.27310980135E+01 -0.16846738257E+02  0.13307525100E+03  0.18343337214E+03  0.12509000000E+03 0.  0.
         25    1    3    3    0    0 -0.28554592137E+02  0.82869160052E+02  0.69338126782E+02  0.16774369242E+03  0.12509000000E+03 0.  0.
<mgrwt>
<rscale>  2 0.45488830E+03</rscale>
<asrwt>0</asrwt>
<pdfrwt beam="1">  1       21 0.81572332E-01 0.45488830E+03</pdfrwt>
<pdfrwt beam="2">  1       21 0.13714780E-01 0.45488830E+03</pdfrwt>
<totfact> 0.55868826E+04</totfact>
</mgrwt>
</event>
<event>
 7    0  0.4831799E-002  0.4539711E+03  0.7546771E-02  0.1026544E+00
         21   -1    0    0  502  501  0.00000000000E+00  0.00000000000E+00  0.37986904965E+02  0.37986904965E+02  0.00000000000E+00 0.  1.
         21   -1    0    0  501  502 -0.00000000000E+00 -0.00000000000E+00 -0.13563209651E+04  0.13563209651E+04  0.00000000000E+00 0.  1.
      99926    2    1    2    0    0  0.00000000000E+00  0.00000000000E+00 -0.13183340601E+04  0.13943078701E+04  0.45397108103E+03 0.  0.
      99925    2    3    3    0    0  0.90353315649E+02 -0.45319330745E+02 -0.68226594504E+03  0.73822272427E+03  0.26318891976E+03 0.  0.
         25    1    4    4    0    0  0.57043321222E+02  0.73216991656E+01 -0.40444401640E+03  0.42723531956E+03  0.12509000000E+03 0.  0.
         25    1    3    3    0    0 -0.90353315649E+02  0.45319330745E+02 -0.63606811510E+03  0.65608514579E+03  0.12509000000E+03 0.  0.
         25    1    4    4    0    0  0.33309994428E+02 -0.52641029911E+02 -0.27782192864E+03  0.31098740472E+03  0.12509000000E+03 0.  0.
<mgrwt>
<rscale>  2 0.45397108E+03</rscale>
<asrwt>0</asrwt>
<pdfrwt beam="1">  1       21 0.55863096E-02 0.45397108E+03</pdfrwt>
<pdfrwt beam="2">  1       21 0.19945897E+00 0.45397108E+03</pdfrwt>
<totfact> 0.26696914E+04</totfact>
</mgrwt>
</event>
<event>
 7    0  0.4831799E-002  0.4572517E+03  0.7546771E-02  0.1025581E+00
         21   -1    0    0  502  501  0.00000000000E+00  0.00000000000E+00  0.19528810360E+03  0.19528810360E+03  0.00000000000E+00 0.  1.
         21   -1    0    0  501  502 -0.00000000000E+00 -0.00000000000E+00 -0.26765474912E+03  0.26765474912E+03  0.00000000000E+00 0.  1.
      99926    2    1    2    0    0  0.14210854715E-13  0.00000000000E+00 -0.72366645517E+02  0.46294285273E+03  0.45725173975E+03 0.  0.
      99925    2    3    3    0    0 -0.10017922776E+03  0.33713945222E+02 -0.92189945479E+02  0.29797928373E+03  0.26290713133E+03 0.  0.
         25    1    4    4    0    0 -0.18091435294E+02  0.29702128892E+02 -0.67334566244E+02  0.14625651576E+03  0.12509000000E+03 0.  0.
         25    1    3    3    0    0  0.10017922776E+03 -0.33713945222E+02  0.19823299962E+02  0.16496356900E+03  0.12509000000E+03 0.  0.
         25    1    4    4    0    0 -0.82087792461E+02  0.40118163305E+01 -0.24855379235E+02  0.15172276796E+03  0.12509000000E+03 0.  0.
<mgrwt>
<rscale>  2 0.45725174E+03</rscale>
<asrwt>0</asrwt>
<pdfrwt beam="1">  1       21 0.28718839E-01 0.45725174E+03</pdfrwt>
<pdfrwt beam="2">  1       21 0.39360992E-01 0.45725174E+03</pdfrwt>
<totfact> 0.66759742E+04</totfact>
</mgrwt>
</event>
<event>
 7    0  0.4831799E-002  0.4605217E+03  0.7546771E-02  0.1024630E+00
         21   -1    0    0  502  501  0.00000000000E+00  0.00000000000E+00  0.10769422438E+03  0.10769422438E+03  0.00000000000E+00 0. -1.
         21   -1    0    0  501  502 -0.00000000000E+00 -0.00000000000E+00 -0.49232030002E+03  0.49232030002E+03  0.00000000000E+00 0. -1.
      99926    2    1    2    0    0 -0.35527136788E-14  0.00000000000E+00 -0.38462607564E+03  0.60001452441E+03  0.46052167315E+03 0.  0.
      99925    2    3    3    0    0  0.12817786267E+02  0.72556640400E+02 -0.12022803006E+03  0.29838130953E+03  0.26295981623E+03 0.  0.
         25    1    4    4    0    0 -0.33416451332E+02  0.38226612442E+02 -0.67354753962E+02  0.15087115065E+03  0.12509000000E+03 0.  0.
         25    1    4    4    0    0  0.46234237599E+02  0.34330027958E+02 -0.52873276094E+02  0.14751015887E+03  0.12509000000E+03 0.  0.
         25    1    3    3    0    0 -0.12817786267E+02 -0.72556640400E+02 -0.26439804558E+03  0.30163321488E+03  0.12509000000E+03 0.  0.
<mgrwt>
<rscale>  2 0.46052167E+03</rscale>
<asrwt>0</asrwt>
<pdfrwt beam="1">  1       21 0.15837386E-01 0.46052167E+03</pdfrwt>
<pdfrwt beam="2">  1       21 0.72400042E-01 0.46052167E+03</pdfrwt>
<totfact> 0.56185614E+04</totfact>
</mgrwt>
</event>
<event>
 7    0  0.4831799E-002  0.4558326E+03  0.7546771E-02  0.1025997E+00
         21   -1    0    0  502  501  0.00000000000E+00  0.00000000000E+00  0.49748570660E+02  0.49748570660E+02  0.00000000000E+00 0. -1.
         21   -1    0    0  501  502 -0.00000000000E+00 -0.00000000000E+00 -0.10441674911E+04  0.10441674911E+04  0.00000000000E+00 0. -1.
      99926    2    1    2    0    0  0.00000000000E+00  0.00000000000E+00 -0.99441892047E+03  0.10939160618E+04  0.45583260179E+03 0.  0.
      99925    2    3    3    0    0 -0.98627427614E+02  0.55427442723E+02 -0.65854377002E+03  0.71807141879E+03  0.26295835138E+03 0.  0.
         25    1    3    3    0    0  0.98627427614E+02 -0.55427442723E+02 -0.33587515044E+03  0.37584464300E+03  0.12509000000E+03 0.  0.
         25    1    4    4    0    0 -0.36984858859E+02  0.38947911074E+02 -0.41719234180E+03  0.43884140383E+03  0.12509000000E+03 0.  0.
         25    1    4    4    0    0 -0.61642568755E+02  0.16479531649E+02 -0.24135142822E+03  0.27923001495E+03  0.12509000000E+03 0.  0.
<mgrwt>
<rscale>  2 0.45583260E+03</rscale>
<asrwt>0</asrwt>
<pdfrwt beam="1">  1       21 0.73159664E-02 0.45583260E+03</pdfrwt>
<pdfrwt beam="2">  1       21 0.15355404E+00 0.45583260E+03</pdfrwt>
<totfact> 0.35474950E+04</totfact>
</mgrwt>
</event>
<event>
 7    0  0.4831799E-002  0.4801240E+03  0.7546771E-02  0.1019101E+00
         21   -1    0    0  502  501  0.00000000000E+00  0.00000000000E+00  0.51499121098E+02  0.51499121098E+02  0.00000000000E+00 0.  1.
         21   -1    0    0  501  502 -0.00000000000E+00 -0.00000000000E+00 -0.11190435916E+04  0.11190435916E+04  0.00000000000E+00 0.  1.
      99926    2    1    2    0    0  0.35527136788E-14  0.00000000000E+00 -0.10675444705E+04  0.11705427127E+04  0.48012398998E+03 0.  0.
      99925    2    3    3    0    0  0.20659268881E+02 -0.90520593844E+02 -0.41769757559E+03  0.50228432089E+03  0.26305415992E+03 0.  0.
         25    1    3    3    0    0 -0.20659268881E+02  0.90520593844E+02 -0.64984689495E+03  0.66825839184E+03  0.12509000000E+03 0.  0.
         25    1    4    4    0    0  0.34017165691E+01 -0.58025256896E+02 -0.28294298188E+03  0.31477411140E+03  0.12509000000E+03 0.  0.
         25    1    4    4    0    0  0.17257552312E+02 -0.32495336948E+02 -0.13475459371E+03  0.18751020949E+03  0.12509000000E+03 0.  0.
<mgrwt>
<rscale>  2 0.48012399E+03</rscale>
<asrwt>0</asrwt>
<pdfrwt beam="1">  1       21 0.75734002E-02 0.48012399E+03</pdfrwt>
<pdfrwt beam="2">  1       21 0.16456523E+00 0.48012399E+03</pdfrwt>
<totfact> 0.27345121E+04</totfact>
</mgrwt>
</event>
<event>
 7    0  0.4831799E-002  0.4361012E+03  0.7546771E-02  0.1031950E+00
         21   -1    0    0  502  501  0.00000000000E+00  0.00000000000E+00  0.10466407753E+04  0.10466407753E+04  0.00000000000E+00 0. -1.
         21   -1    0    0  501  502 -0.00000000000E+00 -0.00000000000E+00 -0.45427310001E+02  0.45427310001E+02  0.00000000000E+00 0. -1.
      99926    2    1    2    0    0 -0.35527136788E-14  0.00000000000E+00  0.10012134653E+04  0.10920680853E+04  0.43610124953E+03 0.  0.
      99925    2    3    3    0    0  0.16031941788E+02  0.73706959539E+02  0.49929541687E+03  0.56932629964E+03  0.26295775917E+03 0.  0.
         25    1    4    4    0    0 -0.34542835844E+01 -0.23713701615E+01  0.20880595462E+03  0.24344401873E+03  0.12509000000E+03 0.  0.
         25    1    3    3    0    0 -0.16031941788E+02 -0.73706959539E+02  0.50191804843E+03  0.52274178566E+03  0.12509000000E+03 0.  0.
         25    1    4    4    0    0  0.19486225372E+02  0.76078329701E+02  0.29048946225E+03  0.32588228091E+03  0.12509000000E+03 0.  0.
<mgrwt>
<rscale>  2 0.43610125E+03</rscale>
<asrwt>0</asrwt>
<pdfrwt beam="1">  1       21 0.15391775E+00 0.43610125E+03</pdfrwt>
<pdfrwt beam="2">  1       21 0.66804874E-02 0.43610125E+03</pdfrwt>
<totfact> 0.41569589E+04</totfact>
</mgrwt>
</event>
<event>
 7    0  0.4831799E-002  0.4533667E+03  0.7546771E-02  0.1026723E+00
         21   -1    0    0  502  501  0.00000000000E+00  0.00000000000E+00  0.14477396696E+03  0.14477396696E+03  0.00000000000E+00 0. -1.
         21   -1    0    0  501  502 -0.00000000000E+00 -0.00000000000E+00 -0.35493490667E+03  0.35493490667E+03  0.00000000000E+00 0. -1.
      99926    2    1    2    0    0  0.00000000000E+00  0.00000000000E+00 -0.21016093972E+03  0.49970887363E+03  0.45336667037E+03 0.  0.
      99925    2    3    3    0    0 -0.85086575078E+02 -0.37960024558E+02 -0.64627012405E+02  0.28638208014E+03  0.26297786289E+03 0.  0.
         25    1    3    3    0    0  0.85086575078E+02  0.37960024558E+02 -0.14553392731E+03  0.21332679349E+03  0.12509000000E+03 0.  0.
         25    1    4    4    0    0 -0.64394520619E+02 -0.54927290210E+02 -0.32546425006E+02  0.15450061287E+03  0.12509000000E+03 0.  0.
         25    1    4    4    0    0 -0.20692054460E+02  0.16967265652E+02 -0.32080587399E+02  0.13188146727E+03  0.12509000000E+03 0.  0.
<mgrwt>
<rscale>  2 0.45336667E+03</rscale>
<asrwt>0</asrwt>
<pdfrwt beam="1">  1       21 0.21290289E-01 0.45336667E+03</pdfrwt>
<pdfrwt beam="2">  1       21 0.52196310E-01 0.45336667E+03</pdfrwt>
<totfact> 0.66144553E+04</totfact>
</mgrwt>
</event>
<event>
 7    0  0.4831799E-002  0.4556166E+03  0.7546771E-02  0.1026060E+00
         21   -1    0    0  502  501  0.00000000000E+00  0.00000000000E+00  0.90873511316E+03  0.90873511316E+03  0.00000000000E+00 0.  1.
         21   -1    0    0  501  502 -0.00000000000E+00 -0.00000000000E+00 -0.57108636401E+02  0.57108636401E+02  0.00000000000E+00 0.  1.
      99926    2    1    2    0    0 -0.42188474936E-14  0.00000000000E+00  0.85162647676E+03  0.96584374956E+03  0.45561660708E+03 0.  0.
      99925    2    3    3    0    0 -0.14312629627E+01  0.11127627284E+03  0.48447976978E+03  0.56232340316E+03  0.26287355327E+03 0.  0.
         25    1    4    4    0    0  0.38703254947E+02  0.46186205568E+02  0.23573011346E+03  0.27358234961E+03  0.12509000000E+03 0.  0.
         25    1    3    3    0    0  0.14312629627E+01 -0.11127627284E+03  0.36714670698E+03  0.40352034640E+03  0.12509000000E+03 0.  0.
         25    1    4    4    0    0 -0.40134517910E+02  0.65090067273E+02  0.24874965632E+03  0.28874105355E+03  0.12509000000E+03 0.  0.
<mgrwt>
<rscale>  2 0.45561661E+03</rscale>
<asrwt>0</asrwt>
<pdfrwt beam="1">  1       21 0.13363751E+00 0.45561661E+03</pdfrwt>
<pdfrwt beam="2">  1       21 0.83983294E-02 0.45561661E+03</pdfrwt>
<totfact> 0.40311165E+04</totfact>
</mgrwt>
</event>
<event>
 7    0  0.4831799E-002  0.4479869E+03  0.7546771E-02  0.1028324E+00
         21   -1    0    0  502  501  0.00000000000E+00  0.00000000000E+00  0.14086670687E+03  0.14086670687E+03  0.00000000000E+00 0.  1.
         21   -1    0    0  501  502 -0.00000000000E+00 -0.00000000000E+00 -0.35617399264E+03  0.35617399264E+03  0.00000000000E+00 0.  1.
      99926    2    1    2    0    0  0.00000000000E+00  0.00000000000E+00 -0.21530728578E+03  0.49704069951E+03  0.44798686327E+03 0.  0.
      99925    2    3    3    0    0  0.12928126961E+02  0.52736503466E+02 -0.23794880681E+03  0.35880748411E+03  0.26301121787E+03 0.  0.
         25    1    4    4    0    0  0.22484241232E+02 -0.10848303231E+02 -0.10400041732E+03  0.16458074520E+03  0.12509000000E+03 0.  0.
         25    1    4    4    0    0 -0.95561142716E+01  0.63584806697E+02 -0.13394838949E+03  0.19422673891E+03  0.12509000000E+03 0.  0.
         25    1    3    3    0    0 -0.12928126961E+02 -0.52736503466E+02  0.22641521031E+02  0.13823321540E+03  0.12509000000E+03 0.  0.
<mgrwt>
<rscale>  2 0.44798686E+03</rscale>
<asrwt>0</asrwt>
<pdfrwt beam="1">  1       21 0.20715692E-01 0.44798686E+03</pdfrwt>
<pdfrwt beam="2">  1       21 0.52378528E-01 0.44798686E+03</pdfrwt>
<totfact> 0.69254893E+04</totfact>
</mgrwt>
</event>
<event>
 7    0  0.4831799E-002  0.4576949E+03  0.7546771E-02  0.1025452E+00
         21   -1    0    0  502  501  0.00000000000E+00  0.00000000000E+00  0.29931705458E+03  0.29931705458E+03  0.00000000000E+00 0. -1.
         21   -1    0    0  501  502 -0.00000000000E+00 -0.00000000000E+00 -0.17496880869E+03  0.17496880869E+03  0.00000000000E+00 0. -1.
      99926    2    1    2    0    0  0.71054273576E-14  0.00000000000E+00  0.12434824589E+03  0.47428586327E+03  0.45769486980E+03 0.  0.
      99925    2    3    3    0    0 -0.52190583442E+02  0.79968327967E+02  0.10355913212E+02  0.27996512200E+03  0.26297230676E+03 0.  0.
         25    1    4    4    0    0 -0.39913871970E+02  0.35687275915E+01 -0.87369007791E+01  0.13164229764E+03  0.12509000000E+03 0.  0.
         25    1    4    4    0    0 -0.12276711472E+02  0.76399600375E+02  0.19092813991E+02  0.14832282437E+03  0.12509000000E+03 0.  0.
         25    1    3    3    0    0  0.52190583442E+02 -0.79968327967E+02  0.11399233268E+03  0.19432074127E+03  0.12509000000E+03 0.  0.
<mgrwt>
<rscale>  2 0.45769487E+03</rscale>
<asrwt>0</asrwt>
<pdfrwt beam="1">  1       21 0.44017214E-01 0.45769487E+03</pdfrwt>
<pdfrwt beam="2">  1       21 0.25730707E-01 0.45769487E+03</pdfrwt>
<totfact> 0.65702299E+04</totfact>
</mgrwt>
</event>
<event>
 7    0  0.4831799E-002  0.4536374E+03  0.7546771E-02  0.1026643E+00
         21   -1    0    0  502  501  0.00000000000E+00  0.00000000000E+00  0.41099518636E+03  0.41099518636E+03  0.00000000000E+00 0. -1.
         21   -1    0    0  501  502 -0.00000000000E+00 -0.00000000000E+00 -0.12517594672E+03  0.12517594672E+03  0.00000000000E+00 0. -1.
      99926    2    1    2    0    0 -0.35527136788E-14  0.71054273576E-14  0.28581923964E+03  0.53617113308E+03  0.45363735098E+03 0.  0.
      99925    2    3    3    0    0 -0.13237230203E+02  0.50903250961E+02  0.63417693523E+02  0.27564028839E+03  0.26303877948E+03 0.  0.
         25    1    3    3    0    0  0.13237230203E+02 -0.50903250961E+02  0.22240154612E+03  0.26053084469E+03  0.12509000000E+03 0.  0.
         25    1    4    4    0    0 -0.33026412348E+02  0.44573984756E+02  0.74723343420E+01  0.13704352560E+03  0.12509000000E+03 0.  0.
         25    1    4    4    0    0  0.19789182145E+02  0.63292662046E+01  0.55945359181E+02  0.13859676279E+03  0.12509000000E+03 0.  0.
<mgrwt>
<rscale>  2 0.45363735E+03</rscale>
<asrwt>0</asrwt>
<pdfrwt beam="1">  1       21 0.60440468E-01 0.45363735E+03</pdfrwt>
<pdfrwt beam="2">  1       21 0.18408228E-01 0.45363735E+03</pdfrwt>
<totfact> 0.63471459E+04</totfact>
</mgrwt>
</event>
<event>
 7    0  0.4831799E-002  0.4579211E+03  0.7546771E-02  0.1025386E+00
         21   -1    0    0  502  501  0.00000000000E+00  0.00000000000E+00  0.29371571815E+02  0.29371571815E+02  0.00000000000E+00 0.  1.
         21   -1    0    0  501  502 -0.00000000000E+00 -0.00000000000E+00 -0.17848187178E+04  0.17848187178E+04  0.00000000000E+00 0.  1.
      99926    2    1    2    0    0  0.00000000000E+00  0.00000000000E+00 -0.17554471460E+04  0.18141902896E+04  0.45792108991E+03 0.  0.
      99925    2    3    3    0    0  0.38555716334E+02 -0.10929688297E+03 -0.10923194839E+04  0.11294873203E+04  0.26295893193E+03 0.  0.
         25    1    3    3    0    0 -0.38555716334E+02  0.10929688297E+03 -0.66312766202E+03  0.68470296927E+03  0.12509000000E+03 0.  0.
         25    1    4    4    0    0  0.34408352783E+02 -0.96147961913E+02 -0.62312075441E+03  0.64370439488E+03  0.12509000000E+03 0.  0.
         25    1    4    4    0    0  0.41473635512E+01 -0.13148921060E+02 -0.46919872953E+03  0.48578292543E+03  0.12509000000E+03 0.  0.
<mgrwt>
<rscale>  2 0.45792109E+03</rscale>
<asrwt>0</asrwt>
<pdfrwt beam="1">  1       21 0.43193486E-02 0.45792109E+03</pdfrwt>
<pdfrwt beam="2">  1       21 0.26247336E+00 0.45792109E+03</pdfrwt>
<totfact> 0.16608541E+04</totfact>
</mgrwt>
</event>
<event>
 7    0  0.4831799E-002  0.4490803E+03  0.7546771E-02  0.1027997E+00
         21   -1    0    0  502  501  0.00000000000E+00  0.00000000000E+00  0.14942031585E+03  0.14942031585E+03  0.00000000000E+00 0.  1.
         21   -1    0    0  501  502 -0.00000000000E+00 -0.00000000000E+00 -0.33742587921E+03  0.33742587921E+03  0.00000000000E+00 0.  1.
      99926    2    1    2    0    0 -0.17763568394E-14  0.00000000000E+00 -0.18800556336E+03  0.48684619506E+03  0.44908031107E+03 0.  0.
      99925    2    3    3    0    0 -0.15483004993E+02  0.82423120434E+02 -0.45994622816E+02  0.27984882899E+03  0.26299537550E+03 0.  0.
         25    1    3    3    0    0  0.15483004993E+02 -0.82423120434E+02 -0.14201094054E+03  0.20699736607E+03  0.12509000000E+03 0.  0.
         25    1    4    4    0    0 -0.43671619391E+02  0.22147331932E+02 -0.20560823228E+02  0.13589691021E+03  0.12509000000E+03 0.  0.
         25    1    4    4    0    0  0.28188614398E+02  0.60275788503E+02 -0.25433799588E+02  0.14395191879E+03  0.12509000000E+03 0.  0.
<mgrwt>
<rscale>  2 0.44908031E+03</rscale>
<asrwt>0</asrwt>
<pdfrwt beam="1">  1       21 0.21973576E-01 0.44908031E+03</pdfrwt>
<pdfrwt beam="2">  1       21 0.49621452E-01 0.44908031E+03</pdfrwt>
<totfact> 0.69410007E+04</totfact>
</mgrwt>
</event>
<event>
 7    0  0.4831799E-002  0.4556307E+03  0.7546771E-02  0.1026056E+00
         21   -1    0    0  502  501  0.00000000000E+00  0.00000000000E+00  0.60111945702E+02  0.60111945702E+02  0.00000000000E+00 0.  1.
         21   -1    0    0  501  502 -0.00000000000E+00 -0.00000000000E+00 -0.86338635488E+03  0.86338635488E+03  0.00000000000E+00 0.  1.
      99926    2    1    2    0    0  0.00000000000E+00  0.00000000000E+00 -0.80327440918E+03  0.92349830059E+03  0.45563069995E+03 0.  0.
      99925    2    3    3    0    0  0.91867149909E+02  0.22895271351E+02 -0.37717076608E+03  0.46943267819E+03  0.26295529255E+03 0.  0.
         25    1    4    4    0    0  0.85022563386E+02 -0.20619525975E+01 -0.21810668068E+03  0.26542629898E+03  0.12509000000E+03 0.  0.
         25    1    4    4    0    0  0.68445865225E+01  0.24957223948E+02 -0.15906408540E+03  0.20400637920E+03  0.12509000000E+03 0.  0.
         25    1    3    3    0    0 -0.91867149909E+02 -0.22895271351E+02 -0.42610364310E+03  0.45406562240E+03  0.12509000000E+03 0.  0.
<mgrwt>
<rscale>  2 0.45563070E+03</rscale>
<asrwt>0</asrwt>
<pdfrwt beam="1">  1       21 0.88399930E-02 0.45563070E+03</pdfrwt>
<pdfrwt beam="2">  1       21 0.12696857E+00 0.45563070E+03</pdfrwt>
<totfact> 0.42025342E+04</totfact>
</mgrwt>
</event>
<event>
 7    0  0.4831799E-002  0.4482928E+03  0.7546771E-02  0.1028232E+00
         21   -1    0    0  502  501  0.00000000000E+00  0.00000000000E+00  0.12759175993E+03  0.12759175993E+03  0.00000000000E+00 0. -1.
         21   -1    0    0  501  502 -0.00000000000E+00 -0.00000000000E+00 -0.39376837860E+03  0.39376837860E+03  0.00000000000E+00 0. -1.
      99926    2    1    2    0    0  0.00000000000E+00 -0.24424906542E-14 -0.26617661867E+03  0.52136013853E+03  0.44829276340E+03 0.  0.
      99925    2    3    3    0    0 -0.10606526300E+03 -0.58521933668E+00 -0.15514389679E+03  0.32330470203E+03  0.26307055926E+03 0.  0.
         25    1    3    3    0    0  0.10606526300E+03  0.58521933668E+00 -0.11103272188E+03  0.19805543650E+03  0.12509000000E+03 0.  0.
         25    1    4    4    0    0 -0.57564166489E+02 -0.36702360994E+02 -0.98638929900E+02  0.17331429011E+03  0.12509000000E+03 0.  0.
         25    1    4    4    0    0 -0.48501096512E+02  0.36117141657E+02 -0.56504966887E+02  0.14999041192E+03  0.12509000000E+03 0.  0.
<mgrwt>
<rscale>  2 0.44829276E+03</rscale>
<asrwt>0</asrwt>
<pdfrwt beam="1">  1       21 0.18763494E-01 0.44829276E+03</pdfrwt>
<pdfrwt beam="2">  1       21 0.57907114E-01 0.44829276E+03</pdfrwt>
<totfact> 0.67303079E+04</totfact>
</mgrwt>
</event>
<event>
 7    0  0.4831799E-002  0.4366160E+03  0.7546771E-02  0.1031790E+00
         21   -1    0    0  502  501  0.00000000000E+00  0.00000000000E+00  0.83009985963E+02  0.83009985963E+02  0.00000000000E+00 0. -1.
         21   -1    0    0  501  502 -0.00000000000E+00 -0.00000000000E+00 -0.57412839267E+03  0.57412839267E+03  0.00000000000E+00 0. -1.
      99926    2    1    2    0    0 -0.17763568394E-14  0.00000000000E+00 -0.49111840671E+03  0.65713837864E+03  0.43661603185E+03 0.  0.
      99925    2    3    3    0    0 -0.67157821270E+01  0.86052854020E+02 -0.37365719080E+03  0.46505808095E+03  0.26307627603E+03 0.  0.
         25    1    4    4    0    0 -0.18401798359E+02  0.82181355233E+02 -0.21590948643E+03  0.26335682213E+03  0.12509000000E+03 0.  0.
         25    1    3    3    0    0  0.67157821270E+01 -0.86052854020E+02 -0.11746121591E+03  0.19208029768E+03  0.12509000000E+03 0.  0.
         25    1    4    4    0    0  0.11686016232E+02  0.38714987864E+01 -0.15774770437E+03  0.20170125883E+03  0.12509000000E+03 0.  0.
<mgrwt>
<rscale>  2 0.43661603E+03</rscale>
<asrwt>0</asrwt>
<pdfrwt beam="1">  1       21 0.12207351E-01 0.43661603E+03</pdfrwt>
<pdfrwt beam="2">  1       21 0.84430643E-01 0.43661603E+03</pdfrwt>
<totfact> 0.64085026E+04</totfact>
</mgrwt>
</event>
<event>
 7    0  0.4831799E-002  0.4445254E+03  0.7546771E-02  0.1029367E+00
         21   -1    0    0  502  501  0.00000000000E+00  0.00000000000E+00  0.37721365133E+03  0.37721365133E+03  0.00000000000E+00 0. -1.
         21   -1    0    0  501  502 -0.00000000000E+00 -0.00000000000E+00 -0.13096215043E+03  0.13096215043E+03  0.00000000000E+00 0. -1.
      99926    2    1    2    0    0  0.00000000000E+00  0.17763568394E-14  0.24625150090E+03  0.50817580176E+03  0.44452541412E+03 0.  0.
      99925    2    3    3    0    0 -0.70676987515E+02  0.12751679803E+02  0.24089160148E+03  0.36383565307E+03  0.26303949680E+03 0.  0.
         25    1    4    4    0    0  0.56212300374E+01 -0.22865998622E+01  0.10494011535E+03  0.16339144003E+03  0.12509000000E+03 0.  0.
         25    1    4    4    0    0 -0.76298217553E+02  0.15038279665E+02  0.13595148614E+03  0.20044421304E+03  0.12509000000E+03 0.  0.
         25    1    3    3    0    0  0.70676987515E+02 -0.12751679803E+02  0.53598994128E+01  0.14434014869E+03  0.12509000000E+03 0.  0.
<mgrwt>
<rscale>  2 0.44452541E+03</rscale>
<asrwt>0</asrwt>
<pdfrwt beam="1">  1       21 0.55472596E-01 0.44452541E+03</pdfrwt>
<pdfrwt beam="2">  1       21 0.19259140E-01 0.44452541E+03</pdfrwt>
<totfact> 0.70369636E+04</totfact>
</mgrwt>
</event>
<event>
 7    0  0.4831799E-002  0.4596004E+03  0.7546771E-02  0.1024897E+00
         21   -1    0    0  502  501  0.00000000000E+00  0.00000000000E+00  0.53740431820E+03  0.53740431820E+03  0.00000000000E+00 0. -1.
         21   -1    0    0  501  502 -0.00000000000E+00 -0.00000000000E+00 -0.98265183814E+02  0.98265183814E+02  0.00000000000E+00 0. -1.
      99926    2    1    2    0    0  0.00000000000E+00  0.00000000000E+00  0.43913913438E+03  0.63566950201E+03  0.45960040953E+03 0.  0.
      99925    2    3    3    0    0  0.10874558912E+03  0.43052357980E+02  0.28930075657E+03  0.40812136151E+03  0.26303803772E+03 0.  0.
         25    1    4    4    0    0  0.23407386401E+02  0.45779212581E+02  0.15490536504E+03  0.20563759933E+03  0.12509000000E+03 0.  0.
         25    1    4    4    0    0  0.85338202718E+02 -0.27268546011E+01  0.13439539154E+03  0.20248376218E+03  0.12509000000E+03 0.  0.
         25    1    3    3    0    0 -0.10874558912E+03 -0.43052357980E+02  0.14983837781E+03  0.22754814050E+03  0.12509000000E+03 0.  0.
<mgrwt>
<rscale>  2 0.45960041E+03</rscale>
<asrwt>0</asrwt>
<pdfrwt beam="1">  1       21 0.79030045E-01 0.45960041E+03</pdfrwt>
<pdfrwt beam="2">  1       21 0.14450763E-01 0.45960041E+03</pdfrwt>
<totfact> 0.54527643E+04</totfact>
</mgrwt>
</event>
<event>
 7    0  0.4831799E-002  0.4457895E+03  0.7546771E-02  0.1028985E+00
         21   -1    0    0  502  501  0.00000000000E+00  0.00000000000E+00  0.20632036078E+03  0.20632036078E+03  0.00000000000E+00 0.  1.
         21   -1    0    0  501  502 -0.00000000000E+00 -0.00000000000E+00 -0.24080061640E+03  0.24080061640E+03  0.00000000000E+00 0.  1.
      99926    2    1    2    0    0  0.00000000000E+00  0.00000000000E+00 -0.34480255619E+02  0.44712097718E+03  0.44578950213E+03 0.  0.
      99925    2    3    3    0    0 -0.50878435160E+02 -0.64016023156E+02  0.43032187035E+02  0.27876910386E+03  0.26300908303E+03 0.  0.
         25    1    4    4    0    0 -0.56247258188E+02 -0.68502807609E+01  0.13400074993E+02  0.13797735506E+03  0.12509000000E+03 0.  0.
         25    1    3    3    0    0  0.50878435160E+02  0.64016023156E+02 -0.77512442653E+02  0.16835187332E+03  0.12509000000E+03 0.  0.
         25    1    4    4    0    0  0.53688230279E+01 -0.57165742396E+02  0.29632112042E+02  0.14079174879E+03  0.12509000000E+03 0.  0.
<mgrwt>
<rscale>  2 0.44578950E+03</rscale>
<asrwt>0</asrwt>
<pdfrwt beam="1">  1       21 0.30341230E-01 0.44578950E+03</pdfrwt>
<pdfrwt beam="2">  1       21 0.35411855E-01 0.44578950E+03</pdfrwt>
<totfact> 0.74449481E+04</totfact>
</mgrwt>
</event>
<event>
 7    0  0.4831799E-002  0.4109729E+03  0.7546771E-02  0.1040045E+00
         21   -1    0    0  502  501  0.00000000000E+00  0.00000000000E+00  0.16639591942E+03  0.16639591942E+03  0.00000000000E+00 0. -1.
         21   -1    0    0  501  502 -0.00000000000E+00 -0.00000000000E+00 -0.25376036143E+03  0.25376036143E+03  0.00000000000E+00 0. -1.
      99926    2    1    2    0    0  0.00000000000E+00  0.00000000000E+00 -0.87364442006E+02  0.42015628085E+03  0.41097293659E+03 0.  0.
      99925    2    3    3    0    0 -0.22372186293E+02  0.49045583708E+02 -0.23429765759E+02  0.26968656653E+03  0.26320316534E+03 0.  0.
         25    1    3    3    0    0  0.22372186293E+02 -0.49045583708E+02 -0.63934676246E+02  0.15046971432E+03  0.12509000000E+03 0.  0.
         25    1    4    4    0    0 -0.86518919148E+01 -0.25479750636E+01 -0.42347074137E+02  0.13237118341E+03  0.12509000000E+03 0.  0.
         25    1    4    4    0    0 -0.13720294378E+02  0.51593558772E+02  0.18917308377E+02  0.13731538312E+03  0.12509000000E+03 0.  0.
<mgrwt>
<rscale>  2 0.41097294E+03</rscale>
<asrwt>0</asrwt>
<pdfrwt beam="1">  1       21 0.24469988E-01 0.41097294E+03</pdfrwt>
<pdfrwt beam="2">  1       21 0.37317700E-01 0.41097294E+03</pdfrwt>
<totfact> 0.10279392E+05</totfact>
</mgrwt>
</event>
<event>
 6    0  0.4831799E-002  0.4384616E+03  0.7546771E-02  0.1031220E+00
         21   -1    0    0  502  501  0.00000000000E+00  0.00000000000E+00  0.60023614897E+03  0.60023614897E+03  0.00000000000E+00 0. -1.
         21   -1    0    0  501  502 -0.00000000000E+00 -0.00000000000E+00 -0.80072045822E+02  0.80072045822E+02  0.00000000000E+00 0. -1.
      99926    2    1    2    0    0  0.00000000000E+00  0.35527136788E-14  0.52016410315E+03  0.68030819479E+03  0.43846156696E+03 0.  0.
         25    1    3    3    0    0 -0.29657226987E+02  0.33792836307E+02  0.13501236260E+03  0.18946596806E+03  0.12509000000E+03 0.  0.
         25    1    3    3    0    0  0.52264782196E+02  0.89488512989E+01  0.30676143158E+03  0.33550227034E+03  0.12509000000E+03 0.  0.
         25    1    3    3    0    0 -0.22607555209E+02 -0.42741687606E+02  0.78390308970E+02  0.15533995639E+03  0.12509000000E+03 0.  0.
<mgrwt>
<rscale>  2 0.43846157E+03</rscale>
<asrwt>0</asrwt>
<pdfrwt beam="1">  1       21 0.88270019E-01 0.43846157E+03</pdfrwt>
<pdfrwt beam="2">  1       21 0.11775301E-01 0.43846157E+03</pdfrwt>
<totfact> 0.61627101E+04</totfact>
</mgrwt>
</event>
<event>
 7    0  0.4831799E-002  0.4478737E+03  0.7546771E-02  0.1028358E+00
         21   -1    0    0  502  501  0.00000000000E+00  0.00000000000E+00  0.15688608931E+03  0.15688608931E+03  0.00000000000E+00 0. -1.
         21   -1    0    0  501  502 -0.00000000000E+00 -0.00000000000E+00 -0.31964417110E+03  0.31964417110E+03  0.00000000000E+00 0. -1.
      99926    2    1    2    0    0  0.35527136788E-14  0.00000000000E+00 -0.16275808179E+03  0.47653026041E+03  0.44787374995E+03 0.  0.
      99925    2    3    3    0    0  0.22618301505E+02 -0.42361608795E+02 -0.21784469410E+01  0.26739054469E+03  0.26303396034E+03 0.  0.
         25    1    4    4    0    0  0.29523698150E+02  0.12840745501E+02  0.12163366841E+02  0.12973815588E+03  0.12509000000E+03 0.  0.
         25    1    4    4    0    0 -0.69053966454E+01 -0.55202354296E+02 -0.14341813782E+02  0.13765238881E+03  0.12509000000E+03 0.  0.
         25    1    3    3    0    0 -0.22618301505E+02  0.42361608795E+02 -0.16057963485E+03  0.20913971572E+03  0.12509000000E+03 0.  0.
<mgrwt>
<rscale>  2 0.44787375E+03</rscale>
<asrwt>0</asrwt>
<pdfrwt beam="1">  1       21 0.23071484E-01 0.44787375E+03</pdfrwt>
<pdfrwt beam="2">  1       21 0.47006495E-01 0.44787375E+03</pdfrwt>
<totfact> 0.70878756E+04</totfact>
</mgrwt>
</event>
<event>
 7    0  0.4831799E-002  0.4662854E+03  0.7546771E-02  0.1022974E+00
         21   -1    0    0  502  501  0.00000000000E+00  0.00000000000E+00  0.47707936217E+02  0.47707936217E+02  0.00000000000E+00 0.  1.
         21   -1    0    0  501  502 -0.00000000000E+00 -0.00000000000E+00 -0.11393390064E+04  0.11393390064E+04  0.00000000000E+00 0.  1.
      99926    2    1    2    0    0  0.00000000000E+00 -0.14210854715E-13 -0.10916310702E+04  0.11870469426E+04  0.46628537463E+03 0.  0.
      99925    2    3    3    0    0  0.91146789064E+02  0.74996968120E+02 -0.59419640287E+03  0.66071906123E+03  0.26371960546E+03 0.  0.
         25    1    3    3    0    0 -0.91146789064E+02 -0.74996968120E+02 -0.49743466732E+03  0.52632788140E+03  0.12509000000E+03 0.  0.
         25    1    4    4    0    0  0.35140702922E+02  0.74610490993E+02 -0.34932272169E+03  0.38009928487E+03  0.12509000000E+03 0.  0.
         25    1    4    4    0    0  0.56006086142E+02  0.38647712684E+00 -0.24487368118E+03  0.28061977636E+03  0.12509000000E+03 0.  0.
<mgrwt>
<rscale>  2 0.46628537E+03</rscale>
<asrwt>0</asrwt>
<pdfrwt beam="1">  1       21 0.70158737E-02 0.46628537E+03</pdfrwt>
<pdfrwt beam="2">  1       21 0.16754984E+00 0.46628537E+03</pdfrwt>
<totfact> 0.29856447E+04</totfact>
</mgrwt>
</event>
<event>
 7    0  0.4831799E-002  0.4525984E+03  0.7546771E-02  0.1026950E+00
         21   -1    0    0  502  501  0.00000000000E+00  0.00000000000E+00  0.33115637658E+03  0.33115637658E+03  0.00000000000E+00 0.  1.
         21   -1    0    0  501  502 -0.00000000000E+00 -0.00000000000E+00 -0.15464392303E+03  0.15464392303E+03  0.00000000000E+00 0.  1.
      99926    2    1    2    0    0 -0.71054273576E-14  0.00000000000E+00  0.17651245355E+03  0.48580029960E+03  0.45259837034E+03 0.  0.
      99925    2    3    3    0    0 -0.59155654069E+02  0.40576720492E+02  0.20159533516E+03  0.33943595728E+03  0.26349616369E+03 0.  0.
         25    1    4    4    0    0 -0.36872400933E+02  0.34173186001E+02  0.55712684456E+02  0.14587251935E+03  0.12509000000E+03 0.  0.
         25    1    4    4    0    0 -0.22283253135E+02  0.64035344918E+01  0.14588265071E+03  0.19356343793E+03  0.12509000000E+03 0.  0.
         25    1    3    3    0    0  0.59155654069E+02 -0.40576720492E+02 -0.25082881615E+02  0.14636434233E+03  0.12509000000E+03 0.  0.
<mgrwt>
<rscale>  2 0.45259837E+03</rscale>
<asrwt>0</asrwt>
<pdfrwt beam="1">  1       21 0.48699467E-01 0.45259837E+03</pdfrwt>
<pdfrwt beam="2">  1       21 0.22741753E-01 0.45259837E+03</pdfrwt>
<totfact> 0.67559136E+04</totfact>
</mgrwt>
</event>
<event>
 7    0  0.4831799E-002  0.4556273E+03  0.7546771E-02  0.1026057E+00
         21   -1    0    0  502  501  0.00000000000E+00  0.00000000000E+00  0.99288617189E+03  0.99288617189E+03  0.00000000000E+00 0.  1.
         21   -1    0    0  501  502 -0.00000000000E+00 -0.00000000000E+00 -0.52270904412E+02  0.52270904412E+02  0.00000000000E+00 0.  1.
      99926    2    1    2    0    0 -0.71054273576E-14 -0.44408920985E-15  0.94061526748E+03  0.10451570763E+04  0.45562729586E+03 0.  0.
      99925    2    3    3    0    0 -0.47163036881E+02  0.30473575995E+01  0.82873606853E+03  0.87080656241E+03  0.26318616875E+03 0.  0.
         25    1    3    3    0    0  0.47163036881E+02 -0.30473575995E+01  0.11187919895E+03  0.17435051389E+03  0.12509000000E+03 0.  0.
         25    1    4    4    0    0 -0.16151050857E+02  0.11629502734E+02  0.28397601698E+03  0.31094370567E+03  0.12509000000E+03 0.  0.
         25    1    4    4    0    0 -0.31011986023E+02 -0.85821451343E+01  0.54476005155E+03  0.55986285674E+03  0.12509000000E+03 0.  0.
<mgrwt>
<rscale>  2 0.45562730E+03</rscale>
<asrwt>0</asrwt>
<pdfrwt beam="1">  1       21 0.14601266E+00 0.45562730E+03</pdfrwt>
<pdfrwt beam="2">  1       21 0.76868983E-02 0.45562730E+03</pdfrwt>
<totfact> 0.37272756E+04</totfact>
</mgrwt>
</event>
<event>
 7    0  0.4831799E-002  0.4580100E+03  0.7546771E-02  0.1025360E+00
         21   -1    0    0  502  501  0.00000000000E+00  0.00000000000E+00  0.30661982303E+02  0.30661982303E+02  0.00000000000E+00 0.  1.
         21   -1    0    0  501  502 -0.00000000000E+00 -0.00000000000E+00 -0.17103682556E+04  0.17103682556E+04  0.00000000000E+00 0.  1.
      99926    2    1    2    0    0 -0.71054273576E-14  0.88817841970E-15 -0.16797062733E+04  0.17410302379E+04  0.45800996139E+03 0.  0.
      99925    2    3    3    0    0  0.40778915196E+02  0.66363844074E+01 -0.64215278959E+03  0.69514702207E+03  0.26298710155E+03 0.  0.
         25    1    4    4    0    0 -0.12084784248E+02 -0.14469086755E+02 -0.26267129280E+03  0.29154607293E+03  0.12509000000E+03 0.  0.
         25    1    4    4    0    0  0.52863699444E+02  0.21105471163E+02 -0.37948149680E+03  0.40360094914E+03  0.12509000000E+03 0.  0.
         25    1    3    3    0    0 -0.40778915196E+02 -0.66363844074E+01 -0.10375534837E+04  0.10458832158E+04  0.12509000000E+03 0.  0.
<mgrwt>
<rscale>  2 0.45800996E+03</rscale>
<asrwt>0</asrwt>
<pdfrwt beam="1">  1       21 0.45091138E-02 0.45800996E+03</pdfrwt>
<pdfrwt beam="2">  1       21 0.25152481E+00 0.45800996E+03</pdfrwt>
<totfact> 0.17996343E+04</totfact>
</mgrwt>
</event>
<event>
 7    0  0.4831799E-002  0.4534799E+03  0.7546771E-02  0.1026689E+00
         21   -1    0    0  502  501  0.00000000000E+00  0.00000000000E+00  0.49880853521E+02  0.49880853521E+02  0.00000000000E+00 0. -1.
         21   -1    0    0  501  502 -0.00000000000E+00 -0.00000000000E+00 -0.10306759393E+04  0.10306759393E+04  0.00000000000E+00 0. -1.
      99926    2    1    2    0    0  0.00000000000E+00  0.00000000000E+00 -0.98079508573E+03  0.10805567928E+04  0.45347985867E+03 0.  0.
      99925    2    3    3    0    0  0.87911046994E+02  0.54814938407E+02 -0.71754038020E+03  0.77122917076E+03  0.26305361993E+03 0.  0.
         25    1    3    3    0    0 -0.87911046994E+02 -0.54814938407E+02 -0.26325470553E+03  0.30932762201E+03  0.12509000000E+03 0.  0.
         25    1    4    4    0    0  0.49839897714E+02  0.64104026313E+02 -0.43254502956E+03  0.45753256965E+03  0.12509000000E+03 0.  0.
         25    1    4    4    0    0  0.38071149280E+02 -0.92890879062E+01 -0.28499535064E+03  0.31369660111E+03  0.12509000000E+03 0.  0.
<mgrwt>
<rscale>  2 0.45347986E+03</rscale>
<asrwt>0</asrwt>
<pdfrwt beam="1">  1       21 0.73354197E-02 0.45347986E+03</pdfrwt>
<pdfrwt beam="2">  1       21 0.15156999E+00 0.45347986E+03</pdfrwt>
<totfact> 0.36608041E+04</totfact>
</mgrwt>
</event>
<event>
 7    0  0.4831799E-002  0.4385126E+03  0.7546771E-02  0.1031204E+00
         21   -1    0    0  502  501  0.00000000000E+00  0.00000000000E+00  0.13792761471E+04  0.13792761471E+04  0.00000000000E+00 0.  1.
         21   -1    0    0  501  502 -0.00000000000E+00 -0.00000000000E+00 -0.34854023276E+02  0.34854023276E+02  0.00000000000E+00 0.  1.
      99926    2    1    2    0    0  0.00000000000E+00  0.00000000000E+00  0.13444221238E+04  0.14141301703E+04  0.43851259017E+03 0.  0.
      99925    2    3    3    0    0 -0.45754309569E+02  0.84486435698E+02  0.90207502292E+03  0.94450278569E+03  0.26289684393E+03 0.  0.
         25    1    4    4    0    0 -0.50418711811E+02  0.15467349044E+02  0.39569639696E+03  0.41833531055E+03  0.12509000000E+03 0.  0.
         25    1    4    4    0    0  0.46644022414E+01  0.69019086654E+02  0.50637862596E+03  0.52616747514E+03  0.12509000000E+03 0.  0.
         25    1    3    3    0    0  0.45754309569E+02 -0.84486435698E+02  0.44234710087E+03  0.46962738465E+03  0.12509000000E+03 0.  0.
<mgrwt>
<rscale>  2 0.43851259E+03</rscale>
<asrwt>0</asrwt>
<pdfrwt beam="1">  1       21 0.20283469E+00 0.43851259E+03</pdfrwt>
<pdfrwt beam="2">  1       21 0.51255926E-02 0.43851259E+03</pdfrwt>
<totfact> 0.29568727E+04</totfact>
</mgrwt>
</event>
<event>
 6    0  0.4831799E-002  0.4525771E+03  0.7546771E-02  0.1026956E+00
         21   -1    0    0  502  501  0.00000000000E+00  0.00000000000E+00  0.45567959599E+03  0.45567959599E+03  0.00000000000E+00 0.  1.
         21   -1    0    0  501  502 -0.00000000000E+00 -0.00000000000E+00 -0.11237395589E+03  0.11237395589E+03  0.00000000000E+00 0.  1.
      99926    2    1    2    0    0 -0.71054273576E-14  0.00000000000E+00  0.34330564011E+03  0.56805355188E+03  0.45257714843E+03 0.  0.
         25    1    3    3    0    0 -0.28529514175E+02 -0.23659474763E+02  0.14431320144E+03  0.19454437060E+03  0.12509000000E+03 0.  0.
         25    1    3    3    0    0  0.70513971489E+02 -0.59939586041E+02  0.12994552088E+03  0.20272720746E+03  0.12509000000E+03 0.  0.
         25    1    3    3    0    0 -0.41984457314E+02  0.83599060804E+02  0.69046917791E+02  0.17078197381E+03  0.12509000000E+03 0.  0.
<mgrwt>
<rscale>  2 0.45257715E+03</rscale>
<asrwt>0</asrwt>
<pdfrwt beam="1">  1       21 0.67011705E-01 0.45257715E+03</pdfrwt>
<pdfrwt beam="2">  1       21 0.16525582E-01 0.45257715E+03</pdfrwt>
<totfact> 0.61865926E+04</totfact>
</mgrwt>
</event>
<event>
 7    0  0.4831799E-002  0.4593405E+03  0.7546771E-02  0.1024973E+00
         21   -1    0    0  502  501  0.00000000000E+00  0.00000000000E+00  0.46305539115E+02  0.46305539115E+02  0.00000000000E+00 0. -1.
         21   -1    0    0  501  502 -0.00000000000E+00 -0.00000000000E+00 -0.11391386204E+04  0.11391386204E+04  0.00000000000E+00 0. -1.
      99926    2    1    2    0    0  0.00000000000E+00  0.00000000000E+00 -0.10928330813E+04  0.11854441595E+04  0.45934051833E+03 0.  0.
      99925    2    3    3    0    0 -0.28390536703E+02  0.34800291137E+02 -0.96473384920E+03  0.10008527074E+04  0.26263598239E+03 0.  0.
         25    1    4    4    0    0 -0.47143472791E+02 -0.44423353812E+01 -0.50686358571E+03  0.52421412036E+03  0.12509000000E+03 0.  0.
         25    1    4    4    0    0  0.18752936088E+02  0.39242626518E+02 -0.45787026349E+03  0.47663858702E+03  0.12509000000E+03 0.  0.
         25    1    3    3    0    0  0.28390536703E+02 -0.34800291137E+02 -0.12809923207E+03  0.18459145212E+03  0.12509000000E+03 0.  0.
<mgrwt>
<rscale>  2 0.45934052E+03</rscale>
<asrwt>0</asrwt>
<pdfrwt beam="1">  1       21 0.68096388E-02 0.45934052E+03</pdfrwt>
<pdfrwt beam="2">  1       21 0.16752037E+00 0.45934052E+03</pdfrwt>
<totfact> 0.31540538E+04</totfact>
</mgrwt>
</event>
<event>
 7    0  0.4831799E-002  0.4658665E+03  0.7546771E-02  0.1023093E+00
         21   -1    0    0  502  501  0.00000000000E+00  0.00000000000E+00  0.44464659429E+02  0.44464659429E+02  0.00000000000E+00 0.  1.
         21   -1    0    0  501  502 -0.00000000000E+00 -0.00000000000E+00 -0.12202475417E+04  0.12202475417E+04  0.00000000000E+00 0.  1.
      99926    2    1    2    0    0  0.14210854715E-13  0.00000000000E+00 -0.11757828822E+04  0.12647122011E+04  0.46586646739E+03 0.  0.
      99925    2    3    3    0    0 -0.87796610128E+02 -0.35319037498E+02 -0.94638076318E+03  0.98681200410E+03  0.26306976901E+03 0.  0.
         25    1    4    4    0    0 -0.83913059072E+02 -0.48773734872E+01 -0.49950563063E+03  0.52174569800E+03  0.12509000000E+03 0.  0.
         25    1    4    4    0    0 -0.38835510562E+01 -0.30441664011E+02 -0.44687513255E+03  0.46506630610E+03  0.12509000000E+03 0.  0.
         25    1    3    3    0    0  0.87796610128E+02  0.35319037498E+02 -0.22940211904E+03  0.27790019698E+03  0.12509000000E+03 0.  0.
<mgrwt>
<rscale>  2 0.46586647E+03</rscale>
<asrwt>0</asrwt>
<pdfrwt beam="1">  1       21 0.65389206E-02 0.46586647E+03</pdfrwt>
<pdfrwt beam="2">  1       21 0.17944817E+00 0.46586647E+03</pdfrwt>
<totfact> 0.27735833E+04</totfact>
</mgrwt>
</event>
<event>
 7    0  0.4831799E-002  0.4587753E+03  0.7546771E-02  0.1025137E+00
         21   -1    0    0  502  501  0.00000000000E+00  0.00000000000E+00  0.79291728185E+03  0.79291728185E+03  0.00000000000E+00 0.  1.
         21   -1    0    0  501  502 -0.00000000000E+00 -0.00000000000E+00 -0.66360874612E+02  0.66360874612E+02  0.00000000000E+00 0.  1.
      99926    2    1    2    0    0  0.00000000000E+00 -0.71054273576E-14  0.72655640723E+03  0.85927815646E+03  0.45877525791E+03 0.  0.
      99925    2    3    3    0    0  0.16792316054E+02  0.62397564412E+02  0.27362524636E+03  0.38496857136E+03  0.26297259851E+03 0.  0.
         25    1    4    4    0    0 -0.12074951826E+02  0.47009544925E+02  0.18366335166E+03  0.22745425171E+03  0.12509000000E+03 0.  0.
         25    1    3    3    0    0 -0.16792316054E+02 -0.62397564412E+02  0.45293116088E+03  0.47430958510E+03  0.12509000000E+03 0.  0.
         25    1    4    4    0    0  0.28867267880E+02  0.15388019487E+02  0.89961894695E+02  0.15751431965E+03  0.12509000000E+03 0.  0.
<mgrwt>
<rscale>  2 0.45877526E+03</rscale>
<asrwt>0</asrwt>
<pdfrwt beam="1">  1       21 0.11660548E+00 0.45877526E+03</pdfrwt>
<pdfrwt beam="2">  1       21 0.97589526E-02 0.45877526E+03</pdfrwt>
<totfact> 0.43718087E+04</totfact>
</mgrwt>
</event>
<event>
 7    0  0.4831799E-002  0.4432231E+03  0.7546771E-02  0.1029762E+00
         21   -1    0    0  502  501  0.00000000000E+00  0.00000000000E+00  0.33170063033E+02  0.33170063033E+02  0.00000000000E+00 0. -1.
         21   -1    0    0  501  502 -0.00000000000E+00 -0.00000000000E+00 -0.14806026100E+04  0.14806026100E+04  0.00000000000E+00 0. -1.
      99926    2    1    2    0    0 -0.14210854715E-13  0.00000000000E+00 -0.14474325469E+04  0.15137726730E+04  0.44322311266E+03 0.  0.
      99925    2    3    3    0    0  0.73842681211E+02  0.65016457870E+02 -0.10072223436E+04  0.10456782247E+04  0.26318476149E+03 0.  0.
         25    1    3    3    0    0 -0.73842681211E+02 -0.65016457870E+02 -0.44021020328E+03  0.46809444831E+03  0.12509000000E+03 0.  0.
         25    1    4    4    0    0  0.72626917609E+02  0.47453462502E+02 -0.48145709889E+03  0.50495043958E+03  0.12509000000E+03 0.  0.
         25    1    4    4    0    0  0.12157636026E+01  0.17562995369E+02 -0.52576524474E+03  0.54072778509E+03  0.12509000000E+03 0.  0.
<mgrwt>
<rscale>  2 0.44322311E+03</rscale>
<asrwt>0</asrwt>
<pdfrwt beam="1">  1       21 0.48779506E-02 0.44322311E+03</pdfrwt>
<pdfrwt beam="2">  1       21 0.21773567E+00 0.44322311E+03</pdfrwt>
<totfact> 0.25716782E+04</totfact>
</mgrwt>
</event>
<event>
 7    0  0.4831799E-002  0.4563623E+03  0.7546771E-02  0.1025842E+00
         21   -1    0    0  502  501  0.00000000000E+00  0.00000000000E+00  0.74755201524E+03  0.74755201524E+03  0.00000000000E+00 0.  1.
         21   -1    0    0  501  502 -0.00000000000E+00 -0.00000000000E+00 -0.69649515690E+02  0.69649515690E+02  0.00000000000E+00 0.  1.
      99926    2    1    2    0    0  0.00000000000E+00  0.00000000000E+00  0.67790249955E+03  0.81720153093E+03  0.45636229386E+03 0.  0.
      99925    2    3    3    0    0 -0.51191875376E+02 -0.89797370044E+02  0.34005427708E+03  0.44240411192E+03  0.26343938793E+03 0.  0.
         25    1    4    4    0    0  0.11004473180E+02 -0.46867726975E+02  0.13174975516E+03  0.18794464171E+03  0.12509000000E+03 0.  0.
         25    1    4    4    0    0 -0.62196348556E+02 -0.42929643069E+02  0.20830452192E+03  0.25445947021E+03  0.12509000000E+03 0.  0.
         25    1    3    3    0    0  0.51191875376E+02  0.89797370044E+02  0.33784822247E+03  0.37479741902E+03  0.12509000000E+03 0.  0.
<mgrwt>
<rscale>  2 0.45636229E+03</rscale>
<asrwt>0</asrwt>
<pdfrwt beam="1">  1       21 0.10993412E+00 0.45636229E+03</pdfrwt>
<pdfrwt beam="2">  1       21 0.10242576E-01 0.45636229E+03</pdfrwt>
<totfact> 0.46445545E+04</totfact>
</mgrwt>
</event>
<event>
 7    0  0.4831799E-002  0.4563187E+03  0.7546771E-02  0.1025854E+00
         21   -1    0    0  502  501  0.00000000000E+00  0.00000000000E+00  0.46487167953E+02  0.46487167953E+02  0.00000000000E+00 0. -1.
         21   -1    0    0  501  502 -0.00000000000E+00 -0.00000000000E+00 -0.11198078953E+04  0.11198078953E+04  0.00000000000E+00 0. -1.
      99926    2    1    2    0    0  0.00000000000E+00  0.14210854715E-13 -0.10733207273E+04  0.11662950632E+04  0.45631873818E+03 0.  0.
      99925    2    3    3    0    0 -0.55883461280E+02  0.91563170640E+02 -0.77635026458E+03  0.82666918185E+03  0.26297419540E+03 0.  0.
         25    1    3    3    0    0  0.55883461280E+02 -0.91563170640E+02 -0.29697046275E+03  0.33962588139E+03  0.12509000000E+03 0.  0.
         25    1    4    4    0    0 -0.36145637010E+02  0.91708429960E+01 -0.41379747233E+03  0.43389683986E+03  0.12509000000E+03 0.  0.
         25    1    4    4    0    0 -0.19737824270E+02  0.82392327644E+02 -0.36255279225E+03  0.39277234199E+03  0.12509000000E+03 0.  0.
<mgrwt>
<rscale>  2 0.45631874E+03</rscale>
<asrwt>0</asrwt>
<pdfrwt beam="1">  1       21 0.68363482E-02 0.45631874E+03</pdfrwt>
<pdfrwt beam="2">  1       21 0.16467763E+00 0.45631874E+03</pdfrwt>
<totfact> 0.32903519E+04</totfact>
</mgrwt>
</event>
<event>
 7    0  0.4831799E-002  0.4255604E+03  0.7546771E-02  0.1035272E+00
         21   -1    0    0  502  501  0.00000000000E+00  0.00000000000E+00  0.29222320728E+02  0.29222320728E+02  0.00000000000E+00 0.  1.
         21   -1    0    0  501  502 -0.00000000000E+00 -0.00000000000E+00 -0.15493434134E+04  0.15493434134E+04  0.00000000000E+00 0.  1.
      99926    2    1    2    0    0  0.00000000000E+00  0.00000000000E+00 -0.15201210926E+04  0.15785657341E+04  0.42556038417E+03 0.  0.
      99925    2    3    3    0    0  0.78146496963E+02 -0.12852495354E+02 -0.10726736009E+04  0.11072602837E+04  0.26291561409E+03 0.  0.
         25    1    4    4    0    0  0.57917309527E+02  0.21122417136E+01 -0.69716717892E+03  0.71066761553E+03  0.12509000000E+03 0.  0.
         25    1    3    3    0    0 -0.78146496963E+02  0.12852495354E+02 -0.44744749177E+03  0.47130545044E+03  0.12509000000E+03 0.  0.
         25    1    4    4    0    0  0.20229187435E+02 -0.14964737068E+02 -0.37550642196E+03  0.39659266812E+03  0.12509000000E+03 0.  0.
<mgrwt>
<rscale>  2 0.42556038E+03</rscale>
<asrwt>0</asrwt>
<pdfrwt beam="1">  1       21 0.42974008E-02 0.42556038E+03</pdfrwt>
<pdfrwt beam="2">  1       21 0.22784459E+00 0.42556038E+03</pdfrwt>
<totfact> 0.27738041E+04</totfact>
</mgrwt>
</event>
<event>
 7    0  0.4831799E-002  0.4558279E+03  0.7546771E-02  0.1025998E+00
         21   -1    0    0  502  501  0.00000000000E+00  0.00000000000E+00  0.16575561422E+03  0.16575561422E+03  0.00000000000E+00 0. -1.
         21   -1    0    0  501  502 -0.00000000000E+00 -0.00000000000E+00 -0.31338163790E+03  0.31338163790E+03  0.00000000000E+00 0. -1.
      99926    2    1    2    0    0  0.00000000000E+00 -0.14210854715E-13 -0.14762602368E+03  0.47913725212E+03  0.45582788802E+03 0.  0.
      99925    2    3    3    0    0 -0.84590666698E+01 -0.93458290830E+02 -0.16084138382E+03  0.32220362992E+03  0.26294337879E+03 0.  0.
         25    1    3    3    0    0  0.84590666698E+01  0.93458290830E+02  0.13215360136E+02  0.15693362220E+03  0.12509000000E+03 0.  0.
         25    1    4    4    0    0  0.59017338617E+01 -0.23402530052E+02 -0.38235242554E+02  0.13301109258E+03  0.12509000000E+03 0.  0.
         25    1    4    4    0    0 -0.14360800531E+02 -0.70055760778E+02 -0.12260614126E+03  0.18919253734E+03  0.12509000000E+03 0.  0.
<mgrwt>
<rscale>  2 0.45582789E+03</rscale>
<asrwt>0</asrwt>
<pdfrwt beam="1">  1       21 0.24375826E-01 0.45582789E+03</pdfrwt>
<pdfrwt beam="2">  1       21 0.46085535E-01 0.45582789E+03</pdfrwt>
<totfact> 0.66326048E+04</totfact>
</mgrwt>
</event>
<event>
 7    0  0.4831799E-002  0.4499611E+03  0.7546771E-02  0.1027734E+00
         21   -1    0    0  502  501  0.00000000000E+00  0.00000000000E+00  0.39863132597E+03  0.39863132597E+03  0.00000000000E+00 0. -1.
         21   -1    0    0  501  502 -0.00000000000E+00 -0.00000000000E+00 -0.12697507736E+03  0.12697507736E+03  0.00000000000E+00 0. -1.
      99926    2    1    2    0    0  0.71054273576E-14  0.00000000000E+00  0.27165624860E+03  0.52560640333E+03  0.44996108033E+03 0.  0.
      99925    2    3    3    0    0 -0.63344279795E+02  0.41619794592E+02  0.81247287159E+02  0.28550687025E+03  0.26299875704E+03 0.  0.
         25    1    3    3    0    0  0.63344279795E+02 -0.41619794592E+02  0.19040896145E+03  0.24009953308E+03  0.12509000000E+03 0.  0.
         25    1    4    4    0    0 -0.47716060358E+02  0.26588382430E+02  0.33083602728E+01  0.13653650737E+03  0.12509000000E+03 0.  0.
         25    1    4    4    0    0 -0.15628219437E+02  0.15031412161E+02  0.77938926886E+02  0.14897036289E+03  0.12509000000E+03 0.  0.
<mgrwt>
<rscale>  2 0.44996108E+03</rscale>
<asrwt>0</asrwt>
<pdfrwt beam="1">  1       21 0.58622253E-01 0.44996108E+03</pdfrwt>
<pdfrwt beam="2">  1       21 0.18672806E-01 0.44996108E+03</pdfrwt>
<totfact> 0.66105683E+04</totfact>
</mgrwt>
</event>
<event>
 7    0  0.4831799E-002  0.4516863E+03  0.7546771E-02  0.1027220E+00
         21   -1    0    0  502  501  0.00000000000E+00  0.00000000000E+00  0.13851279217E+03  0.13851279217E+03  0.00000000000E+00 0.  1.
         21   -1    0    0  501  502 -0.00000000000E+00 -0.00000000000E+00 -0.36823409142E+03  0.36823409142E+03  0.00000000000E+00 0.  1.
      99926    2    1    2    0    0  0.00000000000E+00  0.00000000000E+00 -0.22972129924E+03  0.50674688359E+03  0.45168631671E+03 0.  0.
      99925    2    3    3    0    0  0.86526316260E+02 -0.22490606476E+02 -0.21699589327E+03  0.35246767293E+03  0.26297074358E+03 0.  0.
         25    1    4    4    0    0  0.72573586250E+02 -0.11917733046E+02 -0.15301184819E+03  0.21087695836E+03  0.12509000000E+03 0.  0.
         25    1    3    3    0    0 -0.86526316260E+02  0.22490606476E+02 -0.12725405975E+02  0.15427921066E+03  0.12509000000E+03 0.  0.
         25    1    4    4    0    0  0.13952730010E+02 -0.10572873430E+02 -0.63984045081E+02  0.14159071457E+03  0.12509000000E+03 0.  0.
<mgrwt>
<rscale>  2 0.45168632E+03</rscale>
<asrwt>0</asrwt>
<pdfrwt beam="1">  1       21 0.20369528E-01 0.45168632E+03</pdfrwt>
<pdfrwt beam="2">  1       21 0.54152072E-01 0.45168632E+03</pdfrwt>
<totfact> 0.66531823E+04</totfact>
</mgrwt>
</event>
<event>
 7    0  0.4831799E-002  0.4592472E+03  0.7546771E-02  0.1025000E+00
         21   -1    0    0  502  501  0.00000000000E+00  0.00000000000E+00  0.10171608280E+04  0.10171608280E+04  0.00000000000E+00 0.  1.
         21   -1    0    0  501  502 -0.00000000000E+00 -0.00000000000E+00 -0.51837421848E+02  0.51837421848E+02  0.00000000000E+00 0.  1.
      99926    2    1    2    0    0  0.00000000000E+00 -0.14210854715E-13  0.96532340615E+03  0.10689982498E+04  0.45924718803E+03 0.  0.
      99925    2    3    3    0    0 -0.17081044672E+02 -0.10020096137E+03  0.47006653315E+03  0.54817306507E+03  0.26305734913E+03 0.  0.
         25    1    3    3    0    0  0.17081044672E+02  0.10020096137E+03  0.49525687300E+03  0.52082518478E+03  0.12509000000E+03 0.  0.
         25    1    4    4    0    0 -0.23524811515E+00 -0.91060781810E+02  0.27817778821E+03  0.31831197162E+03  0.12509000000E+03 0.  0.
         25    1    4    4    0    0 -0.16845796557E+02 -0.91401795629E+01  0.19188874495E+03  0.22986109345E+03  0.12509000000E+03 0.  0.
<mgrwt>
<rscale>  2 0.45924719E+03</rscale>
<asrwt>0</asrwt>
<pdfrwt beam="1">  1       21 0.14958246E+00 0.45924719E+03</pdfrwt>
<pdfrwt beam="2">  1       21 0.76231509E-02 0.45924719E+03</pdfrwt>
<totfact> 0.35399997E+04</totfact>
</mgrwt>
</event>
<event>
 7    0  0.4831799E-002  0.4571487E+03  0.7546771E-02  0.1025611E+00
         21   -1    0    0  502  501  0.00000000000E+00  0.00000000000E+00  0.24477174976E+03  0.24477174976E+03  0.00000000000E+00 0. -1.
         21   -1    0    0  501  502 -0.00000000000E+00 -0.00000000000E+00 -0.21344874216E+03  0.21344874216E+03  0.00000000000E+00 0. -1.
      99926    2    1    2    0    0 -0.71054273576E-14  0.00000000000E+00  0.31323007601E+02  0.45822049192E+03  0.45714865024E+03 0.  0.
      99925    2    3    3    0    0 -0.34867526841E+02 -0.22582923420E+02 -0.88041395530E+02  0.28039726033E+03  0.26295551604E+03 0.  0.
         25    1    3    3    0    0  0.34867526841E+02  0.22582923420E+02  0.11936440313E+03  0.17782323159E+03  0.12509000000E+03 0.  0.
         25    1    4    4    0    0 -0.48981381079E+02 -0.99843330430E+01 -0.18330552676E+02  0.13594991673E+03  0.12509000000E+03 0.  0.
         25    1    4    4    0    0  0.14113854237E+02 -0.12598590377E+02 -0.69710842854E+02  0.14444734360E+03  0.12509000000E+03 0.  0.
<mgrwt>
<rscale>  2 0.45714865E+03</rscale>
<asrwt>0</asrwt>
<pdfrwt beam="1">  1       21 0.35995846E-01 0.45714865E+03</pdfrwt>
<pdfrwt beam="2">  1       21 0.31389521E-01 0.45714865E+03</pdfrwt>
<totfact> 0.67151910E+04</totfact>
</mgrwt>
</event>
<event>
 7    0  0.4831799E-002  0.4595115E+03  0.7546771E-02  0.1024923E+00
         21   -1    0    0  502  501  0.00000000000E+00  0.00000000000E+00  0.69519886665E+02  0.69519886665E+02  0.00000000000E+00 0.  1.
         21   -1    0    0  501  502 -0.00000000000E+00 -0.00000000000E+00 -0.75931809706E+03  0.75931809706E+03  0.00000000000E+00 0.  1.
      99926    2    1    2    0    0  0.00000000000E+00 -0.14210854715E-13 -0.68979821039E+03  0.82883798372E+03  0.45951151476E+03 0.  0.
      99925    2    3    3    0    0 -0.20593898090E+02 -0.98167750003E+02 -0.54205588253E+03  0.61080973023E+03  0.26306449965E+03 0.  0.
         25    1    4    4    0    0 -0.32379626977E+02 -0.83615641589E+02 -0.26990986985E+03  0.31070703517E+03  0.12509000000E+03 0.  0.
         25    1    4    4    0    0  0.11785728887E+02 -0.14552108414E+02 -0.27214601268E+03  0.30010269506E+03  0.12509000000E+03 0.  0.
         25    1    3    3    0    0  0.20593898090E+02  0.98167750003E+02 -0.14774232786E+03  0.21802825349E+03  0.12509000000E+03 0.  0.
<mgrwt>
<rscale>  2 0.45951151E+03</rscale>
<asrwt>0</asrwt>
<pdfrwt beam="1">  1       21 0.10223513E-01 0.45951151E+03</pdfrwt>
<pdfrwt beam="2">  1       21 0.11166442E+00 0.45951151E+03</pdfrwt>
<totfact> 0.44794555E+04</totfact>
</mgrwt>
</event>
<event>
 7    0  0.4831799E-002  0.4576456E+03  0.7546771E-02  0.1025466E+00
         21   -1    0    0  502  501  0.00000000000E+00  0.00000000000E+00  0.12411621395E+03  0.12411621395E+03  0.00000000000E+00 0. -1.
         21   -1    0    0  501  502 -0.00000000000E+00 -0.00000000000E+00 -0.42186166417E+03  0.42186166417E+03  0.00000000000E+00 0. -1.
      99926    2    1    2    0    0  0.00000000000E+00  0.71054273576E-14 -0.29774545022E+03  0.54597787811E+03  0.45764559461E+03 0.  0.
      99925    2    3    3    0    0  0.41565580794E+02 -0.52905735455E+02 -0.74731337603E+02  0.28157379933E+03  0.26300630658E+03 0.  0.
         25    1    4    4    0    0 -0.43456183356E+01 -0.36779757540E+02 -0.55575408713E+01  0.13057576086E+03  0.12509000000E+03 0.  0.
         25    1    4    4    0    0  0.45911199129E+02 -0.16125977915E+02 -0.69173796732E+02  0.15099803848E+03  0.12509000000E+03 0.  0.
         25    1    3    3    0    0 -0.41565580794E+02  0.52905735455E+02 -0.22301411261E+03  0.26440407878E+03  0.12509000000E+03 0.  0.
<mgrwt>
<rscale>  2 0.45764559E+03</rscale>
<asrwt>0</asrwt>
<pdfrwt beam="1">  1       21 0.18252385E-01 0.45764559E+03</pdfrwt>
<pdfrwt beam="2">  1       21 0.62038480E-01 0.45764559E+03</pdfrwt>
<totfact> 0.60849227E+04</totfact>
</mgrwt>
</event>
<event>
 7    0  0.4831799E-002  0.4392324E+03  0.7546771E-02  0.1030983E+00
         21   -1    0    0  502  501  0.00000000000E+00  0.00000000000E+00  0.41968710894E+02  0.41968710894E+02  0.00000000000E+00 0.  1.
         21   -1    0    0  501  502 -0.00000000000E+00 -0.00000000000E+00 -0.11492199504E+04  0.11492199504E+04  0.00000000000E+00 0.  1.
      99926    2    1    2    0    0  0.00000000000E+00 -0.26645352591E-14 -0.11072512395E+04  0.11911886613E+04  0.43923242072E+03 0.  0.
      99925    2    3    3    0    0 -0.75713792953E+02 -0.74654236528E+01 -0.87322463250E+03  0.91513744888E+03  0.26299616069E+03 0.  0.
         25    1    4    4    0    0 -0.67301093142E+02  0.22608056233E+02 -0.42094610891E+03  0.44484120318E+03  0.12509000000E+03 0.  0.
         25    1    4    4    0    0 -0.84126998108E+01 -0.30073479886E+02 -0.45227852360E+03  0.47029624570E+03  0.12509000000E+03 0.  0.
         25    1    3    3    0    0  0.75713792953E+02  0.74654236528E+01 -0.23402660704E+03  0.27605121245E+03  0.12509000000E+03 0.  0.
<mgrwt>
<rscale>  2 0.43923242E+03</rscale>
<asrwt>0</asrwt>
<pdfrwt beam="1">  1       21 0.61718699E-02 0.43923242E+03</pdfrwt>
<pdfrwt beam="2">  1       21 0.16900291E+00 0.43923242E+03</pdfrwt>
<totfact> 0.36747110E+04</totfact>
</mgrwt>
</event>
<event>
 7    0  0.4831799E-002  0.4207947E+03  0.7546771E-02  0.1036808E+00
         21   -1    0    0  502  501  0.00000000000E+00  0.00000000000E+00  0.19800382548E+04  0.19800382548E+04  0.00000000000E+00 0.  1.
         21   -1    0    0  501  502 -0.00000000000E+00 -0.00000000000E+00 -0.22356662582E+02  0.22356662582E+02  0.00000000000E+00 0.  1.
      99926    2    1    2    0    0  0.00000000000E+00  0.17763568394E-14  0.19576815922E+04  0.20023949173E+04  0.42079471081E+03 0.  0.
      99925    2    3    3    0    0 -0.17351227225E+02 -0.68389627221E+01  0.91908754354E+03  0.95612872633E+03  0.26289235842E+03 0.  0.
         25    1    3    3    0    0  0.17351227225E+02  0.68389627221E+01  0.10385940486E+04  0.10462661910E+04  0.12509000000E+03 0.  0.
         25    1    4    4    0    0  0.82480666809E+01  0.33260779118E+02  0.44604929352E+03  0.46452318605E+03  0.12509000000E+03 0.  0.
         25    1    4    4    0    0 -0.25599293906E+02 -0.40099741840E+02  0.47303825003E+03  0.49160554028E+03  0.12509000000E+03 0.  0.
<mgrwt>
<rscale>  2 0.42079471E+03</rscale>
<asrwt>0</asrwt>
<pdfrwt beam="1">  1       21 0.29118198E+00 0.42079471E+03</pdfrwt>
<pdfrwt beam="2">  1       21 0.32877458E-02 0.42079471E+03</pdfrwt>
<totfact> 0.17995810E+04</totfact>
</mgrwt>
</event>
<event>
 7    0  0.4831799E-002  0.4280757E+03  0.7546771E-02  0.1034470E+00
         21   -1    0    0  502  501  0.00000000000E+00  0.00000000000E+00  0.67531596904E+03  0.67531596904E+03  0.00000000000E+00 0.  1.
         21   -1    0    0  501  502 -0.00000000000E+00 -0.00000000000E+00 -0.67838177226E+02  0.67838177226E+02  0.00000000000E+00 0.  1.
      99926    2    1    2    0    0  0.35527136788E-14  0.71054273576E-14  0.60747779181E+03  0.74315414627E+03  0.42807571476E+03 0.  0.
      99925    2    3    3    0    0 -0.19240631207E+02 -0.39202019022E+02  0.26503577307E+03  0.37597429321E+03  0.26306977775E+03 0.  0.
         25    1    4    4    0    0  0.94244293718E+01  0.67566297283E+01  0.16252137181E+03  0.20541464482E+03  0.12509000000E+03 0.  0.
         25    1    3    3    0    0  0.19240631207E+02  0.39202019022E+02  0.34244201875E+03  0.36717985305E+03  0.12509000000E+03 0.  0.
         25    1    4    4    0    0 -0.28665060579E+02 -0.45958648751E+02  0.10251440126E+03  0.17055964839E+03  0.12509000000E+03 0.  0.
<mgrwt>
<rscale>  2 0.42807571E+03</rscale>
<asrwt>0</asrwt>
<pdfrwt beam="1">  1       21 0.99311168E-01 0.42807571E+03</pdfrwt>
<pdfrwt beam="2">  1       21 0.99762029E-02 0.42807571E+03</pdfrwt>
<totfact> 0.62917784E+04</totfact>
</mgrwt>
</event>
<event>
 7    0  0.4831799E-002  0.4573927E+03  0.7546771E-02  0.1025540E+00
         21   -1    0    0  502  501  0.00000000000E+00  0.00000000000E+00  0.10100649869E+03  0.10100649869E+03  0.00000000000E+00 0. -1.
         21   -1    0    0  501  502 -0.00000000000E+00 -0.00000000000E+00 -0.51780850106E+03  0.51780850106E+03  0.00000000000E+00 0. -1.
      99926    2    1    2    0    0  0.44408920985E-15  0.00000000000E+00 -0.41680200237E+03  0.61881499975E+03  0.45739271390E+03 0.  0.
      99925    2    3    3    0    0  0.14058363703E+01 -0.90201452575E+02 -0.16422756768E+03  0.32287643926E+03  0.26294528447E+03 0.  0.
         25    1    4    4    0    0 -0.77324418148E+01 -0.11556634160E+02 -0.48158821444E+02  0.13475951407E+03  0.12509000000E+03 0.  0.
         25    1    4    4    0    0  0.91382781850E+01 -0.78644818414E+02 -0.11606874624E+03  0.18811692519E+03  0.12509000000E+03 0.  0.
         25    1    3    3    0    0 -0.14058363703E+01  0.90201452575E+02 -0.25257443469E+03  0.29593856048E+03  0.12509000000E+03 0.  0.
<mgrwt>
<rscale>  2 0.45739271E+03</rscale>
<asrwt>0</asrwt>
<pdfrwt beam="1">  1       21 0.14853897E-01 0.45739271E+03</pdfrwt>
<pdfrwt beam="2">  1       21 0.76148310E-01 0.45739271E+03</pdfrwt>
<totfact> 0.56460437E+04</totfact>
</mgrwt>
</event>
<event>
 7    0  0.4831799E-002  0.4299422E+03  0.7546771E-02  0.1033878E+00
         21   -1    0    0  502  501  0.00000000000E+00  0.00000000000E+00  0.13736401816E+02  0.13736401816E+02  0.00000000000E+00 0. -1.
         21   -1    0    0  501  502 -0.00000000000E+00 -0.00000000000E+00 -0.33642416282E+04  0.33642416282E+04  0.00000000000E+00 0. -1.
      99926    2    1    2    0    0 -0.17763568394E-14  0.00000000000E+00 -0.33505052264E+04  0.33779780300E+04  0.42994220454E+03 0.  0.
      99925    2    3    3    0    0 -0.12443026039E+02  0.19000408948E+02 -0.14951278105E+04  0.15182499026E+04  0.26298241875E+03 0.  0.
         25    1    4    4    0    0  0.16145894858E+02  0.31864089676E+02 -0.60493921775E+03  0.61876891923E+03  0.12509000000E+03 0.  0.
         25    1    3    3    0    0  0.12443026039E+02 -0.19000408948E+02 -0.18553774159E+04  0.18597281274E+04  0.12509000000E+03 0.  0.
         25    1    4    4    0    0 -0.28588920897E+02 -0.12863680728E+02 -0.89018859276E+03  0.89948098338E+03  0.12509000000E+03 0.  0.
<mgrwt>
<rscale>  2 0.42994220E+03</rscale>
<asrwt>0</asrwt>
<pdfrwt beam="1">  1       21 0.20200589E-02 0.42994220E+03</pdfrwt>
<pdfrwt beam="2">  1       21 0.49474146E+00 0.42994220E+03</pdfrwt>
<totfact> 0.19951306E+03</totfact>
</mgrwt>
</event>
<event>
 7    0  0.4831799E-002  0.4474825E+03  0.7546771E-02  0.1028475E+00
         21   -1    0    0  502  501  0.00000000000E+00  0.00000000000E+00  0.20031024459E+03  0.20031024459E+03  0.00000000000E+00 0.  1.
         21   -1    0    0  501  502 -0.00000000000E+00 -0.00000000000E+00 -0.24991311607E+03  0.24991311607E+03  0.00000000000E+00 0.  1.
      99926    2    1    2    0    0  0.17763568394E-14 -0.71054273576E-14 -0.49602871478E+02  0.45022336066E+03  0.44748254673E+03 0.  0.
      99925    2    3    3    0    0 -0.90999933164E+01  0.21149199675E+02  0.72619790033E+02  0.27382612255E+03  0.26301523333E+03 0.  0.
         25    1    3    3    0    0  0.90999933164E+01 -0.21149199675E+02 -0.12222266151E+03  0.17639723811E+03  0.12509000000E+03 0.  0.
         25    1    4    4    0    0 -0.11392445812E+02 -0.22795197689E+02  0.12627163759E+02  0.12828235352E+03  0.12509000000E+03 0.  0.
         25    1    4    4    0    0  0.22924524960E+01  0.43944397364E+02  0.59992626274E+02  0.14554376904E+03  0.12509000000E+03 0.  0.
<mgrwt>
<rscale>  2 0.44748255E+03</rscale>
<asrwt>0</asrwt>
<pdfrwt beam="1">  1       21 0.29457389E-01 0.44748255E+03</pdfrwt>
<pdfrwt beam="2">  1       21 0.36751929E-01 0.44748255E+03</pdfrwt>
<totfact> 0.73189294E+04</totfact>
</mgrwt>
</event>
<event>
 7    0  0.4831799E-002  0.4114467E+03  0.7546771E-02  0.1039887E+00
         21   -1    0    0  502  501  0.00000000000E+00  0.00000000000E+00  0.58204884927E+03  0.58204884927E+03  0.00000000000E+00 0.  1.
         21   -1    0    0  501  502 -0.00000000000E+00 -0.00000000000E+00 -0.72712263678E+02  0.72712263678E+02  0.00000000000E+00 0.  1.
      99926    2    1    2    0    0  0.00000000000E+00  0.17763568394E-14  0.50933658559E+03  0.65476111295E+03  0.41144666435E+03 0.  0.
      99925    2    3    3    0    0  0.27943490637E+02 -0.10445277300E+02  0.42594036369E+03  0.50148887014E+03  0.26301321444E+03 0.  0.
         25    1    4    4    0    0  0.24443969791E+02 -0.28676556579E+02  0.27587490627E+03  0.30524469621E+03  0.12509000000E+03 0.  0.
         25    1    4    4    0    0  0.34995208456E+01  0.18231279280E+02  0.15006545743E+03  0.19624417393E+03  0.12509000000E+03 0.  0.
         25    1    3    3    0    0 -0.27943490637E+02  0.10445277300E+02  0.83396221896E+02  0.15327224280E+03  0.12509000000E+03 0.  0.
<mgrwt>
<rscale>  2 0.41144666E+03</rscale>
<asrwt>0</asrwt>
<pdfrwt beam="1">  1       21 0.85595417E-01 0.41144666E+03</pdfrwt>
<pdfrwt beam="2">  1       21 0.10692980E-01 0.41144666E+03</pdfrwt>
<totfact> 0.79355650E+04</totfact>
</mgrwt>
</event>
<event>
 7    0  0.4831799E-002  0.4426390E+03  0.7546771E-02  0.1029940E+00
         21   -1    0    0  502  501  0.00000000000E+00  0.00000000000E+00  0.79192109394E+02  0.79192109394E+02  0.00000000000E+00 0.  1.
         21   -1    0    0  501  502 -0.00000000000E+00 -0.00000000000E+00 -0.61852530086E+03  0.61852530086E+03  0.00000000000E+00 0.  1.
      99926    2    1    2    0    0  0.00000000000E+00  0.00000000000E+00 -0.53933319146E+03  0.69771741025E+03  0.44263900998E+03 0.  0.
      99925    2    3    3    0    0  0.32528496444E+02  0.83788686266E+02 -0.27200072278E+03  0.38918409935E+03  0.26344111859E+03 0.  0.
         25    1    3    3    0    0 -0.32528496444E+02 -0.83788686266E+02 -0.26733246868E+03  0.30853331091E+03  0.12509000000E+03 0.  0.
         25    1    4    4    0    0  0.15331622963E+02  0.52287350830E+01 -0.15579831760E+03  0.20045703330E+03  0.12509000000E+03 0.  0.
         25    1    4    4    0    0  0.17196873480E+02  0.78559951183E+02 -0.11620240518E+03  0.18872706605E+03  0.12509000000E+03 0.  0.
<mgrwt>
<rscale>  2 0.44263901E+03</rscale>
<asrwt>0</asrwt>
<pdfrwt beam="1">  1       21 0.11645899E-01 0.44263901E+03</pdfrwt>
<pdfrwt beam="2">  1       21 0.90959601E-01 0.44263901E+03</pdfrwt>
<totfact> 0.58515150E+04</totfact>
</mgrwt>
</event>
<event>
 7    0  0.4831799E-002  0.4498866E+03  0.7546771E-02  0.1027756E+00
         21   -1    0    0  502  501  0.00000000000E+00  0.00000000000E+00  0.32973378142E+02  0.32973378142E+02  0.00000000000E+00 0.  1.
         21   -1    0    0  501  502 -0.00000000000E+00 -0.00000000000E+00 -0.15345555890E+04  0.15345555890E+04  0.00000000000E+00 0.  1.
      99926    2    1    2    0    0  0.00000000000E+00  0.00000000000E+00 -0.15015822109E+04  0.15675289672E+04  0.44988657111E+03 0.  0.
      99925    2    3    3    0    0  0.68414910234E+02  0.43632261958E+02 -0.69915425480E+03  0.75136568263E+03  0.26296262624E+03 0.  0.
         25    1    3    3    0    0 -0.68414910234E+02 -0.43632261958E+02 -0.80242795608E+03  0.81616328454E+03  0.12509000000E+03 0.  0.
         25    1    4    4    0    0  0.28799364495E+02 -0.17988054026E+02 -0.35527226197E+03  0.37817834643E+03  0.12509000000E+03 0.  0.
         25    1    4    4    0    0  0.39615545739E+02  0.61620315984E+02 -0.34388199283E+03  0.37318733620E+03  0.12509000000E+03 0.  0.
<mgrwt>
<rscale>  2 0.44988657E+03</rscale>
<asrwt>0</asrwt>
<pdfrwt beam="1">  1       21 0.48490270E-02 0.44988657E+03</pdfrwt>
<pdfrwt beam="2">  1       21 0.22566990E+00 0.44988657E+03</pdfrwt>
<totfact> 0.23074399E+04</totfact>
</mgrwt>
</event>
<event>
 7    0  0.4831799E-002  0.4549174E+03  0.7546771E-02  0.1026266E+00
         21   -1    0    0  502  501  0.00000000000E+00  0.00000000000E+00  0.23981136752E+02  0.23981136752E+02  0.00000000000E+00 0. -1.
         21   -1    0    0  501  502 -0.00000000000E+00 -0.00000000000E+00 -0.21574230958E+04  0.21574230958E+04  0.00000000000E+00 0. -1.
      99926    2    1    2    0    0  0.00000000000E+00 -0.88817841970E-15 -0.21334419590E+04  0.21814042325E+04  0.45491739159E+03 0.  0.
      99925    2    3    3    0    0 -0.11226757121E+03  0.37134640429E+01 -0.12801303474E+04  0.13116881800E+04  0.26301022396E+03 0.  0.
         25    1    4    4    0    0 -0.62470367437E+02  0.39983505876E+02 -0.59518757326E+03  0.61269648523E+03  0.12509000000E+03 0.  0.
         25    1    3    3    0    0  0.11226757121E+03 -0.37134640429E+01 -0.85331161162E+03  0.86971605250E+03  0.12509000000E+03 0.  0.
         25    1    4    4    0    0 -0.49797203768E+02 -0.36270041834E+02 -0.68494277416E+03  0.69899169481E+03  0.12509000000E+03 0.  0.
<mgrwt>
<rscale>  2 0.45491739E+03</rscale>
<asrwt>0</asrwt>
<pdfrwt beam="1">  1       21 0.35266381E-02 0.45491739E+03</pdfrwt>
<pdfrwt beam="2">  1       21 0.31726807E+00 0.45491739E+03</pdfrwt>
<totfact> 0.10974885E+04</totfact>
</mgrwt>
</event>
<event>
 7    0  0.4831799E-002  0.4560897E+03  0.7546771E-02  0.1025921E+00
         21   -1    0    0  502  501  0.00000000000E+00  0.00000000000E+00  0.32912267831E+03  0.32912267831E+03  0.00000000000E+00 0. -1.
         21   -1    0    0  501  502 -0.00000000000E+00 -0.00000000000E+00 -0.15800933957E+03  0.15800933957E+03  0.00000000000E+00 0. -1.
      99926    2    1    2    0    0  0.17763568394E-14 -0.71054273576E-14  0.17111333874E+03  0.48713201789E+03  0.45608971503E+03 0.  0.
      99925    2    3    3    0    0  0.12566468553E+02 -0.44480470975E+02  0.21911469991E+03  0.34539963907E+03  0.26297001830E+03 0.  0.
         25    1    3    3    0    0 -0.12566468553E+02  0.44480470975E+02 -0.48001361173E+02  0.14173237881E+03  0.12509000000E+03 0.  0.
         25    1    4    4    0    0  0.37413078845E+02 -0.48798562078E+02  0.11573155540E+03  0.18116936591E+03  0.12509000000E+03 0.  0.
         25    1    4    4    0    0 -0.24846610292E+02  0.43180911029E+01  0.10338314451E+03  0.16423027316E+03  0.12509000000E+03 0.  0.
<mgrwt>
<rscale>  2 0.45608972E+03</rscale>
<asrwt>0</asrwt>
<pdfrwt beam="1">  1       21 0.48400394E-01 0.45608972E+03</pdfrwt>
<pdfrwt beam="2">  1       21 0.23236668E-01 0.45608972E+03</pdfrwt>
<totfact> 0.65615038E+04</totfact>
</mgrwt>
</event>
<event>
 7    0  0.4831799E-002  0.4573363E+03  0.7546771E-02  0.1025557E+00
         21   -1    0    0  502  501  0.00000000000E+00  0.00000000000E+00  0.12811717099E+04  0.12811717099E+04  0.00000000000E+00 0.  1.
         21   -1    0    0  501  502 -0.00000000000E+00 -0.00000000000E+00 -0.40813521937E+02  0.40813521937E+02  0.00000000000E+00 0.  1.
      99926    2    1    2    0    0  0.00000000000E+00  0.00000000000E+00  0.12403581880E+04  0.13219852318E+04  0.45733633001E+03 0.  0.
      99925    2    3    3    0    0  0.81933880197E+02 -0.77186542525E+02  0.83749738205E+03  0.88539015616E+03  0.26427815006E+03 0.  0.
         25    1    4    4    0    0  0.20937975936E+02 -0.69537417168E+02  0.36013425431E+03  0.38809540122E+03  0.12509000000E+03 0.  0.
         25    1    4    4    0    0  0.60995904261E+02 -0.76491253573E+01  0.47736312775E+03  0.49729475494E+03  0.12509000000E+03 0.  0.
         25    1    3    3    0    0 -0.81933880197E+02  0.77186542525E+02  0.40286080591E+03  0.43659507568E+03  0.12509000000E+03 0.  0.
<mgrwt>
<rscale>  2 0.45733633E+03</rscale>
<asrwt>0</asrwt>
<pdfrwt beam="1">  1       21 0.18840758E+00 0.45733633E+03</pdfrwt>
<pdfrwt beam="2">  1       21 0.60019894E-02 0.45733633E+03</pdfrwt>
<totfact> 0.27971229E+04</totfact>
</mgrwt>
</event>
<event>
 7    0  0.4831799E-002  0.4538842E+03  0.7546771E-02  0.1026570E+00
         21   -1    0    0  502  501  0.00000000000E+00  0.00000000000E+00  0.60368082432E+03  0.60368082432E+03  0.00000000000E+00 0.  1.
         21   -1    0    0  501  502 -0.00000000000E+00 -0.00000000000E+00 -0.85314490817E+02  0.85314490817E+02  0.00000000000E+00 0.  1.
      99926    2    1    2    0    0  0.00000000000E+00  0.14210854715E-13  0.51836633350E+03  0.68899531514E+03  0.45388422375E+03 0.  0.
      99925    2    3    3    0    0  0.26584444141E+02 -0.65919716655E+02  0.45825803042E+03  0.53307014746E+03  0.26289012526E+03 0.  0.
         25    1    3    3    0    0 -0.26584444141E+02  0.65919716655E+02  0.60108303086E+02  0.15592516767E+03  0.12509000000E+03 0.  0.
         25    1    4    4    0    0  0.86778567645E+01 -0.65288570494E+02  0.19286804776E+03  0.23913070607E+03  0.12509000000E+03 0.  0.
         25    1    4    4    0    0  0.17906587376E+02 -0.63114616055E+00  0.26538998265E+03  0.29393944140E+03  0.12509000000E+03 0.  0.
<mgrwt>
<rscale>  2 0.45388422E+03</rscale>
<asrwt>0</asrwt>
<pdfrwt beam="1">  1       21 0.88776590E-01 0.45388422E+03</pdfrwt>
<pdfrwt beam="2">  1       21 0.12546249E-01 0.45388422E+03</pdfrwt>
<totfact> 0.53977200E+04</totfact>
</mgrwt>
</event>
<event>
 7    0  0.4831799E-002  0.4603244E+03  0.7546771E-02  0.1024687E+00
         21   -1    0    0  502  501  0.00000000000E+00  0.00000000000E+00  0.24543467379E+02  0.24543467379E+02  0.00000000000E+00 0. -1.
         21   -1    0    0  501  502 -0.00000000000E+00 -0.00000000000E+00 -0.21584009504E+04  0.21584009504E+04  0.00000000000E+00 0. -1.
      99926    2    1    2    0    0 -0.88817841970E-15  0.14210854715E-13 -0.21338574831E+04  0.21829444178E+04  0.46032442176E+03 0.  0.
      99925    2    3    3    0    0 -0.57784548003E+01  0.90453381645E+02 -0.97747250597E+03  0.10162872582E+04  0.26300586766E+03 0.  0.
         25    1    4    4    0    0  0.13115564949E+02  0.47380115616E+02 -0.62598000860E+03  0.64024633749E+03  0.12509000000E+03 0.  0.
         25    1    4    4    0    0 -0.18894019750E+02  0.43073266029E+02 -0.35149249737E+03  0.37604092069E+03  0.12509000000E+03 0.  0.
         25    1    3    3    0    0  0.57784548003E+01 -0.90453381645E+02 -0.11563849771E+04  0.11666571596E+04  0.12509000000E+03 0.  0.
<mgrwt>
<rscale>  2 0.46032442E+03</rscale>
<asrwt>0</asrwt>
<pdfrwt beam="1">  1       21 0.36093322E-02 0.46032442E+03</pdfrwt>
<pdfrwt beam="2">  1       21 0.31741201E+00 0.46032442E+03</pdfrwt>
<totfact> 0.10505231E+04</totfact>
</mgrwt>
</event>
<event>
 7    0  0.4831799E-002  0.4825081E+03  0.7546771E-02  0.1018448E+00
         21   -1    0    0  502  501  0.00000000000E+00  0.00000000000E+00  0.94220581317E+03  0.94220581317E+03  0.00000000000E+00 0. -1.
         21   -1    0    0  501  502 -0.00000000000E+00 -0.00000000000E+00 -0.61773686258E+02  0.61773686258E+02  0.00000000000E+00 0. -1.
      99926    2    1    2    0    0 -0.35527136788E-14  0.00000000000E+00  0.88043212691E+03  0.10039794994E+04  0.48250814001E+03 0.  0.
      99925    2    3    3    0    0 -0.23841146679E+02 -0.78711031630E+02  0.31211898653E+03  0.41627960968E+03  0.26288138943E+03 0.  0.
         25    1    4    4    0    0 -0.27643725920E+02 -0.75673607962E+02  0.14794948276E+03  0.20982666197E+03  0.12509000000E+03 0.  0.
         25    1    4    4    0    0  0.38025792410E+01 -0.30374236679E+01  0.16416950377E+03  0.20645294771E+03  0.12509000000E+03 0.  0.
         25    1    3    3    0    0  0.23841146679E+02  0.78711031630E+02  0.56831314038E+03  0.58769988974E+03  0.12509000000E+03 0.  0.
<mgrwt>
<rscale>  2 0.48250814E+03</rscale>
<asrwt>0</asrwt>
<pdfrwt beam="1">  1       21 0.13855967E+00 0.48250814E+03</pdfrwt>
<pdfrwt beam="2">  1       21 0.90843662E-02 0.48250814E+03</pdfrwt>
<totfact> 0.31646073E+04</totfact>
</mgrwt>
</event>
<event>
 7    0  0.4831799E-002  0.4593824E+03  0.7546771E-02  0.1024960E+00
         21   -1    0    0  502  501  0.00000000000E+00  0.00000000000E+00  0.11061923146E+04  0.11061923146E+04  0.00000000000E+00 0.  1.
         21   -1    0    0  501  502 -0.00000000000E+00 -0.00000000000E+00 -0.47693385849E+02  0.47693385849E+02  0.00000000000E+00 0.  1.
      99926    2    1    2    0    0  0.00000000000E+00 -0.35527136788E-14  0.10584989287E+04  0.11538857004E+04  0.45938244147E+03 0.  0.
      99925    2    3    3    0    0  0.21282311983E+02  0.24194967232E+02  0.38072196574E+03  0.46390928568E+03  0.26310506818E+03 0.  0.
         25    1    4    4    0    0  0.17549725386E+02 -0.13106754872E+02  0.24260278211E+03  0.27383096587E+03  0.12509000000E+03 0.  0.
         25    1    4    4    0    0  0.37325865972E+01  0.37301722104E+02  0.13811918363E+03  0.19007831981E+03  0.12509000000E+03 0.  0.
         25    1    3    3    0    0 -0.21282311983E+02 -0.24194967232E+02  0.67777696300E+03  0.68997641476E+03  0.12509000000E+03 0.  0.
<mgrwt>
<rscale>  2 0.45938244E+03</rscale>
<asrwt>0</asrwt>
<pdfrwt beam="1">  1       21 0.16267532E+00 0.45938244E+03</pdfrwt>
<pdfrwt beam="2">  1       21 0.70137339E-02 0.45938244E+03</pdfrwt>
<totfact> 0.32527664E+04</totfact>
</mgrwt>
</event>
<event>
 7    0  0.4831799E-002  0.4538399E+03  0.7546771E-02  0.1026583E+00
         21   -1    0    0  502  501  0.00000000000E+00  0.00000000000E+00  0.36198545228E+03  0.36198545228E+03  0.00000000000E+00 0.  1.
         21   -1    0    0  501  502 -0.00000000000E+00 -0.00000000000E+00 -0.14225065706E+03  0.14225065706E+03  0.00000000000E+00 0.  1.
      99926    2    1    2    0    0 -0.53290705182E-14 -0.35527136788E-14  0.21973479522E+03  0.50423610934E+03  0.45383992082E+03 0.  0.
      99925    2    3    3    0    0 -0.84081617147E+01 -0.22630837472E+02  0.16778845682E+02  0.26460831976E+03  0.26296992458E+03 0.  0.
         25    1    4    4    0    0 -0.42703202729E+02  0.12624439683E+01  0.90513410008E+01  0.13249374386E+03  0.12509000000E+03 0.  0.
         25    1    3    3    0    0  0.84081617147E+01  0.22630837472E+02  0.20295594954E+03  0.23962778958E+03  0.12509000000E+03 0.  0.
         25    1    4    4    0    0  0.34295041015E+02 -0.23893281440E+02  0.77275046817E+01  0.13211457590E+03  0.12509000000E+03 0.  0.
<mgrwt>
<rscale>  2 0.45383992E+03</rscale>
<asrwt>0</asrwt>
<pdfrwt beam="1">  1       21 0.53233155E-01 0.45383992E+03</pdfrwt>
<pdfrwt beam="2">  1       21 0.20919214E-01 0.45383992E+03</pdfrwt>
<totfact> 0.65575815E+04</totfact>
</mgrwt>
</event>
<event>
 7    0  0.4831799E-002  0.4464942E+03  0.7546771E-02  0.1028773E+00
         21   -1    0    0  502  501  0.00000000000E+00  0.00000000000E+00  0.19394130038E+02  0.19394130038E+02  0.00000000000E+00 0.  1.
         21   -1    0    0  501  502 -0.00000000000E+00 -0.00000000000E+00 -0.25698118611E+04  0.25698118611E+04  0.00000000000E+00 0.  1.
      99926    2    1    2    0    0  0.00000000000E+00  0.00000000000E+00 -0.25504177311E+04  0.25892059911E+04  0.44649418992E+03 0.  0.
      99925    2    3    3    0    0  0.66935398915E+02  0.38980693266E+02 -0.20287266622E+04  0.20471645522E+04  0.26296576178E+03 0.  0.
         25    1    4    4    0    0  0.42946865285E+02 -0.96103233098E+01 -0.80232682506E+03  0.81321130948E+03  0.12509000000E+03 0.  0.
         25    1    3    3    0    0 -0.66935398915E+02 -0.38980693266E+02 -0.52169106890E+03  0.54204143895E+03  0.12509000000E+03 0.  0.
         25    1    4    4    0    0  0.23988533629E+02  0.48591016576E+02 -0.12263998371E+04  0.12339532427E+04  0.12509000000E+03 0.  0.
<mgrwt>
<rscale>  2 0.44649419E+03</rscale>
<asrwt>0</asrwt>
<pdfrwt beam="1">  1       21 0.28520764E-02 0.44649419E+03</pdfrwt>
<pdfrwt beam="2">  1       21 0.37791371E+00 0.44649419E+03</pdfrwt>
<totfact> 0.66933372E+03</totfact>
</mgrwt>
</event>
<event>
 7    0  0.4831799E-002  0.4517162E+03  0.7546771E-02  0.1027212E+00
         21   -1    0    0  502  501  0.00000000000E+00  0.00000000000E+00  0.13324534765E+03  0.13324534765E+03  0.00000000000E+00 0.  1.
         21   -1    0    0  501  502 -0.00000000000E+00 -0.00000000000E+00 -0.38284167040E+03  0.38284167040E+03  0.00000000000E+00 0.  1.
      99926    2    1    2    0    0  0.71054273576E-14  0.71054273576E-14 -0.24959632275E+03  0.51608701806E+03  0.45171615632E+03 0.  0.
      99925    2    3    3    0    0 -0.62564898667E+02 -0.42844146352E+02 -0.66419002956E+02  0.28166981304E+03  0.26301409126E+03 0.  0.
         25    1    4    4    0    0  0.58595570365E+00 -0.42898165706E+02 -0.18255343682E+02  0.13349667276E+03  0.12509000000E+03 0.  0.
         25    1    4    4    0    0 -0.63150854370E+02  0.54019354176E-01 -0.48163659275E+02  0.14817314028E+03  0.12509000000E+03 0.  0.
         25    1    3    3    0    0  0.62564898667E+02  0.42844146352E+02 -0.18317731979E+03  0.23441720502E+03  0.12509000000E+03 0.  0.
<mgrwt>
<rscale>  2 0.45171616E+03</rscale>
<asrwt>0</asrwt>
<pdfrwt beam="1">  1       21 0.19594904E-01 0.45171616E+03</pdfrwt>
<pdfrwt beam="2">  1       21 0.56300245E-01 0.45171616E+03</pdfrwt>
<totfact> 0.65853816E+04</totfact>
</mgrwt>
</event>
<event>
 7    0  0.4831799E-002  0.4564872E+03  0.7546771E-02  0.1025805E+00
         21   -1    0    0  502  501  0.00000000000E+00  0.00000000000E+00  0.38876078555E+03  0.38876078555E+03  0.00000000000E+00 0. -1.
         21   -1    0    0  501  502 -0.00000000000E+00 -0.00000000000E+00 -0.13400305332E+03  0.13400305332E+03  0.00000000000E+00 0. -1.
      99926    2    1    2    0    0  0.71054273576E-14  0.00000000000E+00  0.25475773223E+03  0.52276383888E+03  0.45648716204E+03 0.  0.
      99925    2    3    3    0    0 -0.62324524307E+02 -0.81118225996E+02  0.21910166763E+03  0.35728460767E+03  0.26302516457E+03 0.  0.
         25    1    4    4    0    0  0.68354725728E+01 -0.53345258020E+02  0.11593629720E+03  0.17883280837E+03  0.12509000000E+03 0.  0.
         25    1    3    3    0    0  0.62324524307E+02  0.81118225996E+02  0.35656064601E+02  0.16547923121E+03  0.12509000000E+03 0.  0.
         25    1    4    4    0    0 -0.69159996880E+02 -0.27772967976E+02  0.10316537043E+03  0.17845179930E+03  0.12509000000E+03 0.  0.
<mgrwt>
<rscale>  2 0.45648716E+03</rscale>
<asrwt>0</asrwt>
<pdfrwt beam="1">  1       21 0.57170703E-01 0.45648716E+03</pdfrwt>
<pdfrwt beam="2">  1       21 0.19706332E-01 0.45648716E+03</pdfrwt>
<totfact> 0.62953315E+04</totfact>
</mgrwt>
</event>
<event>
 7    0  0.4831799E-002  0.4492549E+03  0.7546771E-02  0.1027944E+00
         21   -1    0    0  502  501  0.00000000000E+00  0.00000000000E+00  0.17215820476E+03  0.17215820476E+03  0.00000000000E+00 0.  1.
         21   -1    0    0  501  502 -0.00000000000E+00 -0.00000000000E+00 -0.29308792035E+03  0.29308792035E+03  0.00000000000E+00 0.  1.
      99926    2    1    2    0    0  0.00000000000E+00  0.00000000000E+00 -0.12092971559E+03  0.46524612512E+03  0.44925489516E+03 0.  0.
      99925    2    3    3    0    0 -0.90314689518E+02  0.48691243602E+02 -0.11006010017E+03  0.30309423032E+03  0.26310702472E+03 0.  0.
         25    1    4    4    0    0 -0.56958143667E+02  0.55567294671E+02 -0.31689741332E+02  0.15160376701E+03  0.12509000000E+03 0.  0.
         25    1    3    3    0    0  0.90314689518E+02 -0.48691243602E+02 -0.10869615423E+02  0.16215189480E+03  0.12509000000E+03 0.  0.
         25    1    4    4    0    0 -0.33356545851E+02 -0.68760510682E+01 -0.78370358835E+02  0.15149046331E+03  0.12509000000E+03 0.  0.
<mgrwt>
<rscale>  2 0.44925490E+03</rscale>
<asrwt>0</asrwt>
<pdfrwt beam="1">  1       21 0.25317383E-01 0.44925490E+03</pdfrwt>
<pdfrwt beam="2">  1       21 0.43101164E-01 0.44925490E+03</pdfrwt>
<totfact> 0.70970708E+04</totfact>
</mgrwt>
</event>
<event>
 7    0  0.4831799E-002  0.4598790E+03  0.7546771E-02  0.1024816E+00
         21   -1    0    0  502  501  0.00000000000E+00  0.00000000000E+00  0.79167644335E+02  0.79167644335E+02  0.00000000000E+00 0. -1.
         21   -1    0    0  501  502 -0.00000000000E+00 -0.00000000000E+00 -0.66785065867E+03  0.66785065867E+03  0.00000000000E+00 0. -1.
      99926    2    1    2    0    0  0.66613381478E-15  0.00000000000E+00 -0.58868301434E+03  0.74701830301E+03  0.45987895544E+03 0.  0.
      99925    2    3    3    0    0 -0.65602190818E+00  0.10812043261E+03 -0.29330221095E+03  0.40851012671E+03  0.26299026286E+03 0.  0.
         25    1    4    4    0    0  0.22510131260E+02  0.34395772209E+02 -0.98456037521E+02  0.16441068876E+03  0.12509000000E+03 0.  0.
         25    1    4    4    0    0 -0.23166153168E+02  0.73724660405E+02 -0.19484617343E+03  0.24409943794E+03  0.12509000000E+03 0.  0.
         25    1    3    3    0    0  0.65602190818E+00 -0.10812043261E+03 -0.29538080339E+03  0.33850817630E+03  0.12509000000E+03 0.  0.
<mgrwt>
<rscale>  2 0.45987896E+03</rscale>
<asrwt>0</asrwt>
<pdfrwt beam="1">  1       21 0.11642300E-01 0.45987896E+03</pdfrwt>
<pdfrwt beam="2">  1       21 0.98213338E-01 0.45987896E+03</pdfrwt>
<totfact> 0.48535148E+04</totfact>
</mgrwt>
</event>
<event>
 7    0  0.4831799E-002  0.4615504E+03  0.7546771E-02  0.1024333E+00
         21   -1    0    0  502  501  0.00000000000E+00  0.00000000000E+00  0.10675068953E+03  0.10675068953E+03  0.00000000000E+00 0.  1.
         21   -1    0    0  501  502 -0.00000000000E+00 -0.00000000000E+00 -0.49889327705E+03  0.49889327705E+03  0.00000000000E+00 0.  1.
      99926    2    1    2    0    0  0.00000000000E+00  0.35527136788E-14 -0.39214258752E+03  0.60564396658E+03  0.46155043636E+03 0.  0.
      99925    2    3    3    0    0 -0.46800836885E+02  0.29150496397E+02 -0.10716192192E+03  0.28957188993E+03  0.26330235881E+03 0.  0.
         25    1    3    3    0    0  0.46800836885E+02 -0.29150496397E+02 -0.28498066560E+03  0.31607207665E+03  0.12509000000E+03 0.  0.
         25    1    4    4    0    0  0.90108789000E+01  0.17439422974E+02 -0.23926002066E+02  0.12886151903E+03  0.12509000000E+03 0.  0.
         25    1    4    4    0    0 -0.55811715785E+02  0.11711073424E+02 -0.83235919854E+02  0.16071037090E+03  0.12509000000E+03 0.  0.
<mgrwt>
<rscale>  2 0.46155044E+03</rscale>
<asrwt>0</asrwt>
<pdfrwt beam="1">  1       21 0.15698631E-01 0.46155044E+03</pdfrwt>
<pdfrwt beam="2">  1       21 0.73366657E-01 0.46155044E+03</pdfrwt>
<totfact> 0.55408656E+04</totfact>
</mgrwt>
</event>
<event>
 7    0  0.4831799E-002  0.4533142E+03  0.7546771E-02  0.1026738E+00
         21   -1    0    0  502  501  0.00000000000E+00  0.00000000000E+00  0.48946878107E+03  0.48946878107E+03  0.00000000000E+00 0. -1.
         21   -1    0    0  501  502 -0.00000000000E+00 -0.00000000000E+00 -0.10495753024E+03  0.10495753024E+03  0.00000000000E+00 0. -1.
      99926    2    1    2    0    0  0.00000000000E+00  0.00000000000E+00  0.38451125083E+03  0.59442631131E+03  0.45331417093E+03 0.  0.
      99925    2    3    3    0    0  0.46913789155E+02 -0.82752696999E+02  0.31866147004E+03  0.42403671596E+03  0.26308381083E+03 0.  0.
         25    1    3    3    0    0 -0.46913789155E+02  0.82752696999E+02  0.65849780788E+02  0.17038959535E+03  0.12509000000E+03 0.  0.
         25    1    4    4    0    0  0.14602265115E+01 -0.73259004148E+01  0.12212109140E+03  0.17497677030E+03  0.12509000000E+03 0.  0.
         25    1    4    4    0    0  0.45453562644E+02 -0.75426796584E+02  0.19654037864E+03  0.24905994567E+03  0.12509000000E+03 0.  0.
<mgrwt>
<rscale>  2 0.45331417E+03</rscale>
<asrwt>0</asrwt>
<pdfrwt beam="1">  1       21 0.71980702E-01 0.45331417E+03</pdfrwt>
<pdfrwt beam="2">  1       21 0.15434931E-01 0.45331417E+03</pdfrwt>
<totfact> 0.59815561E+04</totfact>
</mgrwt>
</event>
<event>
 7    0  0.4831799E-002  0.4750984E+03  0.7546771E-02  0.1020491E+00
         21   -1    0    0  502  501  0.00000000000E+00  0.00000000000E+00  0.40952477767E+03  0.40952477767E+03  0.00000000000E+00 0. -1.
         21   -1    0    0  501  502 -0.00000000000E+00 -0.00000000000E+00 -0.13779293202E+03  0.13779293202E+03  0.00000000000E+00 0. -1.
      99926    2    1    2    0    0  0.00000000000E+00 -0.71054273576E-14  0.27173184564E+03  0.54731770969E+03  0.47509838918E+03 0.  0.
      99925    2    3    3    0    0 -0.58043488509E+02  0.53323266993E+02  0.47214374984E+02  0.27849059035E+03  0.26289806836E+03 0.  0.
         25    1    4    4    0    0 -0.14072403915E+02  0.60725670804E+02  0.78578555950E+01  0.13998176182E+03  0.12509000000E+03 0.  0.
         25    1    4    4    0    0 -0.43971084595E+02 -0.74024038109E+01  0.39356519389E+02  0.13850882853E+03  0.12509000000E+03 0.  0.
         25    1    3    3    0    0  0.58043488509E+02 -0.53323266993E+02  0.22451747066E+03  0.26882711934E+03  0.12509000000E+03 0.  0.
<mgrwt>
<rscale>  2 0.47509839E+03</rscale>
<asrwt>0</asrwt>
<pdfrwt beam="1">  1       21 0.60224232E-01 0.47509839E+03</pdfrwt>
<pdfrwt beam="2">  1       21 0.20263667E-01 0.47509839E+03</pdfrwt>
<totfact> 0.53077698E+04</totfact>
</mgrwt>
</event>
<event>
 7    0  0.4831799E-002  0.4259328E+03  0.7546771E-02  0.1035153E+00
         21   -1    0    0  502  501  0.00000000000E+00  0.00000000000E+00  0.79028971439E+03  0.79028971439E+03  0.00000000000E+00 0.  1.
         21   -1    0    0  501  502 -0.00000000000E+00 -0.00000000000E+00 -0.57389958035E+02  0.57389958035E+02  0.00000000000E+00 0.  1.
      99926    2    1    2    0    0  0.00000000000E+00  0.00000000000E+00  0.73289975635E+03  0.84767967242E+03  0.42593282825E+03 0.  0.
      99925    2    3    3    0    0  0.25175218711E+02 -0.71917525997E+02  0.40867988644E+03  0.49191014826E+03  0.26296467860E+03 0.  0.
         25    1    4    4    0    0  0.17928892964E+02 -0.58453392506E+02  0.15305582826E+03  0.20691021957E+03  0.12509000000E+03 0.  0.
         25    1    3    3    0    0 -0.25175218711E+02  0.71917525997E+02  0.32421986991E+03  0.35576952417E+03  0.12509000000E+03 0.  0.
         25    1    4    4    0    0  0.72463257475E+01 -0.13464133491E+02  0.25562405819E+03  0.28499992869E+03  0.12509000000E+03 0.  0.
<mgrwt>
<rscale>  2 0.42593283E+03</rscale>
<asrwt>0</asrwt>
<pdfrwt beam="1">  1       21 0.11621907E+00 0.42593283E+03</pdfrwt>
<pdfrwt beam="2">  1       21 0.84397002E-02 0.42593283E+03</pdfrwt>
<totfact> 0.57591835E+04</totfact>
</mgrwt>
</event>
<event>
 7    0  0.4831799E-002  0.4576323E+03  0.7546771E-02  0.1025470E+00
         21   -1    0    0  502  501  0.00000000000E+00  0.00000000000E+00  0.18995685961E+03  0.18995685961E+03  0.00000000000E+00 0. -1.
         21   -1    0    0  501  502 -0.00000000000E+00 -0.00000000000E+00 -0.27562480480E+03  0.27562480480E+03  0.00000000000E+00 0. -1.
      99926    2    1    2    0    0 -0.35527136788E-14  0.00000000000E+00 -0.85667945185E+02  0.46558166441E+03  0.45763226439E+03 0.  0.
      99925    2    3    3    0    0  0.17978180066E+02  0.65031352809E+02 -0.14928645786E+03  0.30986681264E+03  0.26301844664E+03 0.  0.
         25    1    4    4    0    0  0.43932750454E+02  0.12206971665E+02 -0.68116210009E+02  0.14955408014E+03  0.12509000000E+03 0.  0.
         25    1    4    4    0    0 -0.25954570388E+02  0.52824381143E+02 -0.81170247854E+02  0.16031273251E+03  0.12509000000E+03 0.  0.
         25    1    3    3    0    0 -0.17978180066E+02 -0.65031352809E+02  0.63618512677E+02  0.15571485177E+03  0.12509000000E+03 0.  0.
<mgrwt>
<rscale>  2 0.45763226E+03</rscale>
<asrwt>0</asrwt>
<pdfrwt beam="1">  1       21 0.27934832E-01 0.45763226E+03</pdfrwt>
<pdfrwt beam="2">  1       21 0.40533059E-01 0.45763226E+03</pdfrwt>
<totfact> 0.66367384E+04</totfact>
</mgrwt>
</event>
<event>
 7    0  0.4831799E-002  0.4575015E+03  0.7546771E-02  0.1025508E+00
         21   -1    0    0  502  501  0.00000000000E+00  0.00000000000E+00  0.39060232114E+02  0.39060232114E+02  0.00000000000E+00 0.  1.
         21   -1    0    0  501  502 -0.00000000000E+00 -0.00000000000E+00 -0.13396465368E+04  0.13396465368E+04  0.00000000000E+00 0.  1.
      99926    2    1    2    0    0  0.14210854715E-13  0.00000000000E+00 -0.13005863047E+04  0.13787067689E+04  0.45750149586E+03 0.  0.
      99925    2    3    3    0    0 -0.65880789163E+02  0.16507037751E+02 -0.10980752366E+04  0.11311769698E+04  0.26301967794E+03 0.  0.
         25    1    4    4    0    0 -0.68881297094E+01 -0.23549139229E+02 -0.49475003837E+03  0.51090812957E+03  0.12509000000E+03 0.  0.
         25    1    3    3    0    0  0.65880789163E+02 -0.16507037751E+02 -0.20251106807E+03  0.24752979915E+03  0.12509000000E+03 0.  0.
         25    1    4    4    0    0 -0.58992659454E+02  0.40056176980E+02 -0.60332519825E+03  0.62026884021E+03  0.12509000000E+03 0.  0.
<mgrwt>
<rscale>  2 0.45750150E+03</rscale>
<asrwt>0</asrwt>
<pdfrwt beam="1">  1       21 0.57441515E-02 0.45750150E+03</pdfrwt>
<pdfrwt beam="2">  1       21 0.19700685E+00 0.45750150E+03</pdfrwt>
<totfact> 0.26388228E+04</totfact>
</mgrwt>
</event>
<event>
 7    0  0.4831799E-002  0.4928099E+03  0.7546771E-02  0.1015673E+00
         21   -1    0    0  502  501  0.00000000000E+00  0.00000000000E+00  0.14828485592E+03  0.14828485592E+03  0.00000000000E+00 0. -1.
         21   -1    0    0  501  502 -0.00000000000E+00 -0.00000000000E+00 -0.40945112559E+03  0.40945112559E+03  0.00000000000E+00 0. -1.
      99926    2    1    2    0    0  0.71054273576E-14  0.00000000000E+00 -0.26116626967E+03  0.55773598152E+03  0.49280990723E+03 0.  0.
      99925    2    3    3    0    0 -0.59090991005E+02  0.66126529719E+02 -0.29026754660E+03  0.40166274368E+03  0.26308410803E+03 0.  0.
         25    1    3    3    0    0  0.59090991005E+02 -0.66126529719E+02  0.29101276936E+02  0.15607323784E+03  0.12509000000E+03 0.  0.
         25    1    4    4    0    0 -0.63141471280E+02  0.10243621761E+02 -0.15134416376E+03  0.20650506334E+03  0.12509000000E+03 0.  0.
         25    1    4    4    0    0  0.40504802750E+01  0.55882907958E+02 -0.13892338284E+03  0.19515768033E+03  0.12509000000E+03 0.  0.
<mgrwt>
<rscale>  2 0.49280991E+03</rscale>
<asrwt>0</asrwt>
<pdfrwt beam="1">  1       21 0.21806597E-01 0.49280991E+03</pdfrwt>
<pdfrwt beam="2">  1       21 0.60213400E-01 0.49280991E+03</pdfrwt>
<totfact> 0.45969501E+04</totfact>
</mgrwt>
</event>
<event>
 7    0  0.4831799E-002  0.4579524E+03  0.7546771E-02  0.1025377E+00
         21   -1    0    0  502  501  0.00000000000E+00  0.00000000000E+00  0.65741847994E+03  0.65741847994E+03  0.00000000000E+00 0.  1.
         21   -1    0    0  501  502 -0.00000000000E+00 -0.00000000000E+00 -0.79751495825E+02  0.79751495825E+02  0.00000000000E+00 0.  1.
      99926    2    1    2    0    0  0.00000000000E+00  0.00000000000E+00  0.57766698411E+03  0.73716997576E+03  0.45795243053E+03 0.  0.
      99925    2    3    3    0    0 -0.75694578158E+02 -0.40981707054E+02  0.48749160216E+03  0.56056794552E+03  0.26301937171E+03 0.  0.
         25    1    4    4    0    0 -0.30555484105E+02 -0.52503136408E+02  0.19993257099E+03  0.24353800111E+03  0.12509000000E+03 0.  0.
         25    1    3    3    0    0  0.75694578158E+02  0.40981707054E+02  0.90175381955E+02  0.17660203024E+03  0.12509000000E+03 0.  0.
         25    1    4    4    0    0 -0.45139094053E+02  0.11521429354E+02  0.28755903117E+03  0.31702994441E+03  0.12509000000E+03 0.  0.
<mgrwt>
<rscale>  2 0.45795243E+03</rscale>
<asrwt>0</asrwt>
<pdfrwt beam="1">  1       21 0.96679185E-01 0.45795243E+03</pdfrwt>
<pdfrwt beam="2">  1       21 0.11728161E-01 0.45795243E+03</pdfrwt>
<totfact> 0.49765635E+04</totfact>
</mgrwt>
</event>
<event>
 7    0  0.4831799E-002  0.4554925E+03  0.7546771E-02  0.1026097E+00
         21   -1    0    0  502  501  0.00000000000E+00  0.00000000000E+00  0.76085155241E+02  0.76085155241E+02  0.00000000000E+00 0. -1.
         21   -1    0    0  501  502 -0.00000000000E+00 -0.00000000000E+00 -0.68171444106E+03  0.68171444106E+03  0.00000000000E+00 0. -1.
      99926    2    1    2    0    0  0.00000000000E+00  0.00000000000E+00 -0.60562928582E+03  0.75779959631E+03  0.45549247668E+03 0.  0.
      99925    2    3    3    0    0 -0.92826341864E+02 -0.64240096583E+02 -0.40249734700E+03  0.49387988802E+03  0.26300134922E+03 0.  0.
         25    1    4    4    0    0 -0.67395808524E+02 -0.35088026967E+02 -0.27280651560E+03  0.30958725377E+03  0.12509000000E+03 0.  0.
         25    1    4    4    0    0 -0.25430533340E+02 -0.29152069616E+02 -0.12969083141E+03  0.18429263425E+03  0.12509000000E+03 0.  0.
         25    1    3    3    0    0  0.92826341864E+02  0.64240096583E+02 -0.20313193882E+03  0.26391970829E+03  0.12509000000E+03 0.  0.
<mgrwt>
<rscale>  2 0.45549248E+03</rscale>
<asrwt>0</asrwt>
<pdfrwt beam="1">  1       21 0.11188994E-01 0.45549248E+03</pdfrwt>
<pdfrwt beam="2">  1       21 0.10025212E+00 0.45549248E+03</pdfrwt>
<totfact> 0.49680732E+04</totfact>
</mgrwt>
</event>
<event>
 7    0  0.4831799E-002  0.4891467E+03  0.7546771E-02  0.1016651E+00
         21   -1    0    0  502  501  0.00000000000E+00  0.00000000000E+00  0.66661002930E+03  0.66661002930E+03  0.00000000000E+00 0.  1.
         21   -1    0    0  501  502 -0.00000000000E+00 -0.00000000000E+00 -0.89731816842E+02  0.89731816842E+02  0.00000000000E+00 0.  1.
      99926    2    1    2    0    0 -0.14210854715E-13 -0.14210854715E-13  0.57687821246E+03  0.75634184614E+03  0.48914672259E+03 0.  0.
      99925    2    3    3    0    0  0.10185666748E+03  0.80913078278E+02  0.26125045867E+03  0.39276228950E+03  0.26284730730E+03 0.  0.
         25    1    4    4    0    0  0.17337863615E+02  0.20961999446E+02  0.88429484320E+02  0.15558691697E+03  0.12509000000E+03 0.  0.
         25    1    3    3    0    0 -0.10185666748E+03 -0.80913078278E+02  0.31562775379E+03  0.36357955664E+03  0.12509000000E+03 0.  0.
         25    1    4    4    0    0  0.84518803865E+02  0.59951078833E+02  0.17282097435E+03  0.23717537253E+03  0.12509000000E+03 0.  0.
<mgrwt>
<rscale>  2 0.48914672E+03</rscale>
<asrwt>0</asrwt>
<pdfrwt beam="1">  1       21 0.98030884E-01 0.48914672E+03</pdfrwt>
<pdfrwt beam="2">  1       21 0.13195856E-01 0.48914672E+03</pdfrwt>
<totfact> 0.38520895E+04</totfact>
</mgrwt>
</event>
<event>
 7    0  0.4831799E-002  0.4585448E+03  0.7546771E-02  0.1025204E+00
         21   -1    0    0  502  501  0.00000000000E+00  0.00000000000E+00  0.72603821704E+03  0.72603821704E+03  0.00000000000E+00 0. -1.
         21   -1    0    0  501  502 -0.00000000000E+00 -0.00000000000E+00 -0.72400903054E+02  0.72400903054E+02  0.00000000000E+00 0. -1.
      99926    2    1    2    0    0  0.00000000000E+00 -0.17763568394E-14  0.65363731399E+03  0.79843912009E+03  0.45854475274E+03 0.  0.
      99925    2    3    3    0    0  0.11536566497E+03 -0.15103499990E+02  0.42079487111E+03  0.50964773575E+03  0.26293561691E+03 0.  0.
         25    1    3    3    0    0 -0.11536566497E+03  0.15103499990E+02  0.23284244288E+03  0.28879138434E+03  0.12509000000E+03 0.  0.
         25    1    4    4    0    0  0.69942280250E+02 -0.96563177992E+01  0.14895227613E+03  0.20692862466E+03  0.12509000000E+03 0.  0.
         25    1    4    4    0    0  0.45423384722E+02 -0.54471821908E+01  0.27184259498E+03  0.30271911109E+03  0.12509000000E+03 0.  0.
<mgrwt>
<rscale>  2 0.45854475E+03</rscale>
<asrwt>0</asrwt>
<pdfrwt beam="1">  1       21 0.10677032E+00 0.45854475E+03</pdfrwt>
<pdfrwt beam="2">  1       21 0.10647192E-01 0.45854475E+03</pdfrwt>
<totfact> 0.46532361E+04</totfact>
</mgrwt>
</event>
<event>
 7    0  0.4831799E-002  0.4569259E+03  0.7546771E-02  0.1025677E+00
         21   -1    0    0  502  501  0.00000000000E+00  0.00000000000E+00  0.69940982139E+03  0.69940982139E+03  0.00000000000E+00 0. -1.
         21   -1    0    0  501  502 -0.00000000000E+00 -0.00000000000E+00 -0.74627649939E+02  0.74627649939E+02  0.00000000000E+00 0. -1.
      99926    2    1    2    0    0  0.00000000000E+00 -0.44408920985E-15  0.62478217145E+03  0.77403747133E+03  0.45692586407E+03 0.  0.
      99925    2    3    3    0    0  0.11369020668E+03  0.33627569069E+01  0.36318248734E+03  0.46255926333E+03  0.26291211794E+03 0.  0.
         25    1    4    4    0    0  0.63142341279E+02  0.22992917330E+02  0.23976193598E+03  0.27865556437E+03  0.12509000000E+03 0.  0.
         25    1    4    4    0    0  0.50547865401E+02 -0.19630160423E+02  0.12342055136E+03  0.18390369896E+03  0.12509000000E+03 0.  0.
         25    1    3    3    0    0 -0.11369020668E+03 -0.33627569069E+01  0.26159968411E+03  0.31147820800E+03  0.12509000000E+03 0.  0.
<mgrwt>
<rscale>  2 0.45692586E+03</rscale>
<asrwt>0</asrwt>
<pdfrwt beam="1">  1       21 0.10285438E+00 0.45692586E+03</pdfrwt>
<pdfrwt beam="2">  1       21 0.10974655E-01 0.45692586E+03</pdfrwt>
<totfact> 0.48311729E+04</totfact>
</mgrwt>
</event>
<event>
 7    0  0.4831799E-002  0.4547216E+03  0.7546771E-02  0.1026323E+00
         21   -1    0    0  502  501  0.00000000000E+00  0.00000000000E+00  0.22087396155E+04  0.22087396155E+04  0.00000000000E+00 0.  1.
         21   -1    0    0  501  502 -0.00000000000E+00 -0.00000000000E+00 -0.23403815438E+02  0.23403815438E+02  0.00000000000E+00 0.  1.
      99926    2    1    2    0    0  0.00000000000E+00 -0.14210854715E-13  0.21853358001E+04  0.22321434310E+04  0.45472160412E+03 0.  0.
      99925    2    3    3    0    0 -0.29893684754E+02 -0.10859131733E+03  0.14119519311E+04  0.14406538079E+04  0.26303884076E+03 0.  0.
         25    1    4    4    0    0 -0.25940952952E+02 -0.15641489654E+02  0.56497844960E+03  0.57945297122E+03  0.12509000000E+03 0.  0.
         25    1    3    3    0    0  0.29893684754E+02  0.10859131733E+03  0.77338386899E+03  0.79148962312E+03  0.12509000000E+03 0.  0.
         25    1    4    4    0    0 -0.39527318019E+01 -0.92949827676E+02  0.84697348151E+03  0.86120083664E+03  0.12509000000E+03 0.  0.
<mgrwt>
<rscale>  2 0.45472160E+03</rscale>
<asrwt>0</asrwt>
<pdfrwt beam="1">  1       21 0.32481451E+00 0.45472160E+03</pdfrwt>
<pdfrwt beam="2">  1       21 0.34417391E-02 0.45472160E+03</pdfrwt>
<totfact> 0.10298715E+04</totfact>
</mgrwt>
</event>
<event>
 7    0  0.4831799E-002  0.4586487E+03  0.7546771E-02  0.1025174E+00
         21   -1    0    0  502  501  0.00000000000E+00  0.00000000000E+00  0.10928628643E+04  0.10928628643E+04  0.00000000000E+00 0. -1.
         21   -1    0    0  501  502 -0.00000000000E+00 -0.00000000000E+00 -0.48121008491E+02  0.48121008491E+02  0.00000000000E+00 0. -1.
      99926    2    1    2    0    0  0.37747582837E-14 -0.14210854715E-13  0.10447418558E+04  0.11409838728E+04  0.45864872472E+03 0.  0.
      99925    2    3    3    0    0  0.11844091140E+01  0.10361796859E+03  0.78812371624E+03  0.83727601333E+03  0.26297156531E+03 0.  0.
         25    1    4    4    0    0  0.33923924527E+02  0.74890154268E+02  0.44304600108E+03  0.46765012032E+03  0.12509000000E+03 0.  0.
         25    1    3    3    0    0 -0.11844091140E+01 -0.10361796859E+03  0.25661813954E+03  0.30370785944E+03  0.12509000000E+03 0.  0.
         25    1    4    4    0    0 -0.32739515412E+02  0.28727814321E+02  0.34507771516E+03  0.36962589301E+03  0.12509000000E+03 0.  0.
<mgrwt>
<rscale>  2 0.45864872E+03</rscale>
<asrwt>0</asrwt>
<pdfrwt beam="1">  1       21 0.16071511E+00 0.45864872E+03</pdfrwt>
<pdfrwt beam="2">  1       21 0.70766196E-02 0.45864872E+03</pdfrwt>
<totfact> 0.33132478E+04</totfact>
</mgrwt>
</event>
<event>
 7    0  0.4831799E-002  0.4516554E+03  0.7546771E-02  0.1027230E+00
         21   -1    0    0  502  501  0.00000000000E+00  0.00000000000E+00  0.12695443374E+03  0.12695443374E+03  0.00000000000E+00 0. -1.
         21   -1    0    0  501  502 -0.00000000000E+00 -0.00000000000E+00 -0.40170444629E+03  0.40170444629E+03  0.00000000000E+00 0. -1.
      99926    2    1    2    0    0  0.35527136788E-14  0.71054273576E-14 -0.27475001255E+03  0.52865888002E+03  0.45165544615E+03 0.  0.
      99925    2    3    3    0    0  0.26768125444E+02  0.44121086717E+02 -0.28718554749E+03  0.39277159783E+03  0.26292734080E+03 0.  0.
         25    1    3    3    0    0 -0.26768125444E+02 -0.44121086717E+02  0.12435534942E+02  0.13588728219E+03  0.12509000000E+03 0.  0.
         25    1    4    4    0    0  0.16408310449E+02 -0.12968858748E+02 -0.16809091920E+03  0.21056944025E+03  0.12509000000E+03 0.  0.
         25    1    4    4    0    0  0.10359814995E+02  0.57089945464E+02 -0.11909462829E+03  0.18220215758E+03  0.12509000000E+03 0.  0.
<mgrwt>
<rscale>  2 0.45165545E+03</rscale>
<asrwt>0</asrwt>
<pdfrwt beam="1">  1       21 0.18669770E-01 0.45165545E+03</pdfrwt>
<pdfrwt beam="2">  1       21 0.59074182E-01 0.45165545E+03</pdfrwt>
<totfact> 0.65003164E+04</totfact>
</mgrwt>
</event>
<event>
 7    0  0.4831799E-002  0.4554151E+03  0.7546771E-02  0.1026119E+00
         21   -1    0    0  502  501  0.00000000000E+00  0.00000000000E+00  0.56771545967E+02  0.56771545967E+02  0.00000000000E+00 0.  1.
         21   -1    0    0  501  502 -0.00000000000E+00 -0.00000000000E+00 -0.91332248838E+03  0.91332248838E+03  0.00000000000E+00 0.  1.
      99926    2    1    2    0    0  0.00000000000E+00  0.00000000000E+00 -0.85655094242E+03  0.97009403435E+03  0.45541510573E+03 0.  0.
      99925    2    3    3    0    0 -0.68090799260E+02 -0.78482638779E+02 -0.44114258642E+03  0.52399147678E+03  0.26299126346E+03 0.  0.
         25    1    3    3    0    0  0.68090799260E+02  0.78482638779E+02 -0.41540835600E+03  0.44610255757E+03  0.12509000000E+03 0.  0.
         25    1    4    4    0    0 -0.60327962228E+02 -0.29892278652E+02 -0.28134679112E+03  0.31517699206E+03  0.12509000000E+03 0.  0.
         25    1    4    4    0    0 -0.77628370319E+01 -0.48590360127E+02 -0.15979579529E+03  0.20881448472E+03  0.12509000000E+03 0.  0.
<mgrwt>
<rscale>  2 0.45541511E+03</rscale>
<asrwt>0</asrwt>
<pdfrwt beam="1">  1       21 0.83487569E-02 0.45541511E+03</pdfrwt>
<pdfrwt beam="2">  1       21 0.13431213E+00 0.45541511E+03</pdfrwt>
<totfact> 0.40207046E+04</totfact>
</mgrwt>
</event>
<event>
 7    0  0.4831799E-002  0.4527645E+03  0.7546771E-02  0.1026901E+00
         21   -1    0    0  502  501  0.00000000000E+00  0.00000000000E+00  0.13184457818E+04  0.13184457818E+04  0.00000000000E+00 0. -1.
         21   -1    0    0  501  502 -0.00000000000E+00 -0.00000000000E+00 -0.38870710794E+02  0.38870710794E+02  0.00000000000E+00 0. -1.
      99926    2    1    2    0    0  0.35527136788E-14  0.00000000000E+00  0.12795750710E+04  0.13573164926E+04  0.45276450693E+03 0.  0.
      99925    2    3    3    0    0 -0.22109982967E+02 -0.87463089938E+02  0.61360793712E+03  0.67372423476E+03  0.26315584844E+03 0.  0.
         25    1    3    3    0    0  0.22109982967E+02  0.87463089938E+02  0.66596713392E+03  0.68359225787E+03  0.12509000000E+03 0.  0.
         25    1    4    4    0    0 -0.36725563133E+02 -0.11439976735E+02  0.30202583354E+03  0.32916067851E+03  0.12509000000E+03 0.  0.
         25    1    4    4    0    0  0.14615580166E+02 -0.76023113203E+02  0.31158210358E+03  0.34456355625E+03  0.12509000000E+03 0.  0.
<mgrwt>
<rscale>  2 0.45276451E+03</rscale>
<asrwt>0</asrwt>
<pdfrwt beam="1">  1       21 0.19388906E+00 0.45276451E+03</pdfrwt>
<pdfrwt beam="2">  1       21 0.57162819E-02 0.45276451E+03</pdfrwt>
<totfact> 0.27974940E+04</totfact>
</mgrwt>
</event>
<event>
 7    0  0.4831799E-002  0.4552054E+03  0.7546771E-02  0.1026181E+00
         21   -1    0    0  502  501  0.00000000000E+00  0.00000000000E+00  0.38970639602E+02  0.38970639602E+02  0.00000000000E+00 0. -1.
         21   -1    0    0  501  502 -0.00000000000E+00 -0.00000000000E+00 -0.13292825423E+04  0.13292825423E+04  0.00000000000E+00 0. -1.
      99926    2    1    2    0    0  0.00000000000E+00  0.17763568394E-14 -0.12903119027E+04  0.13682531819E+04  0.45520540808E+03 0.  0.
      99925    2    3    3    0    0 -0.51676324470E+02  0.13849668994E+02 -0.51205943611E+03  0.57819833211E+03  0.26314670679E+03 0.  0.
         25    1    4    4    0    0  0.67896091096E+01  0.22534127514E+02 -0.28788321322E+03  0.31476679979E+03  0.12509000000E+03 0.  0.
         25    1    4    4    0    0 -0.58465933579E+02 -0.86844585206E+01 -0.22417622289E+03  0.26343153232E+03  0.12509000000E+03 0.  0.
         25    1    3    3    0    0  0.51676324470E+02 -0.13849668994E+02 -0.77825246662E+03  0.79005484984E+03  0.12509000000E+03 0.  0.
<mgrwt>
<rscale>  2 0.45520541E+03</rscale>
<asrwt>0</asrwt>
<pdfrwt beam="1">  1       21 0.57309768E-02 0.45520541E+03</pdfrwt>
<pdfrwt beam="2">  1       21 0.19548271E+00 0.45520541E+03</pdfrwt>
<totfact> 0.27147064E+04</totfact>
</mgrwt>
</event>
<event>
 7    0  0.4831799E-002  0.4603465E+03  0.7546771E-02  0.1024681E+00
         21   -1    0    0  502  501  0.00000000000E+00  0.00000000000E+00  0.64885070371E+03  0.64885070371E+03  0.00000000000E+00 0.  1.
         21   -1    0    0  501  502 -0.00000000000E+00 -0.00000000000E+00 -0.81651653703E+02  0.81651653703E+02  0.00000000000E+00 0.  1.
      99926    2    1    2    0    0  0.00000000000E+00  0.00000000000E+00  0.56719905001E+03  0.73050235741E+03  0.46034653453E+03 0.  0.
      99925    2    3    3    0    0  0.28189429699E+02  0.39187001219E+02  0.18417797647E+03  0.32469092844E+03  0.26300647708E+03 0.  0.
         25    1    4    4    0    0  0.51413134763E+02  0.44254833165E+01  0.99433984862E+02  0.16792117429E+03  0.12509000000E+03 0.  0.
         25    1    3    3    0    0 -0.28189429699E+02 -0.39187001219E+02  0.38302107353E+03  0.40581142897E+03  0.12509000000E+03 0.  0.
         25    1    4    4    0    0 -0.23223705064E+02  0.34761517903E+02  0.84743991611E+02  0.15676975416E+03  0.12509000000E+03 0.  0.
<mgrwt>
<rscale>  2 0.46034653E+03</rscale>
<asrwt>0</asrwt>
<pdfrwt beam="1">  1       21 0.95419218E-01 0.46034653E+03</pdfrwt>
<pdfrwt beam="2">  1       21 0.12007597E-01 0.46034653E+03</pdfrwt>
<totfact> 0.49177610E+04</totfact>
</mgrwt>
</event>
<event>
 7    0  0.4831799E-002  0.4513871E+03  0.7546771E-02  0.1027309E+00
         21   -1    0    0  502  501  0.00000000000E+00  0.00000000000E+00  0.42899347939E+03  0.42899347939E+03  0.00000000000E+00 0.  1.
         21   -1    0    0  501  502 -0.00000000000E+00 -0.00000000000E+00 -0.11873739422E+03  0.11873739422E+03  0.00000000000E+00 0.  1.
      99926    2    1    2    0    0 -0.17763568394E-14 -0.17763568394E-14  0.31025608517E+03  0.54773087362E+03  0.45138705290E+03 0.  0.
      99925    2    3    3    0    0  0.13571608355E+02 -0.99689158165E+01  0.63113173194E+02  0.27022286495E+03  0.26220899350E+03 0.  0.
         25    1    4    4    0    0 -0.16636091068E+02 -0.22989833500E+02  0.58018490516E+02  0.14077977593E+03  0.12509000000E+03 0.  0.
         25    1    3    3    0    0 -0.13571608355E+02  0.99689158165E+01  0.24714291197E+03  0.27750800867E+03  0.12509000000E+03 0.  0.
         25    1    4    4    0    0  0.30207699422E+02  0.13020917684E+02  0.50946826774E+01  0.12944308901E+03  0.12509000000E+03 0.  0.
<mgrwt>
<rscale>  2 0.45138705E+03</rscale>
<asrwt>0</asrwt>
<pdfrwt beam="1">  1       21 0.63087276E-01 0.45138705E+03</pdfrwt>
<pdfrwt beam="2">  1       21 0.17461382E-01 0.45138705E+03</pdfrwt>
<totfact> 0.63821688E+04</totfact>
</mgrwt>
</event>
<event>
 7    0  0.4831799E-002  0.4526618E+03  0.7546771E-02  0.1026931E+00
         21   -1    0    0  502  501  0.00000000000E+00  0.00000000000E+00  0.18955476252E+03  0.18955476252E+03  0.00000000000E+00 0.  1.
         21   -1    0    0  501  502 -0.00000000000E+00 -0.00000000000E+00 -0.27024205693E+03  0.27024205693E+03  0.00000000000E+00 0.  1.
      99926    2    1    2    0    0 -0.71054273576E-14  0.00000000000E+00 -0.80687294413E+02  0.45979681945E+03  0.45266176743E+03 0.  0.
      99925    2    3    3    0    0  0.42698845313E+02 -0.72112076606E+02 -0.12480616299E+03  0.30289772561E+03  0.26295838240E+03 0.  0.
         25    1    4    4    0    0 -0.15808790129E+02 -0.17051661407E+02 -0.61386292391E+02  0.14126734228E+03  0.12509000000E+03 0.  0.
         25    1    3    3    0    0 -0.42698845313E+02  0.72112076606E+02  0.44118868579E+02  0.15689909384E+03  0.12509000000E+03 0.  0.
         25    1    4    4    0    0  0.58507635442E+02 -0.55060415199E+02 -0.63419870600E+02  0.16163038333E+03  0.12509000000E+03 0.  0.
<mgrwt>
<rscale>  2 0.45266177E+03</rscale>
<asrwt>0</asrwt>
<pdfrwt beam="1">  1       21 0.27875700E-01 0.45266177E+03</pdfrwt>
<pdfrwt beam="2">  1       21 0.39741479E-01 0.45266177E+03</pdfrwt>
<totfact> 0.69480618E+04</totfact>
</mgrwt>
</event>
<event>
 7    0  0.4831799E-002  0.4468032E+03  0.7546771E-02  0.1028680E+00
         21   -1    0    0  502  501  0.00000000000E+00  0.00000000000E+00  0.57832732215E+03  0.57832732215E+03  0.00000000000E+00 0. -1.
         21   -1    0    0  501  502 -0.00000000000E+00 -0.00000000000E+00 -0.86297608098E+02  0.86297608098E+02  0.00000000000E+00 0. -1.
      99926    2    1    2    0    0  0.00000000000E+00 -0.88817841970E-15  0.49202971405E+03  0.66462493025E+03  0.44680315397E+03 0.  0.
      99925    2    3    3    0    0  0.10479610620E+03  0.68535246633E+01  0.32453416085E+03  0.43067736536E+03  0.26292846328E+03 0.  0.
         25    1    3    3    0    0 -0.10479610620E+03 -0.68535246633E+01  0.16749555320E+03  0.23394756489E+03  0.12509000000E+03 0.  0.
         25    1    4    4    0    0  0.52458662866E+02 -0.60367695664E+01  0.10222340188E+03  0.16995730607E+03  0.12509000000E+03 0.  0.
         25    1    4    4    0    0  0.52337443330E+02  0.12890294230E+02  0.22231075897E+03  0.26072005929E+03  0.12509000000E+03 0.  0.
<mgrwt>
<rscale>  2 0.44680315E+03</rscale>
<asrwt>0</asrwt>
<pdfrwt beam="1">  1       21 0.85048134E-01 0.44680315E+03</pdfrwt>
<pdfrwt beam="2">  1       21 0.12690825E-01 0.44680315E+03</pdfrwt>
<totfact> 0.58558030E+04</totfact>
</mgrwt>
</event>
<event>
 7    0  0.4831799E-002  0.4504966E+03  0.7546771E-02  0.1027574E+00
         21   -1    0    0  502  501  0.00000000000E+00  0.00000000000E+00  0.80110547868E+02  0.80110547868E+02  0.00000000000E+00 0.  1.
         21   -1    0    0  501  502 -0.00000000000E+00 -0.00000000000E+00 -0.63333482462E+03  0.63333482462E+03  0.00000000000E+00 0.  1.
      99926    2    1    2    0    0 -0.35527136788E-14 -0.17763568394E-14 -0.55322427675E+03  0.71344537248E+03  0.45049661390E+03 0.  0.
      99925    2    3    3    0    0  0.26889903512E+02  0.15170599450E+02 -0.18623411958E+03  0.32449486463E+03  0.26393286245E+03 0.  0.
         25    1    3    3    0    0 -0.26889903512E+02 -0.15170599450E+02 -0.36699015717E+03  0.38895050785E+03  0.12509000000E+03 0.  0.
         25    1    4    4    0    0 -0.11391890836E+02  0.35935866448E+02 -0.69716320178E+02  0.14808455380E+03  0.12509000000E+03 0.  0.
         25    1    4    4    0    0  0.38281794348E+02 -0.20765266998E+02 -0.11651779940E+03  0.17641031083E+03  0.12509000000E+03 0.  0.
<mgrwt>
<rscale>  2 0.45049661E+03</rscale>
<asrwt>0</asrwt>
<pdfrwt beam="1">  1       21 0.11780963E-01 0.45049661E+03</pdfrwt>
<pdfrwt beam="2">  1       21 0.93137473E-01 0.45049661E+03</pdfrwt>
<totfact> 0.54069289E+04</totfact>
</mgrwt>
</event>
<event>
 7    0  0.4831799E-002  0.4554674E+03  0.7546771E-02  0.1026104E+00
         21   -1    0    0  502  501  0.00000000000E+00  0.00000000000E+00  0.15299289286E+03  0.15299289286E+03  0.00000000000E+00 0.  1.
         21   -1    0    0  501  502 -0.00000000000E+00 -0.00000000000E+00 -0.33898725939E+03  0.33898725939E+03  0.00000000000E+00 0.  1.
      99926    2    1    2    0    0  0.00000000000E+00  0.00000000000E+00 -0.18599436653E+03  0.49198015225E+03  0.45546741467E+03 0.  0.
      99925    2    3    3    0    0 -0.12539990633E+02 -0.10862909422E+03 -0.15016973964E+03  0.32201414545E+03  0.26302970876E+03 0.  0.
         25    1    3    3    0    0  0.12539990633E+02  0.10862909422E+03 -0.35824626899E+02  0.16996600680E+03  0.12509000000E+03 0.  0.
         25    1    4    4    0    0  0.25918193491E+01 -0.31439848554E+02 -0.10827975353E+03  0.16842563561E+03  0.12509000000E+03 0.  0.
         25    1    4    4    0    0 -0.15131809982E+02 -0.77189245664E+02 -0.41889986103E+02  0.15358850984E+03  0.12509000000E+03 0.  0.
<mgrwt>
<rscale>  2 0.45546741E+03</rscale>
<asrwt>0</asrwt>
<pdfrwt beam="1">  1       21 0.22498955E-01 0.45546741E+03</pdfrwt>
<pdfrwt beam="2">  1       21 0.49851068E-01 0.45546741E+03</pdfrwt>
<totfact> 0.65594094E+04</totfact>
</mgrwt>
</event>
<event>
 7    0  0.4831799E-002  0.4706143E+03  0.7546771E-02  0.1021747E+00
         21   -1    0    0  502  501  0.00000000000E+00  0.00000000000E+00  0.98524747071E+02  0.98524747071E+02  0.00000000000E+00 0. -1.
         21   -1    0    0  501  502 -0.00000000000E+00 -0.00000000000E+00 -0.56198533877E+03  0.56198533877E+03  0.00000000000E+00 0. -1.
      99926    2    1    2    0    0  0.00000000000E+00  0.00000000000E+00 -0.46346059169E+03  0.66051008584E+03  0.47061433620E+03 0.  0.
      99925    2    3    3    0    0  0.11788231349E+03 -0.18756372203E+02 -0.34952118792E+03  0.45344068403E+03  0.26305009371E+03 0.  0.
         25    1    4    4    0    0  0.36910097369E+02 -0.44167279589E+02 -0.16818271030E+03  0.21736153297E+03  0.12509000000E+03 0.  0.
         25    1    4    4    0    0  0.80972216119E+02  0.25410907386E+02 -0.18133847762E+03  0.23607915106E+03  0.12509000000E+03 0.  0.
         25    1    3    3    0    0 -0.11788231349E+03  0.18756372203E+02 -0.11393940378E+03  0.20706940181E+03  0.12509000000E+03 0.  0.
<mgrwt>
<rscale>  2 0.47061434E+03</rscale>
<asrwt>0</asrwt>
<pdfrwt beam="1">  1       21 0.14488933E-01 0.47061434E+03</pdfrwt>
<pdfrwt beam="2">  1       21 0.82644902E-01 0.47061434E+03</pdfrwt>
<totfact> 0.48805825E+04</totfact>
</mgrwt>
</event>
<event>
 7    0  0.4831799E-002  0.4365058E+03  0.7546771E-02  0.1031824E+00
         21   -1    0    0  502  501  0.00000000000E+00  0.00000000000E+00  0.66906698430E+02  0.66906698430E+02  0.00000000000E+00 0. -1.
         21   -1    0    0  501  502 -0.00000000000E+00 -0.00000000000E+00 -0.71195148862E+03  0.71195148862E+03  0.00000000000E+00 0. -1.
      99926    2    1    2    0    0  0.00000000000E+00  0.00000000000E+00 -0.64504479019E+03  0.77885818705E+03  0.43650577795E+03 0.  0.
      99925    2    3    3    0    0  0.49432131348E+02 -0.46833560898E+02 -0.53081275904E+03  0.59628386499E+03  0.26297403759E+03 0.  0.
         25    1    4    4    0    0  0.19947296130E+02 -0.60611476588E+02 -0.31203399033E+03  0.34217592689E+03  0.12509000000E+03 0.  0.
         25    1    4    4    0    0  0.29484835218E+02  0.13777915690E+02 -0.21877876871E+03  0.25410793810E+03  0.12509000000E+03 0.  0.
         25    1    3    3    0    0 -0.49432131348E+02  0.46833560898E+02 -0.11423203115E+03  0.18257432206E+03  0.12509000000E+03 0.  0.
<mgrwt>
<rscale>  2 0.43650578E+03</rscale>
<asrwt>0</asrwt>
<pdfrwt beam="1">  1       21 0.98392201E-02 0.43650578E+03</pdfrwt>
<pdfrwt beam="2">  1       21 0.10469875E+00 0.43650578E+03</pdfrwt>
<totfact> 0.56582212E+04</totfact>
</mgrwt>
</event>
<event>
 7    0  0.4831799E-002  0.4509029E+03  0.7546771E-02  0.1027453E+00
         21   -1    0    0  502  501  0.00000000000E+00  0.00000000000E+00  0.57319002815E+03  0.57319002815E+03  0.00000000000E+00 0.  1.
         21   -1    0    0  501  502 -0.00000000000E+00 -0.00000000000E+00 -0.88676267040E+02  0.88676267040E+02  0.00000000000E+00 0.  1.
      99926    2    1    2    0    0  0.00000000000E+00  0.00000000000E+00  0.48451376111E+03  0.66186629519E+03  0.45090288090E+03 0.  0.
      99925    2    3    3    0    0  0.40856644076E+02  0.93679348587E+02  0.36275495718E+03  0.45958480777E+03  0.26302462026E+03 0.  0.
         25    1    4    4    0    0  0.30375915559E+02  0.60545765406E+02  0.12820299228E+03  0.19149935061E+03  0.12509000000E+03 0.  0.
         25    1    4    4    0    0  0.10480728517E+02  0.33133583182E+02  0.23455196490E+03  0.26808545716E+03  0.12509000000E+03 0.  0.
         25    1    3    3    0    0 -0.40856644076E+02 -0.93679348587E+02  0.12175880393E+03  0.20228148742E+03  0.12509000000E+03 0.  0.
<mgrwt>
<rscale>  2 0.45090288E+03</rscale>
<asrwt>0</asrwt>
<pdfrwt beam="1">  1       21 0.84292649E-01 0.45090288E+03</pdfrwt>
<pdfrwt beam="2">  1       21 0.13040628E-01 0.45090288E+03</pdfrwt>
<totfact> 0.56836332E+04</totfact>
</mgrwt>
</event>
<event>
 7    0  0.4831799E-002  0.4567165E+03  0.7546771E-02  0.1025738E+00
         21   -1    0    0  502  501  0.00000000000E+00  0.00000000000E+00  0.39115948204E+03  0.39115948204E+03  0.00000000000E+00 0. -1.
         21   -1    0    0  501  502 -0.00000000000E+00 -0.00000000000E+00 -0.13331518670E+03  0.13331518670E+03  0.00000000000E+00 0. -1.
      99926    2    1    2    0    0  0.00000000000E+00  0.00000000000E+00  0.25784429533E+03  0.52447466874E+03  0.45671653957E+03 0.  0.
      99925    2    3    3    0    0 -0.72642244144E+02  0.83415999509E+02  0.19708290442E+03  0.34678229599E+03  0.26302312634E+03 0.  0.
         25    1    4    4    0    0 -0.61311590341E+02  0.11581426817E+02  0.83449122131E+02  0.16280204127E+03  0.12509000000E+03 0.  0.
         25    1    4    4    0    0 -0.11330653803E+02  0.71834572692E+02  0.11363378229E+03  0.18398025472E+03  0.12509000000E+03 0.  0.
         25    1    3    3    0    0  0.72642244144E+02 -0.83415999509E+02  0.60761390910E+02  0.17769237275E+03  0.12509000000E+03 0.  0.
<mgrwt>
<rscale>  2 0.45671654E+03</rscale>
<asrwt>0</asrwt>
<pdfrwt beam="1">  1       21 0.57523453E-01 0.45671654E+03</pdfrwt>
<pdfrwt beam="2">  1       21 0.19605175E-01 0.45671654E+03</pdfrwt>
<totfact> 0.62724163E+04</totfact>
</mgrwt>
</event>
<event>
 7    0  0.4831799E-002  0.4138203E+03  0.7546771E-02  0.1039097E+00
         21   -1    0    0  502  501  0.00000000000E+00  0.00000000000E+00  0.39665752393E+02  0.39665752393E+02  0.00000000000E+00 0. -1.
         21   -1    0    0  501  502 -0.00000000000E+00 -0.00000000000E+00 -0.10793139513E+04  0.10793139513E+04  0.00000000000E+00 0. -1.
      99926    2    1    2    0    0 -0.88817841970E-15  0.00000000000E+00 -0.10396481989E+04  0.11189797037E+04  0.41382025057E+03 0.  0.
      99925    2    3    3    0    0 -0.52694209982E+01 -0.22568965458E+02 -0.50894321780E+03  0.57323946322E+03  0.26276064821E+03 0.  0.
         25    1    4    4    0    0 -0.30693032116E+02  0.15077539378E+02 -0.22605166929E+03  0.26060748205E+03  0.12509000000E+03 0.  0.
         25    1    4    4    0    0  0.25423611117E+02 -0.37646504836E+02 -0.28289154851E+03  0.31263198117E+03  0.12509000000E+03 0.  0.
         25    1    3    3    0    0  0.52694209982E+01  0.22568965458E+02 -0.53070498111E+03  0.54574024048E+03  0.12509000000E+03 0.  0.
<mgrwt>
<rscale>  2 0.41382025E+03</rscale>
<asrwt>0</asrwt>
<pdfrwt beam="1">  1       21 0.58331993E-02 0.41382025E+03</pdfrwt>
<pdfrwt beam="2">  1       21 0.15872263E+00 0.41382025E+03</pdfrwt>
<totfact> 0.48684679E+04</totfact>
</mgrwt>
</event>
<event>
 7    0  0.4831799E-002  0.4465669E+03  0.7546771E-02  0.1028751E+00
         21   -1    0    0  502  501  0.00000000000E+00  0.00000000000E+00  0.29618968206E+03  0.29618968206E+03  0.00000000000E+00 0. -1.
         21   -1    0    0  501  502 -0.00000000000E+00 -0.00000000000E+00 -0.16832289202E+03  0.16832289202E+03  0.00000000000E+00 0. -1.
      99926    2    1    2    0    0  0.00000000000E+00 -0.14210854715E-13  0.12786679003E+03  0.46451257408E+03  0.44656692162E+03 0.  0.
      99925    2    3    3    0    0  0.50663916434E+02 -0.89122460960E+02  0.10497647916E+03  0.30116901005E+03  0.26300772986E+03 0.  0.
         25    1    4    4    0    0  0.22159429168E+02 -0.16224196096E+02  0.16531041664E+02  0.12913190264E+03  0.12509000000E+03 0.  0.
         25    1    4    4    0    0  0.28504487266E+02 -0.72898264864E+02  0.88445437498E+02  0.17203710742E+03  0.12509000000E+03 0.  0.
         25    1    3    3    0    0 -0.50663916434E+02  0.89122460960E+02  0.22890310873E+02  0.16334356402E+03  0.12509000000E+03 0.  0.
<mgrwt>
<rscale>  2 0.44656692E+03</rscale>
<asrwt>0</asrwt>
<pdfrwt beam="1">  1       21 0.43557306E-01 0.44656692E+03</pdfrwt>
<pdfrwt beam="2">  1       21 0.24753366E-01 0.44656692E+03</pdfrwt>
<totfact> 0.72581710E+04</totfact>
</mgrwt>
</event>
<event>
 7    0  0.4831799E-002  0.4451212E+03  0.7546771E-02  0.1029187E+00
         21   -1    0    0  502  501  0.00000000000E+00  0.00000000000E+00  0.86716282551E+02  0.86716282551E+02  0.00000000000E+00 0.  1.
         21   -1    0    0  501  502 -0.00000000000E+00 -0.00000000000E+00 -0.57121015770E+03  0.57121015770E+03  0.00000000000E+00 0.  1.
      99926    2    1    2    0    0  0.00000000000E+00  0.00000000000E+00 -0.48449387515E+03  0.65792644025E+03  0.44512120341E+03 0.  0.
      99925    2    3    3    0    0 -0.34425805140E+02 -0.81135889509E+02 -0.22700037784E+03  0.35839584435E+03  0.26296433424E+03 0.  0.
         25    1    3    3    0    0  0.34425805140E+02  0.81135889509E+02 -0.25749349730E+03  0.29953059590E+03  0.12509000000E+03 0.  0.
         25    1    4    4    0    0  0.22044660159E+01 -0.61393017874E+02 -0.15403144035E+03  0.20771893277E+03  0.12509000000E+03 0.  0.
         25    1    4    4    0    0 -0.36630271156E+02 -0.19742871635E+02 -0.72968937497E+02  0.15067691159E+03  0.12509000000E+03 0.  0.
<mgrwt>
<rscale>  2 0.44512120E+03</rscale>
<asrwt>0</asrwt>
<pdfrwt beam="1">  1       21 0.12752395E-01 0.44512120E+03</pdfrwt>
<pdfrwt beam="2">  1       21 0.84001492E-01 0.44512120E+03</pdfrwt>
<totfact> 0.59767587E+04</totfact>
</mgrwt>
</event>
<event>
 7    0  0.4831799E-002  0.4578671E+03  0.7546771E-02  0.1025402E+00
         21   -1    0    0  502  501  0.00000000000E+00  0.00000000000E+00  0.54207536160E+03  0.54207536160E+03  0.00000000000E+00 0. -1.
         21   -1    0    0  501  502 -0.00000000000E+00 -0.00000000000E+00 -0.96685027359E+02  0.96685027359E+02  0.00000000000E+00 0. -1.
      99926    2    1    2    0    0  0.00000000000E+00  0.00000000000E+00  0.44539033424E+03  0.63876038896E+03  0.45786710372E+03 0.  0.
      99925    2    3    3    0    0 -0.64775526450E+02  0.45113156915E+02  0.16124139864E+03  0.31841808539E+03  0.26298331261E+03 0.  0.
         25    1    3    3    0    0  0.64775526450E+02 -0.45113156915E+02  0.28414893560E+03  0.32034230357E+03  0.12509000000E+03 0.  0.
         25    1    4    4    0    0 -0.54723305024E+02  0.36316711613E+02  0.48168711258E+02  0.14926914115E+03  0.12509000000E+03 0.  0.
         25    1    4    4    0    0 -0.10052221426E+02  0.87964453016E+01  0.11307268738E+03  0.16914894424E+03  0.12509000000E+03 0.  0.
<mgrwt>
<rscale>  2 0.45786710E+03</rscale>
<asrwt>0</asrwt>
<pdfrwt beam="1">  1       21 0.79716964E-01 0.45786710E+03</pdfrwt>
<pdfrwt beam="2">  1       21 0.14218387E-01 0.45786710E+03</pdfrwt>
<totfact> 0.55096387E+04</totfact>
</mgrwt>
</event>
<event>
 7    0  0.4831799E-002  0.4543755E+03  0.7546771E-02  0.1026425E+00
         21   -1    0    0  502  501  0.00000000000E+00  0.00000000000E+00  0.68045389443E+02  0.68045389443E+02  0.00000000000E+00 0. -1.
         21   -1    0    0  501  502 -0.00000000000E+00 -0.00000000000E+00 -0.75852711653E+03  0.75852711653E+03  0.00000000000E+00 0. -1.
      99926    2    1    2    0    0  0.00000000000E+00  0.00000000000E+00 -0.69048172708E+03  0.82657250597E+03  0.45437549691E+03 0.  0.
      99925    2    3    3    0    0 -0.50843601104E+02 -0.77125294308E+02 -0.31734508434E+03  0.42233019615E+03  0.26290969786E+03 0.  0.
         25    1    3    3    0    0  0.50843601104E+02  0.77125294308E+02 -0.37313664274E+03  0.40424230982E+03  0.12509000000E+03 0.  0.
         25    1    4    4    0    0 -0.39712463529E+02 -0.62477327373E+02 -0.12266781386E+03  0.19019830928E+03  0.12509000000E+03 0.  0.
         25    1    4    4    0    0 -0.11131137574E+02 -0.14647966936E+02 -0.19467727048E+03  0.23213188687E+03  0.12509000000E+03 0.  0.
<mgrwt>
<rscale>  2 0.45437550E+03</rscale>
<asrwt>0</asrwt>
<pdfrwt beam="1">  1       21 0.10006675E-01 0.45437550E+03</pdfrwt>
<pdfrwt beam="2">  1       21 0.11154810E+00 0.45437550E+03</pdfrwt>
<totfact> 0.46734821E+04</totfact>
</mgrwt>
</event>
<event>
 7    0  0.4831799E-002  0.4551516E+03  0.7546771E-02  0.1026197E+00
         21   -1    0    0  502  501  0.00000000000E+00  0.00000000000E+00  0.98045944207E+03  0.98045944207E+03  0.00000000000E+00 0.  1.
         21   -1    0    0  501  502 -0.00000000000E+00 -0.00000000000E+00 -0.52822943734E+02  0.52822943734E+02  0.00000000000E+00 0.  1.
      99926    2    1    2    0    0  0.00000000000E+00  0.35527136788E-14  0.92763649833E+03  0.10332823858E+04  0.45515164041E+03 0.  0.
      99925    2    3    3    0    0 -0.92686898232E+02 -0.23110290748E+02  0.44521544261E+03  0.52583531492E+03  0.26298486921E+03 0.  0.
         25    1    4    4    0    0 -0.80779435889E+02 -0.34381675025E+02  0.26369872881E+03  0.30478179821E+03  0.12509000000E+03 0.  0.
         25    1    3    3    0    0  0.92686898232E+02  0.23110290748E+02  0.48242105572E+03  0.50744707088E+03  0.12509000000E+03 0.  0.
         25    1    4    4    0    0 -0.11907462343E+02  0.11271384277E+02  0.18151671380E+03  0.22105351671E+03  0.12509000000E+03 0.  0.
<mgrwt>
<rscale>  2 0.45515164E+03</rscale>
<asrwt>0</asrwt>
<pdfrwt beam="1">  1       21 0.14418520E+00 0.45515164E+03</pdfrwt>
<pdfrwt beam="2">  1       21 0.77680806E-02 0.45515164E+03</pdfrwt>
<totfact> 0.37852032E+04</totfact>
</mgrwt>
</event>
<event>
 7    0  0.4831799E-002  0.4518682E+03  0.7546771E-02  0.1027166E+00
         21   -1    0    0  502  501  0.00000000000E+00  0.00000000000E+00  0.23984871051E+03  0.23984871051E+03  0.00000000000E+00 0. -1.
         21   -1    0    0  501  502 -0.00000000000E+00 -0.00000000000E+00 -0.21282677385E+03  0.21282677385E+03  0.00000000000E+00 0. -1.
      99926    2    1    2    0    0  0.00000000000E+00  0.00000000000E+00  0.27021936656E+02  0.45267548436E+03  0.45186824305E+03 0.  0.
      99925    2    3    3    0    0 -0.62143382153E+02  0.76282093139E+02  0.66193998939E+02  0.28877699064E+03  0.26330542559E+03 0.  0.
         25    1    4    4    0    0 -0.19767089021E+02  0.65405309055E+02  0.63987435433E+02  0.15623857480E+03  0.12509000000E+03 0.  0.
         25    1    3    3    0    0  0.62143382153E+02 -0.76282093139E+02 -0.39172062282E+02  0.16389849372E+03  0.12509000000E+03 0.  0.
         25    1    4    4    0    0 -0.42376293131E+02  0.10876784084E+02  0.22065635061E+01  0.13253841584E+03  0.12509000000E+03 0.  0.
<mgrwt>
<rscale>  2 0.45186824E+03</rscale>
<asrwt>0</asrwt>
<pdfrwt beam="1">  1       21 0.35271869E-01 0.45186824E+03</pdfrwt>
<pdfrwt beam="2">  1       21 0.31298055E-01 0.45186824E+03</pdfrwt>
<totfact> 0.70460715E+04</totfact>
</mgrwt>
</event>
<event>
 7    0  0.4831799E-002  0.4325440E+03  0.7546771E-02  0.1033059E+00
         21   -1    0    0  502  501  0.00000000000E+00  0.00000000000E+00  0.87915228585E+03  0.87915228585E+03  0.00000000000E+00 0.  1.
         21   -1    0    0  501  502 -0.00000000000E+00 -0.00000000000E+00 -0.53203040238E+02  0.53203040238E+02  0.00000000000E+00 0.  1.
      99926    2    1    2    0    0  0.00000000000E+00  0.00000000000E+00  0.82594924561E+03  0.93235532608E+03  0.43254398361E+03 0.  0.
      99925    2    3    3    0    0 -0.88361873702E+02 -0.17453258568E+02  0.54689468289E+03  0.61355853496E+03  0.26314985215E+03 0.  0.
         25    1    3    3    0    0  0.88361873702E+02  0.17453258568E+02  0.27905456271E+03  0.31879679112E+03  0.12509000000E+03 0.  0.
         25    1    4    4    0    0 -0.62172402668E+02  0.23441099030E+02  0.32015785498E+03  0.35009063538E+03  0.12509000000E+03 0.  0.
         25    1    4    4    0    0 -0.26189471034E+02 -0.40894357598E+02  0.22673682792E+03  0.26346789958E+03  0.12509000000E+03 0.  0.
<mgrwt>
<rscale>  2 0.43254398E+03</rscale>
<asrwt>0</asrwt>
<pdfrwt beam="1">  1       21 0.12928709E+00 0.43254398E+03</pdfrwt>
<pdfrwt beam="2">  1       21 0.78239771E-02 0.43254398E+03</pdfrwt>
<totfact> 0.50101113E+04</totfact>
</mgrwt>
</event>
<event>
 7    0  0.4831799E-002  0.4511468E+03  0.7546771E-02  0.1027381E+00
         21   -1    0    0  502  501  0.00000000000E+00  0.00000000000E+00  0.46034894435E+03  0.46034894435E+03  0.00000000000E+00 0. -1.
         21   -1    0    0  501  502 -0.00000000000E+00 -0.00000000000E+00 -0.11053213158E+03  0.11053213158E+03  0.00000000000E+00 0. -1.
      99926    2    1    2    0    0 -0.14210854715E-13  0.71054273576E-14  0.34981681276E+03  0.57088107593E+03  0.45114676145E+03 0.  0.
      99925    2    3    3    0    0  0.94955554064E+02 -0.48457025963E+02  0.25192398434E+03  0.37958247539E+03  0.26315873750E+03 0.  0.
         25    1    3    3    0    0 -0.94955554064E+02  0.48457025963E+02  0.97892828425E+02  0.19129860054E+03  0.12509000000E+03 0.  0.
         25    1    4    4    0    0  0.66758653465E+02  0.61331494509E+01  0.10124399345E+03  0.17433355283E+03  0.12509000000E+03 0.  0.
         25    1    4    4    0    0  0.28196900600E+02 -0.54590175414E+02  0.15067999089E+03  0.20524892255E+03  0.12509000000E+03 0.  0.
<mgrwt>
<rscale>  2 0.45114676E+03</rscale>
<asrwt>0</asrwt>
<pdfrwt beam="1">  1       21 0.67698373E-01 0.45114676E+03</pdfrwt>
<pdfrwt beam="2">  1       21 0.16254725E-01 0.45114676E+03</pdfrwt>
<totfact> 0.62386681E+04</totfact>
</mgrwt>
</event>
<event>
 7    0  0.4831799E-002  0.4489280E+03  0.7546771E-02  0.1028042E+00
         21   -1    0    0  502  501  0.00000000000E+00  0.00000000000E+00  0.20283148588E+03  0.20283148588E+03  0.00000000000E+00 0. -1.
         21   -1    0    0  501  502 -0.00000000000E+00 -0.00000000000E+00 -0.24840373379E+03  0.24840373379E+03  0.00000000000E+00 0. -1.
      99926    2    1    2    0    0  0.00000000000E+00  0.14210854715E-13 -0.45572247914E+02  0.45123521967E+03  0.44892804957E+03 0.  0.
      99925    2    3    3    0    0 -0.23007929161E+02  0.99010355111E+02  0.56091121460E+01  0.28212148592E+03  0.26311338897E+03 0.  0.
         25    1    4    4    0    0 -0.44814298335E+02  0.68902751279E+02 -0.13274420880E+02  0.15026519497E+03  0.12509000000E+03 0.  0.
         25    1    4    4    0    0  0.21806369174E+02  0.30107603832E+02  0.18883533026E+02  0.13185629096E+03  0.12509000000E+03 0.  0.
         25    1    3    3    0    0  0.23007929161E+02 -0.99010355111E+02 -0.51181360060E+02  0.16911373374E+03  0.12509000000E+03 0.  0.
<mgrwt>
<rscale>  2 0.44892805E+03</rscale>
<asrwt>0</asrwt>
<pdfrwt beam="1">  1       21 0.29828160E-01 0.44892805E+03</pdfrwt>
<pdfrwt beam="2">  1       21 0.36529961E-01 0.44892805E+03</pdfrwt>
<totfact> 0.72260195E+04</totfact>
</mgrwt>
</event>
<event>
 7    0  0.4831799E-002  0.4578575E+03  0.7546771E-02  0.1025404E+00
         21   -1    0    0  502  501  0.00000000000E+00  0.00000000000E+00  0.35408509413E+03  0.35408509413E+03  0.00000000000E+00 0. -1.
         21   -1    0    0  501  502 -0.00000000000E+00 -0.00000000000E+00 -0.14801068185E+03  0.14801068185E+03  0.00000000000E+00 0. -1.
      99926    2    1    2    0    0  0.00000000000E+00  0.00000000000E+00  0.20607441229E+03  0.50209577598E+03  0.45785751589E+03 0.  0.
      99925    2    3    3    0    0 -0.11494219325E+03  0.14796925027E+02  0.12991247660E+03  0.31533709391E+03  0.26292503578E+03 0.  0.
         25    1    3    3    0    0  0.11494219325E+03 -0.14796925027E+02  0.76161935684E+02  0.18675868207E+03  0.12509000000E+03 0.  0.
         25    1    4    4    0    0 -0.93582057734E+02 -0.13174738115E+02  0.60783020095E+02  0.16814653992E+03  0.12509000000E+03 0.  0.
         25    1    4    4    0    0 -0.21360135516E+02  0.27971663142E+02  0.69129456506E+02  0.14719055399E+03  0.12509000000E+03 0.  0.
<mgrwt>
<rscale>  2 0.45785752E+03</rscale>
<asrwt>0</asrwt>
<pdfrwt beam="1">  1       21 0.52071337E-01 0.45785752E+03</pdfrwt>
<pdfrwt beam="2">  1       21 0.21766277E-01 0.45785752E+03</pdfrwt>
<totfact> 0.63667216E+04</totfact>
</mgrwt>
</event>
<event>
 7    0  0.4831799E-002  0.4477923E+03  0.7546771E-02  0.1028382E+00
         21   -1    0    0  502  501  0.00000000000E+00  0.00000000000E+00  0.49957482600E+02  0.49957482600E+02  0.00000000000E+00 0.  1.
         21   -1    0    0  501  502 -0.00000000000E+00 -0.00000000000E+00 -0.10034429357E+04  0.10034429357E+04  0.00000000000E+00 0.  1.
      99926    2    1    2    0    0 -0.71054273576E-14  0.00000000000E+00 -0.95348545307E+03  0.10534004183E+04  0.44779228666E+03 0.  0.
      99925    2    3    3    0    0  0.46172112393E+02  0.24050040785E+02 -0.82164759386E+03  0.86435281145E+03  0.26323135400E+03 0.  0.
         25    1    4    4    0    0  0.18043629219E+02 -0.18436950861E+02 -0.48712313940E+03  0.50358907331E+03  0.12509000000E+03 0.  0.
         25    1    4    4    0    0  0.28128483174E+02  0.42486991645E+02 -0.33452445446E+03  0.36076373814E+03  0.12509000000E+03 0.  0.
         25    1    3    3    0    0 -0.46172112393E+02 -0.24050040785E+02 -0.13183785920E+03  0.18904760682E+03  0.12509000000E+03 0.  0.
<mgrwt>
<rscale>  2 0.44779229E+03</rscale>
<asrwt>0</asrwt>
<pdfrwt beam="1">  1       21 0.73466890E-02 0.44779229E+03</pdfrwt>
<pdfrwt beam="2">  1       21 0.14756513E+00 0.44779229E+03</pdfrwt>
<totfact> 0.39318619E+04</totfact>
</mgrwt>
</event>
<event>
 7    0  0.4831799E-002  0.4528504E+03  0.7546771E-02  0.1026875E+00
         21   -1    0    0  502  501  0.00000000000E+00  0.00000000000E+00  0.11371469211E+03  0.11371469211E+03  0.00000000000E+00 0.  1.
         21   -1    0    0  501  502 -0.00000000000E+00 -0.00000000000E+00 -0.45085097830E+03  0.45085097830E+03  0.00000000000E+00 0.  1.
      99926    2    1    2    0    0  0.71054273576E-14 -0.14210854715E-13 -0.33713628619E+03  0.56456567040E+03  0.45285043969E+03 0.  0.
      99925    2    3    3    0    0  0.45856870228E+02 -0.82461645171E+02 -0.13951639586E+03  0.31236752484E+03  0.26307008646E+03 0.  0.
         25    1    4    4    0    0  0.31596233545E+02 -0.26498208814E+02 -0.26924000352E+02  0.13443543781E+03  0.12509000000E+03 0.  0.
         25    1    3    3    0    0 -0.45856870228E+02  0.82461645171E+02 -0.19761989033E+03  0.25219814557E+03  0.12509000000E+03 0.  0.
         25    1    4    4    0    0  0.14260636683E+02 -0.55963436357E+02 -0.11259239550E+03  0.17793208702E+03  0.12509000000E+03 0.  0.
<mgrwt>
<rscale>  2 0.45285044E+03</rscale>
<asrwt>0</asrwt>
<pdfrwt beam="1">  1       21 0.16722749E-01 0.45285044E+03</pdfrwt>
<pdfrwt beam="2">  1       21 0.66301614E-01 0.45285044E+03</pdfrwt>
<totfact> 0.61960815E+04</totfact>
</mgrwt>
</event>
<event>
 7    0  0.4831799E-002  0.4557695E+03  0.7546771E-02  0.1026015E+00
         21   -1    0    0  502  501  0.00000000000E+00  0.00000000000E+00  0.22830673611E+02  0.22830673611E+02  0.00000000000E+00 0. -1.
         21   -1    0    0  501  502 -0.00000000000E+00 -0.00000000000E+00 -0.22746355083E+04  0.22746355083E+04  0.00000000000E+00 0. -1.
      99926    2    1    2    0    0  0.14210854715E-13  0.17763568394E-14 -0.22518048347E+04  0.22974661820E+04  0.45576950699E+03 0.  0.
      99925    2    3    3    0    0 -0.11316490089E+03  0.85425137656E+01 -0.14611289834E+04  0.14889520638E+04  0.26306096769E+03 0.  0.
         25    1    3    3    0    0  0.11316490089E+03 -0.85425137656E+01 -0.79067585133E+03  0.80851411819E+03  0.12509000000E+03 0.  0.
         25    1    4    4    0    0 -0.56436925153E+02  0.43220080726E+02 -0.67537553387E+03  0.69053075366E+03  0.12509000000E+03 0.  0.
         25    1    4    4    0    0 -0.56727975733E+02 -0.34677566961E+02 -0.78575344953E+03  0.79842131011E+03  0.12509000000E+03 0.  0.
<mgrwt>
<rscale>  2 0.45576951E+03</rscale>
<asrwt>0</asrwt>
<pdfrwt beam="1">  1       21 0.33574514E-02 0.45576951E+03</pdfrwt>
<pdfrwt beam="2">  1       21 0.33450529E+00 0.45576951E+03</pdfrwt>
<totfact> 0.93764789E+03</totfact>
</mgrwt>
</event>
<event>
 7    0  0.4831799E-002  0.4554034E+03  0.7546771E-02  0.1026123E+00
         21   -1    0    0  502  501  0.00000000000E+00  0.00000000000E+00  0.13811358659E+04  0.13811358659E+04  0.00000000000E+00 0. -1.
         21   -1    0    0  501  502 -0.00000000000E+00 -0.00000000000E+00 -0.37540161336E+02  0.37540161336E+02  0.00000000000E+00 0. -1.
      99926    2    1    2    0    0  0.00000000000E+00  0.00000000000E+00  0.13435957045E+04  0.14186760272E+04  0.45540339582E+03 0.  0.
      99925    2    3    3    0    0  0.42601328921E+02  0.93757575927E+02  0.69517525785E+03  0.75031838339E+03  0.26287579017E+03 0.  0.
         25    1    4    4    0    0  0.15167502683E+02  0.58108866429E+02  0.45647426866E+03  0.47709847992E+03  0.12509000000E+03 0.  0.
         25    1    3    3    0    0 -0.42601328921E+02 -0.93757575927E+02  0.64842044669E+03  0.66835764382E+03  0.12509000000E+03 0.  0.
         25    1    4    4    0    0  0.27433826238E+02  0.35648709498E+02  0.23870098919E+03  0.27321990347E+03  0.12509000000E+03 0.  0.
<mgrwt>
<rscale>  2 0.45540340E+03</rscale>
<asrwt>0</asrwt>
<pdfrwt beam="1">  1       21 0.20310818E+00 0.45540340E+03</pdfrwt>
<pdfrwt beam="2">  1       21 0.55206129E-02 0.45540340E+03</pdfrwt>
<totfact> 0.25757725E+04</totfact>
</mgrwt>
</event>
<event>
 7    0  0.4831799E-002  0.4522841E+03  0.7546771E-02  0.1027043E+00
         21   -1    0    0  502  501  0.00000000000E+00  0.00000000000E+00  0.70035364898E+02  0.70035364898E+02  0.00000000000E+00 0. -1.
         21   -1    0    0  501  502 -0.00000000000E+00 -0.00000000000E+00 -0.73020580387E+03  0.73020580387E+03  0.00000000000E+00 0. -1.
      99926    2    1    2    0    0  0.00000000000E+00  0.00000000000E+00 -0.66017043897E+03  0.80024116877E+03  0.45228411391E+03 0.  0.
      99925    2    3    3    0    0 -0.10109995736E+03 -0.44913077270E+02 -0.41810248626E+03  0.50616160859E+03  0.26296672622E+03 0.  0.
         25    1    4    4    0    0 -0.62763283009E+02  0.20719880275E+01 -0.15681221399E+03  0.21019300984E+03  0.12509000000E+03 0.  0.
         25    1    4    4    0    0 -0.38336674347E+02 -0.46985065297E+02 -0.26129027227E+03  0.29596859875E+03  0.12509000000E+03 0.  0.
         25    1    3    3    0    0  0.10109995736E+03  0.44913077270E+02 -0.24206795271E+03  0.29407956018E+03  0.12509000000E+03 0.  0.
<mgrwt>
<rscale>  2 0.45228411E+03</rscale>
<asrwt>0</asrwt>
<pdfrwt beam="1">  1       21 0.10299319E-01 0.45228411E+03</pdfrwt>
<pdfrwt beam="2">  1       21 0.10738320E+00 0.45228411E+03</pdfrwt>
<totfact> 0.48784648E+04</totfact>
</mgrwt>
</event>
<event>
 7    0  0.4831799E-002  0.4550538E+03  0.7546771E-02  0.1026226E+00
         21   -1    0    0  502  501  0.00000000000E+00  0.00000000000E+00  0.13526840686E+04  0.13526840686E+04  0.00000000000E+00 0.  1.
         21   -1    0    0  501  502 -0.00000000000E+00 -0.00000000000E+00 -0.38270933374E+02  0.38270933374E+02  0.00000000000E+00 0.  1.
      99926    2    1    2    0    0  0.00000000000E+00  0.14210854715E-13  0.13144131353E+04  0.13909550020E+04  0.45505376327E+03 0.  0.
      99925    2    3    3    0    0  0.34448665038E+02  0.10681447436E+03  0.87683909986E+03  0.92221777603E+03  0.26275992262E+03 0.  0.
         25    1    4    4    0    0  0.60671746880E+01  0.82320717285E+02  0.55539837955E+03  0.57526374752E+03  0.12509000000E+03 0.  0.
         25    1    4    4    0    0  0.28381490350E+02  0.24493757079E+02  0.32144072030E+03  0.34695402851E+03  0.12509000000E+03 0.  0.
         25    1    3    3    0    0 -0.34448665038E+02 -0.10681447436E+03  0.43757403540E+03  0.46873722597E+03  0.12509000000E+03 0.  0.
<mgrwt>
<rscale>  2 0.45505376E+03</rscale>
<asrwt>0</asrwt>
<pdfrwt beam="1">  1       21 0.19892410E+00 0.45505376E+03</pdfrwt>
<pdfrwt beam="2">  1       21 0.56280793E-02 0.45505376E+03</pdfrwt>
<totfact> 0.26562937E+04</totfact>
</mgrwt>
</event>
<event>
 7    0  0.4831799E-002  0.4869157E+03  0.7546771E-02  0.1017252E+00
         21   -1    0    0  502  501  0.00000000000E+00  0.00000000000E+00  0.14551119267E+04  0.14551119267E+04  0.00000000000E+00 0. -1.
         21   -1    0    0  501  502 -0.00000000000E+00 -0.00000000000E+00 -0.40733454508E+02  0.40733454508E+02  0.00000000000E+00 0. -1.
      99926    2    1    2    0    0  0.00000000000E+00  0.00000000000E+00  0.14143784722E+04  0.14958453812E+04  0.48691574413E+03 0.  0.
      99925    2    3    3    0    0  0.10458167736E+02 -0.77833365862E+02  0.50652393442E+03  0.57605476593E+03  0.26287866229E+03 0.  0.
         25    1    3    3    0    0 -0.10458167736E+02  0.77833365862E+02  0.90785453777E+03  0.91979061528E+03  0.12509000000E+03 0.  0.
         25    1    4    4    0    0  0.54468355410E+01 -0.13759743322E+02  0.30802995042E+03  0.33278965881E+03  0.12509000000E+03 0.  0.
         25    1    4    4    0    0  0.50113321954E+01 -0.64073622539E+02  0.19849398400E+03  0.24326510711E+03  0.12509000000E+03 0.  0.
<mgrwt>
<rscale>  2 0.48691574E+03</rscale>
<asrwt>0</asrwt>
<pdfrwt beam="1">  1       21 0.21398701E+00 0.48691574E+03</pdfrwt>
<pdfrwt beam="2">  1       21 0.59902149E-02 0.48691574E+03</pdfrwt>
<totfact> 0.18776944E+04</totfact>
</mgrwt>
</event>
<event>
 7    0  0.4831799E-002  0.4541694E+03  0.7546771E-02  0.1026486E+00
         21   -1    0    0  502  501  0.00000000000E+00  0.00000000000E+00  0.83063468065E+03  0.83063468065E+03  0.00000000000E+00 0. -1.
         21   -1    0    0  501  502 -0.00000000000E+00 -0.00000000000E+00 -0.62082005802E+02  0.62082005802E+02  0.00000000000E+00 0. -1.
      99926    2    1    2    0    0  0.00000000000E+00  0.71054273576E-14  0.76855267485E+03  0.89271668646E+03  0.45416942682E+03 0.  0.
      99925    2    3    3    0    0  0.36051372898E+02  0.47300840580E+02  0.67141142244E+03  0.72353925880E+03  0.26301842110E+03 0.  0.
         25    1    3    3    0    0 -0.36051372898E+02 -0.47300840580E+02  0.97141252412E+02  0.16917742765E+03  0.12509000000E+03 0.  0.
         25    1    4    4    0    0  0.21042780851E+02 -0.16518344842E+02  0.29693395542E+03  0.32331553678E+03  0.12509000000E+03 0.  0.
         25    1    4    4    0    0  0.15008592048E+02  0.63819185422E+02  0.37447746702E+03  0.40022372202E+03  0.12509000000E+03 0.  0.
<mgrwt>
<rscale>  2 0.45416943E+03</rscale>
<asrwt>0</asrwt>
<pdfrwt beam="1">  1       21 0.12215215E+00 0.45416943E+03</pdfrwt>
<pdfrwt beam="2">  1       21 0.91297072E-02 0.45416943E+03</pdfrwt>
<totfact> 0.43834479E+04</totfact>
</mgrwt>
</event>
<event>
 7    0  0.4831799E-002  0.4536791E+03  0.7546771E-02  0.1026631E+00
         21   -1    0    0  502  501  0.00000000000E+00  0.00000000000E+00  0.57991437041E+02  0.57991437041E+02  0.00000000000E+00 0.  1.
         21   -1    0    0  501  502 -0.00000000000E+00 -0.00000000000E+00 -0.88730670692E+03  0.88730670692E+03  0.00000000000E+00 0.  1.
      99926    2    1    2    0    0  0.00000000000E+00  0.00000000000E+00 -0.82931526988E+03  0.94529814396E+03  0.45367914226E+03 0.  0.
      99925    2    3    3    0    0  0.77529108254E+02  0.69679758475E+02 -0.43609709597E+03  0.51969965740E+03  0.26275658969E+03 0.  0.
         25    1    3    3    0    0 -0.77529108254E+02 -0.69679758475E+02 -0.39321817391E+03  0.42559848656E+03  0.12509000000E+03 0.  0.
         25    1    4    4    0    0  0.74001539740E+02  0.19162463263E+02 -0.20381668391E+03  0.25106209714E+03  0.12509000000E+03 0.  0.
         25    1    4    4    0    0  0.35275685135E+01  0.50517295212E+02 -0.23228041206E+03  0.26863756026E+03  0.12509000000E+03 0.  0.
<mgrwt>
<rscale>  2 0.45367914E+03</rscale>
<asrwt>0</asrwt>
<pdfrwt beam="1">  1       21 0.85281532E-02 0.45367914E+03</pdfrwt>
<pdfrwt beam="2">  1       21 0.13048627E+00 0.45367914E+03</pdfrwt>
<totfact> 0.41761485E+04</totfact>
</mgrwt>
</event>
<event>
 7    0  0.4831799E-002  0.4597708E+03  0.7546771E-02  0.1024848E+00
         21   -1    0    0  502  501  0.00000000000E+00  0.00000000000E+00  0.56643645208E+03  0.56643645208E+03  0.00000000000E+00 0. -1.
         21   -1    0    0  501  502 -0.00000000000E+00 -0.00000000000E+00 -0.93297853243E+02  0.93297853243E+02  0.00000000000E+00 0. -1.
      99926    2    1    2    0    0 -0.71054273576E-14  0.00000000000E+00  0.47313859884E+03  0.65973430533E+03  0.45977083412E+03 0.  0.
      99925    2    3    3    0    0 -0.58362102549E+02 -0.41074263637E+02  0.16230456634E+03  0.31715798681E+03  0.26296993402E+03 0.  0.
         25    1    4    4    0    0 -0.22499130522E+02 -0.37210970578E+02  0.39519476817E+02  0.13820334422E+03  0.12509000000E+03 0.  0.
         25    1    3    3    0    0  0.58362102549E+02  0.41074263637E+02  0.31083403250E+03  0.34257631851E+03  0.12509000000E+03 0.  0.
         25    1    4    4    0    0 -0.35862972027E+02 -0.38632930590E+01  0.12278508952E+03  0.17895464259E+03  0.12509000000E+03 0.  0.
<mgrwt>
<rscale>  2 0.45977083E+03</rscale>
<asrwt>0</asrwt>
<pdfrwt beam="1">  1       21 0.83299477E-01 0.45977083E+03</pdfrwt>
<pdfrwt beam="2">  1       21 0.13720273E-01 0.45977083E+03</pdfrwt>
<totfact> 0.53116987E+04</totfact>
</mgrwt>
</event>
<event>
 7    0  0.4831799E-002  0.4553924E+03  0.7546771E-02  0.1026126E+00
         21   -1    0    0  502  501  0.00000000000E+00  0.00000000000E+00  0.13774160397E+04  0.13774160397E+04  0.00000000000E+00 0.  1.
         21   -1    0    0  501  502 -0.00000000000E+00 -0.00000000000E+00 -0.37639729226E+02  0.37639729226E+02  0.00000000000E+00 0.  1.
      99926    2    1    2    0    0  0.00000000000E+00  0.00000000000E+00  0.13397763105E+04  0.14150557689E+04  0.45539243194E+03 0.  0.
      99925    2    3    3    0    0  0.82879455568E+02 -0.76954421676E+02  0.86777952913E+03  0.91383779551E+03  0.26318666031E+03 0.  0.
         25    1    3    3    0    0 -0.82879455568E+02  0.76954421676E+02  0.47199678137E+03  0.50121797343E+03  0.12509000000E+03 0.  0.
         25    1    4    4    0    0  0.55855185005E+02 -0.14038084002E+02  0.33254290477E+03  0.35992938350E+03  0.12509000000E+03 0.  0.
         25    1    4    4    0    0  0.27024270563E+02 -0.62916337674E+02  0.53523662436E+03  0.55390841201E+03  0.12509000000E+03 0.  0.
<mgrwt>
<rscale>  2 0.45539243E+03</rscale>
<asrwt>0</asrwt>
<pdfrwt beam="1">  1       21 0.20256115E+00 0.45539243E+03</pdfrwt>
<pdfrwt beam="2">  1       21 0.55352552E-02 0.45539243E+03</pdfrwt>
<totfact> 0.25854622E+04</totfact>
</mgrwt>
</event>
<event>
 7    0  0.4831799E-002  0.4554353E+03  0.7546771E-02  0.1026113E+00
         21   -1    0    0  502  501  0.00000000000E+00  0.00000000000E+00  0.16033509747E+04  0.16033509747E+04  0.00000000000E+00 0.  1.
         21   -1    0    0  501  502 -0.00000000000E+00 -0.00000000000E+00 -0.32341841894E+02  0.32341841894E+02  0.00000000000E+00 0.  1.
      99926    2    1    2    0    0  0.00000000000E+00  0.44408920985E-15  0.15710091328E+04  0.16356928166E+04  0.45543528069E+03 0.  0.
      99925    2    3    3    0    0  0.86029494650E+02 -0.38380988184E+01  0.12538416348E+04  0.12840416615E+04  0.26311278664E+03 0.  0.
         25    1    4    4    0    0  0.21146774968E+02  0.27921959716E+01  0.75693413993E+03  0.76749708973E+03  0.12509000000E+03 0.  0.
         25    1    3    3    0    0 -0.86029494650E+02  0.38380988184E+01  0.31716749804E+03  0.35165115508E+03  0.12509000000E+03 0.  0.
         25    1    4    4    0    0  0.64882719682E+02 -0.66302947900E+01  0.49690749484E+03  0.51654457179E+03  0.12509000000E+03 0.  0.
<mgrwt>
<rscale>  2 0.45543528E+03</rscale>
<asrwt>0</asrwt>
<pdfrwt beam="1">  1       21 0.23578685E+00 0.45543528E+03</pdfrwt>
<pdfrwt beam="2">  1       21 0.47561543E-02 0.45543528E+03</pdfrwt>
<totfact> 0.20565500E+04</totfact>
</mgrwt>
</event>
<event>
 7    0  0.4831799E-002  0.4562910E+03  0.7546771E-02  0.1025862E+00
         21   -1    0    0  502  501  0.00000000000E+00  0.00000000000E+00  0.50707005428E+03  0.50707005428E+03  0.00000000000E+00 0. -1.
         21   -1    0    0  501  502 -0.00000000000E+00 -0.00000000000E+00 -0.10264926855E+03  0.10264926855E+03  0.00000000000E+00 0. -1.
      99926    2    1    2    0    0  0.00000000000E+00  0.00000000000E+00  0.40442078573E+03  0.60971932284E+03  0.45629100442E+03 0.  0.
      99925    2    3    3    0    0 -0.22977794689E+02 -0.94062666291E+02  0.17248015035E+03  0.32897080427E+03  0.26286236619E+03 0.  0.
         25    1    4    4    0    0 -0.92619164311E-01 -0.39254097071E+02  0.12875711270E+03  0.18375743491E+03  0.12509000000E+03 0.  0.
         25    1    3    3    0    0  0.22977794689E+02  0.94062666291E+02  0.23194063538E+03  0.28074851857E+03  0.12509000000E+03 0.  0.
         25    1    4    4    0    0 -0.22885175525E+02 -0.54808569220E+02  0.43723037655E+02  0.14521336936E+03  0.12509000000E+03 0.  0.
<mgrwt>
<rscale>  2 0.45629100E+03</rscale>
<asrwt>0</asrwt>
<pdfrwt beam="1">  1       21 0.74569125E-01 0.45629100E+03</pdfrwt>
<pdfrwt beam="2">  1       21 0.15095481E-01 0.45629100E+03</pdfrwt>
<totfact> 0.57495405E+04</totfact>
</mgrwt>
</event>
<event>
 7    0  0.4831799E-002  0.4598718E+03  0.7546771E-02  0.1024818E+00
         21   -1    0    0  502  501  0.00000000000E+00  0.00000000000E+00  0.49798495552E+03  0.49798495552E+03  0.00000000000E+00 0.  1.
         21   -1    0    0  501  502 -0.00000000000E+00 -0.00000000000E+00 -0.10616888769E+03  0.10616888769E+03  0.00000000000E+00 0.  1.
      99926    2    1    2    0    0  0.00000000000E+00  0.00000000000E+00  0.39181606782E+03  0.60415384321E+03  0.45987175958E+03 0.  0.
      99925    2    3    3    0    0  0.10788098821E+03  0.46475710811E+02  0.25504174519E+03  0.38471587306E+03  0.26298614389E+03 0.  0.
         25    1    4    4    0    0  0.74421333565E+02 -0.79736033758E+01  0.15123515707E+03  0.21005164620E+03  0.12509000000E+03 0.  0.
         25    1    3    3    0    0 -0.10788098821E+03 -0.46475710811E+02  0.13677432263E+03  0.21943797015E+03  0.12509000000E+03 0.  0.
         25    1    4    4    0    0  0.33459654642E+02  0.54449314186E+02  0.10380658812E+03  0.17466422685E+03  0.12509000000E+03 0.  0.
<mgrwt>
<rscale>  2 0.45987176E+03</rscale>
<asrwt>0</asrwt>
<pdfrwt beam="1">  1       21 0.73233081E-01 0.45987176E+03</pdfrwt>
<pdfrwt beam="2">  1       21 0.15613072E-01 0.45987176E+03</pdfrwt>
<totfact> 0.56227695E+04</totfact>
</mgrwt>
</event>
<event>
 7    0  0.4831799E-002  0.4509444E+03  0.7546771E-02  0.1027441E+00
         21   -1    0    0  502  501  0.00000000000E+00  0.00000000000E+00  0.35858390050E+03  0.35858390050E+03  0.00000000000E+00 0. -1.
         21   -1    0    0  501  502 -0.00000000000E+00 -0.00000000000E+00 -0.14177354182E+03  0.14177354182E+03  0.00000000000E+00 0. -1.
      99926    2    1    2    0    0  0.00000000000E+00  0.00000000000E+00  0.21681035868E+03  0.50035744232E+03  0.45094438510E+03 0.  0.
      99925    2    3    3    0    0 -0.33301011273E+02 -0.56260642710E+02  0.40031783212E+02  0.27414429037E+03  0.26320777155E+03 0.  0.
         25    1    4    4    0    0 -0.48974140900E+02 -0.45616520965E+02  0.14532324162E+01  0.14187654297E+03  0.12509000000E+03 0.  0.
         25    1    4    4    0    0  0.15673129626E+02 -0.10644121745E+02  0.38578550796E+02  0.13226774740E+03  0.12509000000E+03 0.  0.
         25    1    3    3    0    0  0.33301011273E+02  0.56260642710E+02  0.17677857547E+03  0.22621315195E+03  0.12509000000E+03 0.  0.
<mgrwt>
<rscale>  2 0.45094439E+03</rscale>
<asrwt>0</asrwt>
<pdfrwt beam="1">  1       21 0.52732926E-01 0.45094439E+03</pdfrwt>
<pdfrwt beam="2">  1       21 0.20849050E-01 0.45094439E+03</pdfrwt>
<totfact> 0.67388963E+04</totfact>
</mgrwt>
</event>
<event>
 7    0  0.4831799E-002  0.4312030E+03  0.7546771E-02  0.1033481E+00
         21   -1    0    0  502  501  0.00000000000E+00  0.00000000000E+00  0.22015968684E+03  0.22015968684E+03  0.00000000000E+00 0. -1.
         21   -1    0    0  501  502 -0.00000000000E+00 -0.00000000000E+00 -0.21113769907E+03  0.21113769907E+03  0.00000000000E+00 0. -1.
      99926    2    1    2    0    0  0.35527136788E-14  0.00000000000E+00  0.90219877683E+01  0.43129738591E+03  0.43120301348E+03 0.  0.
      99925    2    3    3    0    0  0.18625474792E+02  0.75327612376E+02 -0.37903164204E+02  0.27679613839E+03  0.26297964726E+03 0.  0.
         25    1    4    4    0    0  0.36454473035E+02  0.64246910603E+02 -0.37180460263E+02  0.14995495608E+03  0.12509000000E+03 0.  0.
         25    1    3    3    0    0 -0.18625474792E+02 -0.75327612376E+02  0.46925151972E+02  0.15450124752E+03  0.12509000000E+03 0.  0.
         25    1    4    4    0    0 -0.17828998243E+02  0.11080701773E+02 -0.72270394088E+00  0.12684118232E+03  0.12509000000E+03 0.  0.
<mgrwt>
<rscale>  2 0.43120301E+03</rscale>
<asrwt>0</asrwt>
<pdfrwt beam="1">  1       21 0.32376425E-01 0.43120301E+03</pdfrwt>
<pdfrwt beam="2">  1       21 0.31049662E-01 0.43120301E+03</pdfrwt>
<totfact> 0.85421600E+04</totfact>
</mgrwt>
</event>
<event>
 7    0  0.4831799E-002  0.4516853E+03  0.7546771E-02  0.1027221E+00
         21   -1    0    0  502  501  0.00000000000E+00  0.00000000000E+00  0.13656996946E+03  0.13656996946E+03  0.00000000000E+00 0.  1.
         21   -1    0    0  501  502 -0.00000000000E+00 -0.00000000000E+00 -0.37347081577E+03  0.37347081577E+03  0.00000000000E+00 0.  1.
      99926    2    1    2    0    0  0.00000000000E+00  0.00000000000E+00 -0.23690084631E+03  0.51004078522E+03  0.45168527938E+03 0.  0.
      99925    2    3    3    0    0  0.54143406059E+02  0.95056105429E+02 -0.13599211726E+03  0.31562563330E+03  0.26298006168E+03 0.  0.
         25    1    3    3    0    0 -0.54143406059E+02 -0.95056105429E+02 -0.10090872905E+03  0.19441515192E+03  0.12509000000E+03 0.  0.
         25    1    4    4    0    0  0.29040331845E+02  0.35588899728E+02 -0.23229592204E+02  0.13526652473E+03  0.12509000000E+03 0.  0.
         25    1    4    4    0    0  0.25103074214E+02  0.59467205701E+02 -0.11276252506E+03  0.18035910858E+03  0.12509000000E+03 0.  0.
<mgrwt>
<rscale>  2 0.45168528E+03</rscale>
<asrwt>0</asrwt>
<pdfrwt beam="1">  1       21 0.20083819E-01 0.45168528E+03</pdfrwt>
<pdfrwt beam="2">  1       21 0.54922178E-01 0.45168528E+03</pdfrwt>
<totfact> 0.66297744E+04</totfact>
</mgrwt>
</event>
<event>
 7    0  0.4831799E-002  0.4525645E+03  0.7546771E-02  0.1026960E+00
         21   -1    0    0  502  501  0.00000000000E+00  0.00000000000E+00  0.13661724389E+03  0.13661724389E+03  0.00000000000E+00 0.  1.
         21   -1    0    0  501  502 -0.00000000000E+00 -0.00000000000E+00 -0.37479639745E+03  0.37479639745E+03  0.00000000000E+00 0.  1.
      99926    2    1    2    0    0  0.71054273576E-14  0.00000000000E+00 -0.23817915356E+03  0.51141364134E+03  0.45256447426E+03 0.  0.
      99925    2    3    3    0    0  0.40117699278E+02 -0.10321612478E+03 -0.15785976807E+03  0.32604452310E+03  0.26291125206E+03 0.  0.
         25    1    3    3    0    0 -0.40117699278E+02  0.10321612478E+03 -0.80319385499E+02  0.18536911824E+03  0.12509000000E+03 0.  0.
         25    1    4    4    0    0  0.58815842877E+02 -0.49649081131E+02 -0.67574167833E+02  0.16167285143E+03  0.12509000000E+03 0.  0.
         25    1    4    4    0    0 -0.18698143599E+02 -0.53567043654E+02 -0.90285600233E+02  0.16437167167E+03  0.12509000000E+03 0.  0.
<mgrwt>
<rscale>  2 0.45256447E+03</rscale>
<asrwt>0</asrwt>
<pdfrwt beam="1">  1       21 0.20090771E-01 0.45256447E+03</pdfrwt>
<pdfrwt beam="2">  1       21 0.55117118E-01 0.45256447E+03</pdfrwt>
<totfact> 0.65737405E+04</totfact>
</mgrwt>
</event>
<event>
 6    0  0.4831799E-002  0.4533382E+03  0.7546771E-02  0.1026731E+00
         21   -1    0    0  502  501  0.00000000000E+00  0.00000000000E+00  0.11586807718E+03  0.11586807718E+03  0.00000000000E+00 0. -1.
         21   -1    0    0  501  502 -0.00000000000E+00 -0.00000000000E+00 -0.44342566420E+03  0.44342566420E+03  0.00000000000E+00 0. -1.
      99926    2    1    2    0    0 -0.35527136788E-14  0.14210854715E-13 -0.32755758702E+03  0.55929374137E+03  0.45333819200E+03 0.  0.
         25    1    3    3    0    0 -0.26423922580E+02  0.72531837775E+02 -0.15716661361E+03  0.21519280590E+03  0.12509000000E+03 0.  0.
         25    1    3    3    0    0  0.13406076699E+02 -0.10986003129E+03 -0.83359074541E+02  0.18666867111E+03  0.12509000000E+03 0.  0.
         25    1    3    3    0    0  0.13017845881E+02  0.37328193514E+02 -0.87031898866E+02  0.15743226436E+03  0.12509000000E+03 0.  0.
<mgrwt>
<rscale>  2 0.45333819E+03</rscale>
<asrwt>0</asrwt>
<pdfrwt beam="1">  1       21 0.17039423E-01 0.45333819E+03</pdfrwt>
<pdfrwt beam="2">  1       21 0.65209658E-01 0.45333819E+03</pdfrwt>
<totfact> 0.62068388E+04</totfact>
</mgrwt>
</event>
<event>
 7    0  0.4831799E-002  0.4520696E+03  0.7546771E-02  0.1027107E+00
         21   -1    0    0  502  501  0.00000000000E+00  0.00000000000E+00  0.19468134911E+03  0.19468134911E+03  0.00000000000E+00 0.  1.
         21   -1    0    0  501  502 -0.00000000000E+00 -0.00000000000E+00 -0.26243772520E+03  0.26243772520E+03  0.00000000000E+00 0.  1.
      99926    2    1    2    0    0  0.14210854715E-13  0.00000000000E+00 -0.67756376089E+02  0.45711907430E+03  0.45206959817E+03 0.  0.
      99925    2    3    3    0    0  0.75835861185E+02 -0.79238398179E+02 -0.54921155777E+02  0.29025969468E+03  0.26306758716E+03 0.  0.
         25    1    4    4    0    0  0.35594325594E+02 -0.29562042975E+02  0.13404556162E+02  0.13404499478E+03  0.12509000000E+03 0.  0.
         25    1    3    3    0    0 -0.75835861185E+02  0.79238398179E+02 -0.12835220312E+02  0.16685937962E+03  0.12509000000E+03 0.  0.
         25    1    4    4    0    0  0.40241535591E+02 -0.49676355204E+02 -0.68325711939E+02  0.15621469990E+03  0.12509000000E+03 0.  0.
<mgrwt>
<rscale>  2 0.45206960E+03</rscale>
<asrwt>0</asrwt>
<pdfrwt beam="1">  1       21 0.28629610E-01 0.45206960E+03</pdfrwt>
<pdfrwt beam="2">  1       21 0.38593783E-01 0.45206960E+03</pdfrwt>
<totfact> 0.70012911E+04</totfact>
</mgrwt>
</event>
<event>
 7    0  0.4831799E-002  0.4402318E+03  0.7546771E-02  0.1030676E+00
         21   -1    0    0  502  501  0.00000000000E+00  0.00000000000E+00  0.52466635411E+03  0.52466635411E+03  0.00000000000E+00 0. -1.
         21   -1    0    0  501  502 -0.00000000000E+00 -0.00000000000E+00 -0.92346318918E+02  0.92346318918E+02  0.00000000000E+00 0. -1.
      99926    2    1    2    0    0  0.71054273576E-14  0.71054273576E-14  0.43232003520E+03  0.61701267303E+03  0.44023178651E+03 0.  0.
      99925    2    3    3    0    0 -0.38068561839E+02  0.43478973315E+02  0.38802532803E+03  0.47227440683E+03  0.26294452576E+03 0.  0.
         25    1    3    3    0    0  0.38068561839E+02 -0.43478973315E+02  0.44294707164E+02  0.14473826620E+03  0.12509000000E+03 0.  0.
         25    1    4    4    0    0 -0.41964614392E+02  0.18974132792E+02  0.13954929862E+03  0.19298331903E+03  0.12509000000E+03 0.  0.
         25    1    4    4    0    0  0.38960525531E+01  0.24504840523E+02  0.24847602941E+03  0.27929108780E+03  0.12509000000E+03 0.  0.
<mgrwt>
<rscale>  2 0.44023179E+03</rscale>
<asrwt>0</asrwt>
<pdfrwt beam="1">  1       21 0.77156816E-01 0.44023179E+03</pdfrwt>
<pdfrwt beam="2">  1       21 0.13580341E-01 0.44023179E+03</pdfrwt>
<totfact> 0.64885236E+04</totfact>
</mgrwt>
</event>
<event>
 7    0  0.4831799E-002  0.4788918E+03  0.7546771E-02  0.1019440E+00
         21   -1    0    0  502  501  0.00000000000E+00  0.00000000000E+00  0.49204333723E+02  0.49204333723E+02  0.00000000000E+00 0. -1.
         21   -1    0    0  501  502 -0.00000000000E+00 -0.00000000000E+00 -0.11652294889E+04  0.11652294889E+04  0.00000000000E+00 0. -1.
      99926    2    1    2    0    0  0.00000000000E+00  0.00000000000E+00 -0.11160251552E+04  0.12144338226E+04  0.47889180672E+03 0.  0.
      99925    2    3    3    0    0 -0.32815897476E+02  0.12928289568E+03 -0.73069951063E+03  0.78791968371E+03  0.26287773376E+03 0.  0.
         25    1    3    3    0    0  0.32815897476E+02 -0.12928289568E+03 -0.38532564455E+03  0.42651413891E+03  0.12509000000E+03 0.  0.
         25    1    4    4    0    0 -0.17978334932E+02  0.10929965388E+03 -0.42696362653E+03  0.45849218242E+03  0.12509000000E+03 0.  0.
         25    1    4    4    0    0 -0.14837562545E+02  0.19983241796E+02 -0.30373588410E+03  0.32942750129E+03  0.12509000000E+03 0.  0.
<mgrwt>
<rscale>  2 0.47889181E+03</rscale>
<asrwt>0</asrwt>
<pdfrwt beam="1">  1       21 0.72359315E-02 0.47889181E+03</pdfrwt>
<pdfrwt beam="2">  1       21 0.17135728E+00 0.47889181E+03</pdfrwt>
<totfact> 0.26429939E+04</totfact>
</mgrwt>
</event>
<event>
 7    0  0.4831799E-002  0.4302181E+03  0.7546771E-02  0.1033791E+00
         21   -1    0    0  502  501  0.00000000000E+00  0.00000000000E+00  0.44082918250E+03  0.44082918250E+03  0.00000000000E+00 0. -1.
         21   -1    0    0  501  502 -0.00000000000E+00 -0.00000000000E+00 -0.10496563141E+03  0.10496563141E+03  0.00000000000E+00 0. -1.
      99926    2    1    2    0    0  0.35527136788E-14  0.00000000000E+00  0.33586355109E+03  0.54579481392E+03  0.43021814693E+03 0.  0.
      99925    2    3    3    0    0 -0.18943788069E+02  0.75310896072E+02  0.16376454272E+03  0.31930822500E+03  0.26288461144E+03 0.  0.
         25    1    4    4    0    0 -0.39720428636E+02  0.45373522289E+02  0.54184019138E+02  0.14906335903E+03  0.12509000000E+03 0.  0.
         25    1    4    4    0    0  0.20776640567E+02  0.29937373783E+02  0.10958052358E+03  0.17024486597E+03  0.12509000000E+03 0.  0.
         25    1    3    3    0    0  0.18943788069E+02 -0.75310896072E+02  0.17209900837E+03  0.22648658891E+03  0.12509000000E+03 0.  0.
<mgrwt>
<rscale>  2 0.43021815E+03</rscale>
<asrwt>0</asrwt>
<pdfrwt beam="1">  1       21 0.64827820E-01 0.43021815E+03</pdfrwt>
<pdfrwt beam="2">  1       21 0.15436122E-01 0.43021815E+03</pdfrwt>
<totfact> 0.75984404E+04</totfact>
</mgrwt>
</event>
<event>
 7    0  0.4831799E-002  0.4637303E+03  0.7546771E-02  0.1023705E+00
         21   -1    0    0  502  501  0.00000000000E+00  0.00000000000E+00  0.44426412799E+02  0.44426412799E+02  0.00000000000E+00 0. -1.
         21   -1    0    0  501  502 -0.00000000000E+00 -0.00000000000E+00 -0.12101235377E+04  0.12101235377E+04  0.00000000000E+00 0. -1.
      99926    2    1    2    0    0  0.00000000000E+00  0.00000000000E+00 -0.11656971249E+04  0.12545499505E+04  0.46373030017E+03 0.  0.
      99925    2    3    3    0    0 -0.68144063221E+02 -0.41796177937E+02 -0.48161703574E+03  0.55454737170E+03  0.26301574953E+03 0.  0.
         25    1    4    4    0    0 -0.39555289207E+02 -0.56287303873E+02 -0.21178080033E+03  0.25540457508E+03  0.12509000000E+03 0.  0.
         25    1    4    4    0    0 -0.28588774014E+02  0.14491125936E+02 -0.26983623541E+03  0.29914279662E+03  0.12509000000E+03 0.  0.
         25    1    3    3    0    0  0.68144063221E+02  0.41796177937E+02 -0.68408008917E+03  0.70000257882E+03  0.12509000000E+03 0.  0.
<mgrwt>
<rscale>  2 0.46373030E+03</rscale>
<asrwt>0</asrwt>
<pdfrwt beam="1">  1       21 0.65332966E-02 0.46373030E+03</pdfrwt>
<pdfrwt beam="2">  1       21 0.17795933E+00 0.46373030E+03</pdfrwt>
<totfact> 0.28478622E+04</totfact>
</mgrwt>
</event>
<event>
 7    0  0.4831799E-002  0.4577408E+03  0.7546771E-02  0.1025438E+00
         21   -1    0    0  502  501  0.00000000000E+00  0.00000000000E+00  0.47908433908E+02  0.47908433908E+02  0.00000000000E+00 0. -1.
         21   -1    0    0  501  502 -0.00000000000E+00 -0.00000000000E+00 -0.10933705370E+04  0.10933705370E+04  0.00000000000E+00 0. -1.
      99926    2    1    2    0    0  0.00000000000E+00  0.71054273576E-14 -0.10454621031E+04  0.11412789709E+04  0.45774084419E+03 0.  0.
      99925    2    3    3    0    0 -0.95759447347E+02 -0.62499019497E+02 -0.70040831755E+03  0.75685001491E+03  0.26300976139E+03 0.  0.
         25    1    4    4    0    0 -0.72324885698E+02 -0.27895532090E+02 -0.28112824365E+03  0.31731632054E+03  0.12509000000E+03 0.  0.
         25    1    4    4    0    0 -0.23434561649E+02 -0.34603487407E+02 -0.41928007390E+03  0.43953369437E+03  0.12509000000E+03 0.  0.
         25    1    3    3    0    0  0.95759447347E+02  0.62499019497E+02 -0.34505378557E+03  0.38442895602E+03  0.12509000000E+03 0.  0.
<mgrwt>
<rscale>  2 0.45774084E+03</rscale>
<asrwt>0</asrwt>
<pdfrwt beam="1">  1       21 0.70453570E-02 0.45774084E+03</pdfrwt>
<pdfrwt beam="2">  1       21 0.16078981E+00 0.45774084E+03</pdfrwt>
<totfact> 0.33356558E+04</totfact>
</mgrwt>
</event>
<event>
 7    0  0.4831799E-002  0.4566533E+03  0.7546771E-02  0.1025756E+00
         21   -1    0    0  502  501  0.00000000000E+00  0.00000000000E+00  0.26177186855E+02  0.26177186855E+02  0.00000000000E+00 0. -1.
         21   -1    0    0  501  502 -0.00000000000E+00 -0.00000000000E+00 -0.19915456882E+04  0.19915456882E+04  0.00000000000E+00 0. -1.
      99926    2    1    2    0    0  0.00000000000E+00 -0.88817841970E-15 -0.19653685014E+04  0.20177228751E+04  0.45665331976E+03 0.  0.
      99925    2    3    3    0    0 -0.70179177991E+02 -0.63876238824E+01 -0.83490227748E+03  0.87817589921E+03  0.26299273421E+03 0.  0.
         25    1    4    4    0    0  0.13169751905E+00 -0.17619521307E+02 -0.44379911823E+03  0.46142781702E+03  0.12509000000E+03 0.  0.
         25    1    3    3    0    0  0.70179177991E+02  0.63876238824E+01 -0.11304662239E+04  0.11395469759E+04  0.12509000000E+03 0.  0.
         25    1    4    4    0    0 -0.70310875510E+02  0.11231897425E+02 -0.39110315925E+03  0.41674808219E+03  0.12509000000E+03 0.  0.
<mgrwt>
<rscale>  2 0.45665332E+03</rscale>
<asrwt>0</asrwt>
<pdfrwt beam="1">  1       21 0.38495858E-02 0.45665332E+03</pdfrwt>
<pdfrwt beam="2">  1       21 0.29287440E+00 0.45665332E+03</pdfrwt>
<totfact> 0.13251552E+04</totfact>
</mgrwt>
</event>
<event>
 7    0  0.4831799E-002  0.4534916E+03  0.7546771E-02  0.1026686E+00
         21   -1    0    0  502  501  0.00000000000E+00  0.00000000000E+00  0.11643789268E+03  0.11643789268E+03  0.00000000000E+00 0. -1.
         21   -1    0    0  501  502 -0.00000000000E+00 -0.00000000000E+00 -0.44155427378E+03  0.44155427378E+03  0.00000000000E+00 0. -1.
      99926    2    1    2    0    0  0.00000000000E+00  0.71054273576E-14 -0.32511638110E+03  0.55799216646E+03  0.45349156175E+03 0.  0.
      99925    2    3    3    0    0  0.93228579082E+02  0.59715234160E+02 -0.22269796569E+03  0.36204697754E+03  0.26310863321E+03 0.  0.
         25    1    4    4    0    0  0.25890791074E+02  0.61019468900E+02 -0.90759743922E+02  0.16816226647E+03  0.12509000000E+03 0.  0.
         25    1    4    4    0    0  0.67337788008E+02 -0.13042347406E+01 -0.13193822177E+03  0.19388471107E+03  0.12509000000E+03 0.  0.
         25    1    3    3    0    0 -0.93228579082E+02 -0.59715234160E+02 -0.10241841541E+03  0.19594518893E+03  0.12509000000E+03 0.  0.
<mgrwt>
<rscale>  2 0.45349156E+03</rscale>
<asrwt>0</asrwt>
<pdfrwt beam="1">  1       21 0.17123220E-01 0.45349156E+03</pdfrwt>
<pdfrwt beam="2">  1       21 0.64934451E-01 0.45349156E+03</pdfrwt>
<totfact> 0.62078878E+04</totfact>
</mgrwt>
</event>
<event>
 7    0  0.4831799E-002  0.4020771E+03  0.7546771E-02  0.1043063E+00
         21   -1    0    0  502  501  0.00000000000E+00  0.00000000000E+00  0.15550405194E+04  0.15550405194E+04  0.00000000000E+00 0. -1.
         21   -1    0    0  501  502 -0.00000000000E+00 -0.00000000000E+00 -0.25990636079E+02  0.25990636079E+02  0.00000000000E+00 0. -1.
      99926    2    1    2    0    0 -0.71054273576E-14 -0.35527136788E-14  0.15290498833E+04  0.15810311555E+04  0.40207706838E+03 0.  0.
      99925    2    3    3    0    0 -0.41682818735E+02 -0.21122110261E+02  0.10797648346E+04  0.11123221157E+04  0.26303001728E+03 0.  0.
         25    1    3    3    0    0  0.41682818735E+02  0.21122110261E+02  0.44928504872E+03  0.46870903984E+03  0.12509000000E+03 0.  0.
         25    1    4    4    0    0  0.11386051803E+02  0.14899054344E+02  0.52550792351E+03  0.54051615125E+03  0.12509000000E+03 0.  0.
         25    1    4    4    0    0 -0.53068870538E+02 -0.36021164606E+02  0.55425691110E+03  0.57180596440E+03  0.12509000000E+03 0.  0.
<mgrwt>
<rscale>  2 0.40207707E+03</rscale>
<asrwt>0</asrwt>
<pdfrwt beam="1">  1       21 0.22868237E+00 0.40207707E+03</pdfrwt>
<pdfrwt beam="2">  1       21 0.38221534E-02 0.40207707E+03</pdfrwt>
<totfact> 0.33744616E+04</totfact>
</mgrwt>
</event>
<event>
 7    0  0.4831799E-002  0.4998517E+03  0.7546771E-02  0.1013818E+00
         21   -1    0    0  502  501  0.00000000000E+00  0.00000000000E+00  0.27760679166E+04  0.27760679166E+04  0.00000000000E+00 0. -1.
         21   -1    0    0  501  502 -0.00000000000E+00 -0.00000000000E+00 -0.22500500865E+02  0.22500500865E+02  0.00000000000E+00 0. -1.
      99926    2    1    2    0    0  0.00000000000E+00  0.00000000000E+00  0.27535674157E+04  0.27985684174E+04  0.49985165223E+03 0.  0.
      99925    2    3    3    0    0  0.12988109821E+03 -0.74380392736E+02  0.15452821464E+04  0.15746393580E+04  0.26304116251E+03 0.  0.
         25    1    4    4    0    0  0.68090432660E+02 -0.88837224106E+01  0.89752213087E+03  0.90879519753E+03  0.12509000000E+03 0.  0.
         25    1    3    3    0    0 -0.12988109821E+03  0.74380392736E+02  0.12082852693E+04  0.12239290595E+04  0.12509000000E+03 0.  0.
         25    1    4    4    0    0  0.61790665549E+02 -0.65496670325E+02  0.64776001555E+03  0.66584416046E+03  0.12509000000E+03 0.  0.
<mgrwt>
<rscale>  2 0.49985165E+03</rscale>
<asrwt>0</asrwt>
<pdfrwt beam="1">  1       21 0.40824505E+00 0.49985165E+03</pdfrwt>
<pdfrwt beam="2">  1       21 0.33088991E-02 0.49985165E+03</pdfrwt>
<totfact> 0.32462778E+03</totfact>
</mgrwt>
</event>
<event>
 7    0  0.4831799E-002  0.4522296E+03  0.7546771E-02  0.1027059E+00
         21   -1    0    0  502  501  0.00000000000E+00  0.00000000000E+00  0.16790823466E+04  0.16790823466E+04  0.00000000000E+00 0. -1.
         21   -1    0    0  501  502 -0.00000000000E+00 -0.00000000000E+00 -0.30449911441E+02  0.30449911441E+02  0.00000000000E+00 0. -1.
      99926    2    1    2    0    0  0.00000000000E+00  0.00000000000E+00  0.16486324352E+04  0.17095322581E+04  0.45222962644E+03 0.  0.
      99925    2    3    3    0    0  0.37762692107E+02  0.39004749047E+02  0.67586517636E+03  0.72725376431E+03  0.26297701367E+03 0.  0.
         25    1    3    3    0    0 -0.37762692107E+02 -0.39004749047E+02  0.97276725882E+03  0.98227849376E+03  0.12509000000E+03 0.  0.
         25    1    4    4    0    0  0.13651378915E+02 -0.10098393815E+02  0.25042245468E+03  0.28044117317E+03  0.12509000000E+03 0.  0.
         25    1    4    4    0    0  0.24111313192E+02  0.49103142862E+02  0.42544272169E+03  0.44681259114E+03  0.12509000000E+03 0.  0.
<mgrwt>
<rscale>  2 0.45222963E+03</rscale>
<asrwt>0</asrwt>
<pdfrwt beam="1">  1       21 0.24692381E+00 0.45222963E+03</pdfrwt>
<pdfrwt beam="2">  1       21 0.44779293E-02 0.45222963E+03</pdfrwt>
<totfact> 0.19479860E+04</totfact>
</mgrwt>
</event>
<event>
 7    0  0.4831799E-002  0.4694213E+03  0.7546771E-02  0.1022084E+00
         21   -1    0    0  502  501  0.00000000000E+00  0.00000000000E+00  0.21312116174E+03  0.21312116174E+03  0.00000000000E+00 0. -1.
         21   -1    0    0  501  502 -0.00000000000E+00 -0.00000000000E+00 -0.25848718187E+03  0.25848718187E+03  0.00000000000E+00 0. -1.
      99926    2    1    2    0    0  0.00000000000E+00 -0.14210854715E-13 -0.45366020125E+02  0.47160834361E+03  0.46942129690E+03 0.  0.
      99925    2    3    3    0    0  0.83241719981E+02 -0.78034084517E+02  0.26149281908E+02  0.28781376041E+03  0.26293435196E+03 0.  0.
         25    1    4    4    0    0  0.14565323915E+02 -0.16836798451E+02  0.36510829501E+02  0.13219748566E+03  0.12509000000E+03 0.  0.
         25    1    4    4    0    0  0.68676396065E+02 -0.61197286066E+02 -0.10361547593E+02  0.15561627475E+03  0.12509000000E+03 0.  0.
         25    1    3    3    0    0 -0.83241719981E+02  0.78034084517E+02 -0.71515302032E+02  0.18379458321E+03  0.12509000000E+03 0.  0.
<mgrwt>
<rscale>  2 0.46942130E+03</rscale>
<asrwt>0</asrwt>
<pdfrwt beam="1">  1       21 0.31341348E-01 0.46942130E+03</pdfrwt>
<pdfrwt beam="2">  1       21 0.38012821E-01 0.46942130E+03</pdfrwt>
<totfact> 0.60124234E+04</totfact>
</mgrwt>
</event>
<event>
 7    0  0.4831799E-002  0.4564139E+03  0.7546771E-02  0.1025826E+00
         21   -1    0    0  502  501  0.00000000000E+00  0.00000000000E+00  0.30978780522E+03  0.30978780522E+03  0.00000000000E+00 0. -1.
         21   -1    0    0  501  502 -0.00000000000E+00 -0.00000000000E+00 -0.16810994711E+03  0.16810994711E+03  0.00000000000E+00 0. -1.
      99926    2    1    2    0    0  0.00000000000E+00 -0.44408920985E-14  0.14167785811E+03  0.47789775234E+03  0.45641389791E+03 0.  0.
      99925    2    3    3    0    0  0.91981001303E+02 -0.78141607896E+01  0.15998350356E+03  0.32135967242E+03  0.26297481236E+03 0.  0.
         25    1    3    3    0    0 -0.91981001303E+02  0.78141607896E+01 -0.18305645455E+02  0.15653807992E+03  0.12509000000E+03 0.  0.
         25    1    4    4    0    0  0.19020833663E+02 -0.34704314300E+02  0.81714153265E+02  0.15456678973E+03  0.12509000000E+03 0.  0.
         25    1    4    4    0    0  0.72960167640E+02  0.26890153510E+02  0.78269350299E+02  0.16679288268E+03  0.12509000000E+03 0.  0.
<mgrwt>
<rscale>  2 0.45641390E+03</rscale>
<asrwt>0</asrwt>
<pdfrwt beam="1">  1       21 0.45557030E-01 0.45641390E+03</pdfrwt>
<pdfrwt beam="2">  1       21 0.24722051E-01 0.45641390E+03</pdfrwt>
<totfact> 0.66108486E+04</totfact>
</mgrwt>
</event>
<event>
 7    0  0.4831799E-002  0.4206395E+03  0.7546771E-02  0.1036858E+00
         21   -1    0    0  502  501  0.00000000000E+00  0.00000000000E+00  0.16041984552E+03  0.16041984552E+03  0.00000000000E+00 0. -1.
         21   -1    0    0  501  502 -0.00000000000E+00 -0.00000000000E+00 -0.27574143038E+03  0.27574143038E+03  0.00000000000E+00 0. -1.
      99926    2    1    2    0    0 -0.71054273576E-14  0.00000000000E+00 -0.11532158485E+03  0.43616127590E+03  0.42063950202E+03 0.  0.
      99925    2    3    3    0    0 -0.34913695767E+02  0.18216776635E+02 -0.14322907552E+03  0.30208236914E+03  0.26303682739E+03 0.  0.
         25    1    4    4    0    0 -0.51205446709E+02 -0.12806441216E+02 -0.66104684466E+02  0.15100774854E+03  0.12509000000E+03 0.  0.
         25    1    4    4    0    0  0.16291750942E+02  0.31023217851E+02 -0.77124391051E+02  0.15107462060E+03  0.12509000000E+03 0.  0.
         25    1    3    3    0    0  0.34913695767E+02 -0.18216776635E+02  0.27907490663E+02  0.13407890676E+03  0.12509000000E+03 0.  0.
<mgrwt>
<rscale>  2 0.42063950E+03</rscale>
<asrwt>0</asrwt>
<pdfrwt beam="1">  1       21 0.23591154E-01 0.42063950E+03</pdfrwt>
<pdfrwt beam="2">  1       21 0.40550210E-01 0.42063950E+03</pdfrwt>
<totfact> 0.92887440E+04</totfact>
</mgrwt>
</event>
<event>
 7    0  0.4831799E-002  0.4528584E+03  0.7546771E-02  0.1026873E+00
         21   -1    0    0  502  501  0.00000000000E+00  0.00000000000E+00  0.54159519886E+02  0.54159519886E+02  0.00000000000E+00 0.  1.
         21   -1    0    0  501  502 -0.00000000000E+00 -0.00000000000E+00 -0.94665122498E+03  0.94665122498E+03  0.00000000000E+00 0.  1.
      99926    2    1    2    0    0  0.00000000000E+00  0.00000000000E+00 -0.89249170509E+03  0.10008107449E+04  0.45285837011E+03 0.  0.
      99925    2    3    3    0    0 -0.97724223064E+02  0.47754940115E+02 -0.61362190415E+03  0.67639367988E+03  0.26295629074E+03 0.  0.
         25    1    4    4    0    0 -0.11810741413E+02  0.11030719352E+01 -0.28209898120E+03  0.30881718488E+03  0.12509000000E+03 0.  0.
         25    1    4    4    0    0 -0.85913481651E+02  0.46651868180E+02 -0.33152292295E+03  0.36757649500E+03  0.12509000000E+03 0.  0.
         25    1    3    3    0    0  0.97724223064E+02 -0.47754940115E+02 -0.27886980094E+03  0.32441706499E+03  0.12509000000E+03 0.  0.
<mgrwt>
<rscale>  2 0.45285837E+03</rscale>
<asrwt>0</asrwt>
<pdfrwt beam="1">  1       21 0.79646358E-02 0.45285837E+03</pdfrwt>
<pdfrwt beam="2">  1       21 0.13921341E+00 0.45285837E+03</pdfrwt>
<totfact> 0.39796742E+04</totfact>
</mgrwt>
</event>
<event>
 7    0  0.4831799E-002  0.4468364E+03  0.7546771E-02  0.1028670E+00
         21   -1    0    0  502  501  0.00000000000E+00  0.00000000000E+00  0.32991205621E+03  0.32991205621E+03  0.00000000000E+00 0.  1.
         21   -1    0    0  501  502 -0.00000000000E+00 -0.00000000000E+00 -0.15129997970E+03  0.15129997970E+03  0.00000000000E+00 0.  1.
      99926    2    1    2    0    0  0.00000000000E+00  0.35527136788E-14  0.17861207651E+03  0.48121203591E+03  0.44683637904E+03 0.  0.
      99925    2    3    3    0    0 -0.67203541513E+02  0.29919755293E+02  0.19447917762E+03  0.33522991116E+03  0.26295519592E+03 0.  0.
         25    1    4    4    0    0 -0.50918053473E+02 -0.20308482873E+02  0.10950764238E+03  0.17505574680E+03  0.12509000000E+03 0.  0.
         25    1    4    4    0    0 -0.16285488040E+02  0.50228238167E+02  0.84971535233E+02  0.16017416436E+03  0.12509000000E+03 0.  0.
         25    1    3    3    0    0  0.67203541513E+02 -0.29919755293E+02 -0.15867101109E+02  0.14598212475E+03  0.12509000000E+03 0.  0.
<mgrwt>
<rscale>  2 0.44683638E+03</rscale>
<asrwt>0</asrwt>
<pdfrwt beam="1">  1       21 0.48516479E-01 0.44683638E+03</pdfrwt>
<pdfrwt beam="2">  1       21 0.22249997E-01 0.44683638E+03</pdfrwt>
<totfact> 0.71109805E+04</totfact>
</mgrwt>
</event>
<event>
 7    0  0.4831799E-002  0.4638245E+03  0.7546771E-02  0.1023678E+00
         21   -1    0    0  502  501  0.00000000000E+00  0.00000000000E+00  0.18539460416E+03  0.18539460416E+03  0.00000000000E+00 0.  1.
         21   -1    0    0  501  502 -0.00000000000E+00 -0.00000000000E+00 -0.29010176119E+03  0.29010176119E+03  0.00000000000E+00 0.  1.
      99926    2    1    2    0    0  0.00000000000E+00  0.00000000000E+00 -0.10470715703E+03  0.47549636536E+03  0.46382454089E+03 0.  0.
      99925    2    3    3    0    0 -0.32851182645E+02 -0.28919015748E+02 -0.18124905872E+03  0.32245493147E+03  0.26307879403E+03 0.  0.
         25    1    3    3    0    0  0.32851182645E+02  0.28919015748E+02  0.76541901688E+02  0.15304143389E+03  0.12509000000E+03 0.  0.
         25    1    4    4    0    0 -0.53017714171E+02 -0.74250596344E+01 -0.72913805905E+02  0.15436949413E+03  0.12509000000E+03 0.  0.
         25    1    4    4    0    0  0.20166531526E+02 -0.21493956114E+02 -0.10833525281E+03  0.16808543734E+03  0.12509000000E+03 0.  0.
<mgrwt>
<rscale>  2 0.46382454E+03</rscale>
<asrwt>0</asrwt>
<pdfrwt beam="1">  1       21 0.27263913E-01 0.46382454E+03</pdfrwt>
<pdfrwt beam="2">  1       21 0.42662023E-01 0.46382454E+03</pdfrwt>
<totfact> 0.62535258E+04</totfact>
</mgrwt>
</event>
<event>
 7    0  0.4831799E-002  0.4613214E+03  0.7546771E-02  0.1024399E+00
         21   -1    0    0  502  501  0.00000000000E+00  0.00000000000E+00  0.17675488002E+02  0.17675488002E+02  0.00000000000E+00 0. -1.
         21   -1    0    0  501  502 -0.00000000000E+00 -0.00000000000E+00 -0.30100644552E+04  0.30100644552E+04  0.00000000000E+00 0. -1.
      99926    2    1    2    0    0  0.14210854715E-13  0.71054273576E-14 -0.29923889672E+04  0.30277399432E+04  0.46132139843E+03 0.  0.
      99925    2    3    3    0    0  0.10978369468E+03  0.41307190467E+02 -0.20024732481E+04  0.20230811042E+04  0.26305760119E+03 0.  0.
         25    1    4    4    0    0  0.43403363471E+02 -0.19148315067E+02 -0.88786936149E+03  0.89789198743E+03  0.12509000000E+03 0.  0.
         25    1    4    4    0    0  0.66380331214E+02  0.60455505534E+02 -0.11146038866E+04  0.11251891168E+04  0.12509000000E+03 0.  0.
         25    1    3    3    0    0 -0.10978369468E+03 -0.41307190467E+02 -0.98991571917E+03  0.10046588390E+04  0.12509000000E+03 0.  0.
<mgrwt>
<rscale>  2 0.46132140E+03</rscale>
<asrwt>0</asrwt>
<pdfrwt beam="1">  1       21 0.25993372E-02 0.46132140E+03</pdfrwt>
<pdfrwt beam="2">  1       21 0.44265642E+00 0.46132140E+03</pdfrwt>
<totfact> 0.29482778E+03</totfact>
</mgrwt>
</event>
<event>
 7    0  0.4831799E-002  0.4599931E+03  0.7546771E-02  0.1024783E+00
         21   -1    0    0  502  501  0.00000000000E+00  0.00000000000E+00  0.17123008363E+03  0.17123008363E+03  0.00000000000E+00 0. -1.
         21   -1    0    0  501  502 -0.00000000000E+00 -0.00000000000E+00 -0.30893170996E+03  0.30893170996E+03  0.00000000000E+00 0. -1.
      99926    2    1    2    0    0  0.88817841970E-15  0.00000000000E+00 -0.13770162633E+03  0.48016179360E+03  0.45999305444E+03 0.  0.
      99925    2    3    3    0    0  0.67793122847E+01  0.90414049262E+02 -0.16473360142E+03  0.32332144433E+03  0.26301889200E+03 0.  0.
         25    1    4    4    0    0  0.26631904667E+02  0.79651568326E+02 -0.98249917571E+02  0.17987269133E+03  0.12509000000E+03 0.  0.
         25    1    3    3    0    0 -0.67793122847E+01 -0.90414049262E+02  0.27031975096E+02  0.15684034926E+03  0.12509000000E+03 0.  0.
         25    1    4    4    0    0 -0.19852592383E+02  0.10762480936E+02 -0.66483683851E+02  0.14344875300E+03  0.12509000000E+03 0.  0.
<mgrwt>
<rscale>  2 0.45999305E+03</rscale>
<asrwt>0</asrwt>
<pdfrwt beam="1">  1       21 0.25180895E-01 0.45999305E+03</pdfrwt>
<pdfrwt beam="2">  1       21 0.45431134E-01 0.45999305E+03</pdfrwt>
<totfact> 0.64109859E+04</totfact>
</mgrwt>
</event>
<event>
 7    0  0.4831799E-002  0.4756128E+03  0.7546771E-02  0.1020348E+00
         21   -1    0    0  502  501  0.00000000000E+00  0.00000000000E+00  0.28659982187E+03  0.28659982187E+03  0.00000000000E+00 0. -1.
         21   -1    0    0  501  502 -0.00000000000E+00 -0.00000000000E+00 -0.19732003662E+03  0.19732003662E+03  0.00000000000E+00 0. -1.
      99926    2    1    2    0    0 -0.17763568394E-14  0.00000000000E+00  0.89279785246E+02  0.48391985850E+03  0.47561281458E+03 0.  0.
      99925    2    3    3    0    0  0.15488277255E+02  0.12824538381E+03  0.31543969307E+02  0.29506092240E+03  0.26339924208E+03 0.  0.
         25    1    3    3    0    0 -0.15488277255E+02 -0.12824538381E+03  0.57735815940E+02  0.18885893609E+03  0.12509000000E+03 0.  0.
         25    1    4    4    0    0  0.11371288928E+02  0.10640483345E+03  0.33525875180E+02  0.16799639044E+03  0.12509000000E+03 0.  0.
         25    1    4    4    0    0  0.41169883272E+01  0.21840550362E+02 -0.19819058733E+01  0.12706453197E+03  0.12509000000E+03 0.  0.
<mgrwt>
<rscale>  2 0.47561281E+03</rscale>
<asrwt>0</asrwt>
<pdfrwt beam="1">  1       21 0.42147033E-01 0.47561281E+03</pdfrwt>
<pdfrwt beam="2">  1       21 0.29017652E-01 0.47561281E+03</pdfrwt>
<totfact> 0.56574310E+04</totfact>
</mgrwt>
</event>
<event>
 7    0  0.4831799E-002  0.4351392E+03  0.7546771E-02  0.1032249E+00
         21   -1    0    0  502  501  0.00000000000E+00  0.00000000000E+00  0.29548324710E+03  0.29548324710E+03  0.00000000000E+00 0.  1.
         21   -1    0    0  501  502 -0.00000000000E+00 -0.00000000000E+00 -0.16020037628E+03  0.16020037628E+03  0.00000000000E+00 0.  1.
      99926    2    1    2    0    0  0.00000000000E+00  0.00000000000E+00  0.13528287082E+03  0.45568362338E+03  0.43513918403E+03 0.  0.
      99925    2    3    3    0    0 -0.51046154832E+02  0.35798718406E+02  0.14008313190E+02  0.27063691417E+03  0.26298450203E+03 0.  0.
         25    1    4    4    0    0 -0.31344468280E+02  0.56464171601E+02 -0.53443073772E+01  0.14087848696E+03  0.12509000000E+03 0.  0.
         25    1    4    4    0    0 -0.19701686552E+02 -0.20665453195E+02  0.19352620568E+02  0.12975842721E+03  0.12509000000E+03 0.  0.
         25    1    3    3    0    0  0.51046154832E+02 -0.35798718406E+02  0.12127455763E+03  0.18504670921E+03  0.12509000000E+03 0.  0.
<mgrwt>
<rscale>  2 0.43513918E+03</rscale>
<asrwt>0</asrwt>
<pdfrwt beam="1">  1       21 0.43453418E-01 0.43513918E+03</pdfrwt>
<pdfrwt beam="2">  1       21 0.23558879E-01 0.43513918E+03</pdfrwt>
<totfact> 0.80466053E+04</totfact>
</mgrwt>
</event>
<event>
 7    0  0.4831799E-002  0.4180011E+03  0.7546771E-02  0.1037719E+00
         21   -1    0    0  502  501  0.00000000000E+00  0.00000000000E+00  0.34122773639E+03  0.34122773639E+03  0.00000000000E+00 0. -1.
         21   -1    0    0  501  502 -0.00000000000E+00 -0.00000000000E+00 -0.12801197315E+03  0.12801197315E+03  0.00000000000E+00 0. -1.
      99926    2    1    2    0    0  0.00000000000E+00  0.00000000000E+00  0.21321576324E+03  0.46923970954E+03  0.41800112837E+03 0.  0.
      99925    2    3    3    0    0  0.56538808147E+02  0.39322365662E+02  0.11122458013E+03  0.29376152059E+03  0.26302478682E+03 0.  0.
         25    1    4    4    0    0  0.68179388643E+02  0.25877723072E+02  0.48508413951E+02  0.15270448556E+03  0.12509000000E+03 0.  0.
         25    1    3    3    0    0 -0.56538808147E+02 -0.39322365662E+02  0.10199118311E+03  0.17547818896E+03  0.12509000000E+03 0.  0.
         25    1    4    4    0    0 -0.11640580496E+02  0.13444642590E+02  0.62716166183E+02  0.14105703502E+03  0.12509000000E+03 0.  0.
<mgrwt>
<rscale>  2 0.41800113E+03</rscale>
<asrwt>0</asrwt>
<pdfrwt beam="1">  1       21 0.50180549E-01 0.41800113E+03</pdfrwt>
<pdfrwt beam="2">  1       21 0.18825290E-01 0.41800113E+03</pdfrwt>
<totfact> 0.91572948E+04</totfact>
</mgrwt>
</event>
<event>
 7    0  0.4831799E-002  0.4572250E+03  0.7546771E-02  0.1025589E+00
         21   -1    0    0  502  501  0.00000000000E+00  0.00000000000E+00  0.11262253639E+03  0.11262253639E+03  0.00000000000E+00 0. -1.
         21   -1    0    0  501  502 -0.00000000000E+00 -0.00000000000E+00 -0.46406060405E+03  0.46406060405E+03  0.00000000000E+00 0. -1.
      99926    2    1    2    0    0 -0.14210854715E-13  0.00000000000E+00 -0.35143806765E+03  0.57668314044E+03  0.45722503110E+03 0.  0.
      99925    2    3    3    0    0 -0.93353949499E+02 -0.64423306248E+02 -0.19495905348E+03  0.34646908298E+03  0.26299519131E+03 0.  0.
         25    1    4    4    0    0 -0.35559537229E+02  0.78510370431E+01 -0.99364715028E+02  0.16385046281E+03  0.12509000000E+03 0.  0.
         25    1    3    3    0    0  0.93353949499E+02  0.64423306248E+02 -0.15647901417E+03  0.23021405746E+03  0.12509000000E+03 0.  0.
         25    1    4    4    0    0 -0.57794412270E+02 -0.72274343291E+02 -0.95594338454E+02  0.18261862017E+03  0.12509000000E+03 0.  0.
<mgrwt>
<rscale>  2 0.45722503E+03</rscale>
<asrwt>0</asrwt>
<pdfrwt beam="1">  1       21 0.16562138E-01 0.45722503E+03</pdfrwt>
<pdfrwt beam="2">  1       21 0.68244206E-01 0.45722503E+03</pdfrwt>
<totfact> 0.59090526E+04</totfact>
</mgrwt>
</event>
<event>
 7    0  0.4831799E-002  0.4507462E+03  0.7546771E-02  0.1027500E+00
         21   -1    0    0  502  501  0.00000000000E+00  0.00000000000E+00  0.14316298257E+03  0.14316298257E+03  0.00000000000E+00 0.  1.
         21   -1    0    0  501  502 -0.00000000000E+00 -0.00000000000E+00 -0.35479162278E+03  0.35479162278E+03  0.00000000000E+00 0.  1.
      99926    2    1    2    0    0  0.00000000000E+00  0.00000000000E+00 -0.21162864020E+03  0.49795460535E+03  0.45074616763E+03 0.  0.
      99925    2    3    3    0    0 -0.10220820826E+03  0.36181253940E+02 -0.15758802908E+03  0.32381817400E+03  0.26128264759E+03 0.  0.
         25    1    4    4    0    0 -0.47779599992E+02  0.22147007815E+02 -0.12113128352E+03  0.18191667344E+03  0.12509000000E+03 0.  0.
         25    1    4    4    0    0 -0.54428608272E+02  0.14034246124E+02 -0.36456745560E+02  0.14190150055E+03  0.12509000000E+03 0.  0.
         25    1    3    3    0    0  0.10220820826E+03 -0.36181253940E+02 -0.54040611128E+02  0.17413643135E+03  0.12509000000E+03 0.  0.
<mgrwt>
<rscale>  2 0.45074617E+03</rscale>
<asrwt>0</asrwt>
<pdfrwt beam="1">  1       21 0.21053380E-01 0.45074617E+03</pdfrwt>
<pdfrwt beam="2">  1       21 0.52175238E-01 0.45074617E+03</pdfrwt>
<totfact> 0.67670927E+04</totfact>
</mgrwt>
</event>
<event>
 7    0  0.4831799E-002  0.4528358E+03  0.7546771E-02  0.1026880E+00
         21   -1    0    0  502  501  0.00000000000E+00  0.00000000000E+00  0.33572502948E+03  0.33572502948E+03  0.00000000000E+00 0.  1.
         21   -1    0    0  501  502 -0.00000000000E+00 -0.00000000000E+00 -0.15269958346E+03  0.15269958346E+03  0.00000000000E+00 0.  1.
      99926    2    1    2    0    0  0.00000000000E+00 -0.14210854715E-13  0.18302544602E+03  0.48842461293E+03  0.45283582966E+03 0.  0.
      99925    2    3    3    0    0  0.73300513624E+02 -0.81306390654E+02  0.13595070210E+03  0.31566109226E+03  0.26301261815E+03 0.  0.
         25    1    4    4    0    0  0.22488284735E+02 -0.59875322597E+02  0.10526372788E+03  0.17555266365E+03  0.12509000000E+03 0.  0.
         25    1    4    4    0    0  0.50812228889E+02 -0.21431068057E+02  0.30686974223E+02  0.14010842862E+03  0.12509000000E+03 0.  0.
         25    1    3    3    0    0 -0.73300513624E+02  0.81306390654E+02  0.47074743917E+02  0.17276352067E+03  0.12509000000E+03 0.  0.
<mgrwt>
<rscale>  2 0.45283583E+03</rscale>
<asrwt>0</asrwt>
<pdfrwt beam="1">  1       21 0.49371328E-01 0.45283583E+03</pdfrwt>
<pdfrwt beam="2">  1       21 0.22455821E-01 0.45283583E+03</pdfrwt>
<totfact> 0.67239590E+04</totfact>
</mgrwt>
</event>
<event>
 7    0  0.4831799E-002  0.4767410E+03  0.7546771E-02  0.1020035E+00
         21   -1    0    0  502  501  0.00000000000E+00  0.00000000000E+00  0.43026294331E+03  0.43026294331E+03  0.00000000000E+00 0.  1.
         21   -1    0    0  501  502 -0.00000000000E+00 -0.00000000000E+00 -0.13205994127E+03  0.13205994127E+03  0.00000000000E+00 0.  1.
      99926    2    1    2    0    0  0.00000000000E+00  0.00000000000E+00  0.29820300204E+03  0.56232288458E+03  0.47674101575E+03 0.  0.
      99925    2    3    3    0    0  0.61242196979E+02 -0.54153021650E+01  0.32265932441E+03  0.42081121724E+03  0.26304583012E+03 0.  0.
         25    1    4    4    0    0  0.54746830343E+02  0.27068974120E+02  0.18949788366E+03  0.23513166696E+03  0.12509000000E+03 0.  0.
         25    1    3    3    0    0 -0.61242196979E+02  0.54153021650E+01 -0.24456322369E+02  0.14151166734E+03  0.12509000000E+03 0.  0.
         25    1    4    4    0    0  0.64953666362E+01 -0.32484276285E+02  0.13316144075E+03  0.18567955029E+03  0.12509000000E+03 0.  0.
<mgrwt>
<rscale>  2 0.47674102E+03</rscale>
<asrwt>0</asrwt>
<pdfrwt beam="1">  1       21 0.63273962E-01 0.47674102E+03</pdfrwt>
<pdfrwt beam="2">  1       21 0.19420580E-01 0.47674102E+03</pdfrwt>
<totfact> 0.51594119E+04</totfact>
</mgrwt>
</event>
<event>
 7    0  0.4831799E-002  0.4513001E+03  0.7546771E-02  0.1027335E+00
         21   -1    0    0  502  501  0.00000000000E+00  0.00000000000E+00  0.45656903684E+03  0.45656903684E+03  0.00000000000E+00 0.  1.
         21   -1    0    0  501  502 -0.00000000000E+00 -0.00000000000E+00 -0.11152298430E+03  0.11152298430E+03  0.00000000000E+00 0.  1.
      99926    2    1    2    0    0 -0.14210854715E-13  0.71054273576E-14  0.34504605254E+03  0.56809202114E+03  0.45130008432E+03 0.  0.
      99925    2    3    3    0    0 -0.90461634689E+02  0.54307606133E+02  0.25538223295E+03  0.38149156005E+03  0.26302680861E+03 0.  0.
         25    1    4    4    0    0 -0.57719188060E+02  0.48400320873E+02  0.17971604183E+03  0.23155876041E+03  0.12509000000E+03 0.  0.
         25    1    4    4    0    0 -0.32742446628E+02  0.59072852597E+01  0.75666191124E+02  0.14993279965E+03  0.12509000000E+03 0.  0.
         25    1    3    3    0    0  0.90461634689E+02 -0.54307606133E+02  0.89663819588E+02  0.18660046109E+03  0.12509000000E+03 0.  0.
<mgrwt>
<rscale>  2 0.45130008E+03</rscale>
<asrwt>0</asrwt>
<pdfrwt beam="1">  1       21 0.67142505E-01 0.45130008E+03</pdfrwt>
<pdfrwt beam="2">  1       21 0.16400439E-01 0.45130008E+03</pdfrwt>
<totfact> 0.62495173E+04</totfact>
</mgrwt>
</event>
<event>
 7    0  0.4831799E-002  0.4565197E+03  0.7546771E-02  0.1025795E+00
         21   -1    0    0  502  501  0.00000000000E+00  0.00000000000E+00  0.17777294381E+03  0.17777294381E+03  0.00000000000E+00 0. -1.
         21   -1    0    0  501  502 -0.00000000000E+00 -0.00000000000E+00 -0.29308483793E+03  0.29308483793E+03  0.00000000000E+00 0. -1.
      99926    2    1    2    0    0 -0.14210854715E-13 -0.71054273576E-14 -0.11531189412E+03  0.47085778175E+03  0.45651967943E+03 0.  0.
      99925    2    3    3    0    0  0.98379654053E+02  0.38578827862E+02 -0.26797098288E+02  0.28471466618E+03  0.26301611048E+03 0.  0.
         25    1    4    4    0    0  0.50700696089E+02  0.28761511511E+02 -0.53219369655E+02  0.14791076545E+03  0.12509000000E+03 0.  0.
         25    1    3    3    0    0 -0.98379654053E+02 -0.38578827862E+02 -0.88514795830E+02  0.18614311556E+03  0.12509000000E+03 0.  0.
         25    1    4    4    0    0  0.47678957964E+02  0.98173163505E+01  0.26422271368E+02  0.13680390074E+03  0.12509000000E+03 0.  0.
<mgrwt>
<rscale>  2 0.45651968E+03</rscale>
<asrwt>0</asrwt>
<pdfrwt beam="1">  1       21 0.26143080E-01 0.45651968E+03</pdfrwt>
<pdfrwt beam="2">  1       21 0.43100711E-01 0.45651968E+03</pdfrwt>
<totfact> 0.66565869E+04</totfact>
</mgrwt>
</event>
<event>
 7    0  0.4831799E-002  0.4557175E+03  0.7546771E-02  0.1026031E+00
         21   -1    0    0  502  501  0.00000000000E+00  0.00000000000E+00  0.45763727271E+03  0.45763727271E+03  0.00000000000E+00 0. -1.
         21   -1    0    0  501  502 -0.00000000000E+00 -0.00000000000E+00 -0.11345142184E+03  0.11345142184E+03  0.00000000000E+00 0. -1.
      99926    2    1    2    0    0  0.00000000000E+00 -0.14210854715E-13  0.34418585086E+03  0.57108869455E+03  0.45571745315E+03 0.  0.
      99925    2    3    3    0    0  0.22618126272E+02  0.11140134128E+03  0.20756739772E+03  0.35375496888E+03  0.26293823407E+03 0.  0.
         25    1    4    4    0    0  0.34330836689E+01  0.69637382135E+02  0.60997886163E+02  0.15565796244E+03  0.12509000000E+03 0.  0.
         25    1    4    4    0    0  0.19185042603E+02  0.41763959141E+02  0.14656951156E+03  0.19809700644E+03  0.12509000000E+03 0.  0.
         25    1    3    3    0    0 -0.22618126272E+02 -0.11140134128E+03  0.13661845314E+03  0.21733372567E+03  0.12509000000E+03 0.  0.
<mgrwt>
<rscale>  2 0.45571745E+03</rscale>
<asrwt>0</asrwt>
<pdfrwt beam="1">  1       21 0.67299598E-01 0.45571745E+03</pdfrwt>
<pdfrwt beam="2">  1       21 0.16684033E-01 0.45571745E+03</pdfrwt>
<totfact> 0.60152097E+04</totfact>
</mgrwt>
</event>
<event>
 7    0  0.4831799E-002  0.4493545E+03  0.7546771E-02  0.1027915E+00
         21   -1    0    0  502  501  0.00000000000E+00  0.00000000000E+00  0.16686640816E+03  0.16686640816E+03  0.00000000000E+00 0.  1.
         21   -1    0    0  501  502 -0.00000000000E+00 -0.00000000000E+00 -0.30251658451E+03  0.30251658451E+03  0.00000000000E+00 0.  1.
      99926    2    1    2    0    0  0.00000000000E+00  0.00000000000E+00 -0.13565017635E+03  0.46938299266E+03  0.44935445192E+03 0.  0.
      99925    2    3    3    0    0  0.68486724601E+02  0.21804642954E+02 -0.20683504426E+01  0.27276792149E+03  0.26312009999E+03 0.  0.
         25    1    3    3    0    0 -0.68486724601E+02 -0.21804642954E+02 -0.13358182591E+03  0.19661507118E+03  0.12509000000E+03 0.  0.
         25    1    4    4    0    0  0.25594096141E+02  0.38874187795E+02 -0.29378161321E+02  0.13666325291E+03  0.12509000000E+03 0.  0.
         25    1    4    4    0    0  0.42892628460E+02 -0.17069544841E+02  0.27309810879E+02  0.13610466857E+03  0.12509000000E+03 0.  0.
<mgrwt>
<rscale>  2 0.44935445E+03</rscale>
<asrwt>0</asrwt>
<pdfrwt beam="1">  1       21 0.24539178E-01 0.44935445E+03</pdfrwt>
<pdfrwt beam="2">  1       21 0.44487733E-01 0.44935445E+03</pdfrwt>
<totfact> 0.70591113E+04</totfact>
</mgrwt>
</event>
<event>
 7    0  0.4831799E-002  0.4580748E+03  0.7546771E-02  0.1025341E+00
         21   -1    0    0  502  501  0.00000000000E+00  0.00000000000E+00  0.44092029043E+03  0.44092029043E+03  0.00000000000E+00 0. -1.
         21   -1    0    0  501  502 -0.00000000000E+00 -0.00000000000E+00 -0.11897419042E+03  0.11897419042E+03  0.00000000000E+00 0. -1.
      99926    2    1    2    0    0  0.14210854715E-13  0.17763568394E-14  0.32194610001E+03  0.55989448084E+03  0.45807481743E+03 0.  0.
      99925    2    3    3    0    0  0.10093383201E+03 -0.58683782963E+01  0.27158754814E+03  0.39135496573E+03  0.26301489803E+03 0.  0.
         25    1    4    4    0    0  0.31678966115E+02 -0.28246536549E+02  0.16633707352E+03  0.21240751834E+03  0.12509000000E+03 0.  0.
         25    1    3    3    0    0 -0.10093383201E+03  0.58683782963E+01  0.50358551867E+02  0.16853951512E+03  0.12509000000E+03 0.  0.
         25    1    4    4    0    0  0.69254865900E+02  0.22378158253E+02  0.10525047463E+03  0.17894744739E+03  0.12509000000E+03 0.  0.
<mgrwt>
<rscale>  2 0.45807482E+03</rscale>
<asrwt>0</asrwt>
<pdfrwt beam="1">  1       21 0.64841218E-01 0.45807482E+03</pdfrwt>
<pdfrwt beam="2">  1       21 0.17496205E-01 0.45807482E+03</pdfrwt>
<totfact> 0.59750818E+04</totfact>
</mgrwt>
</event>
<event>
 7    0  0.4831799E-002  0.4555735E+03  0.7546771E-02  0.1026073E+00
         21   -1    0    0  502  501  0.00000000000E+00  0.00000000000E+00  0.37671766798E+02  0.37671766798E+02  0.00000000000E+00 0.  1.
         21   -1    0    0  501  502 -0.00000000000E+00 -0.00000000000E+00 -0.13773393004E+04  0.13773393004E+04  0.00000000000E+00 0.  1.
      99926    2    1    2    0    0  0.35527136788E-14  0.00000000000E+00 -0.13396675336E+04  0.14150110672E+04  0.45557350636E+03 0.  0.
      99925    2    3    3    0    0  0.26241150303E+02  0.15268522313E+02 -0.50217655321E+03  0.56768564206E+03  0.26299044064E+03 0.  0.
         25    1    4    4    0    0 -0.15534554138E+02  0.15105962334E+02 -0.30611147414E+03  0.33139290151E+03  0.12509000000E+03 0.  0.
         25    1    3    3    0    0 -0.26241150303E+02 -0.15268522313E+02 -0.83749098036E+03  0.84732542510E+03  0.12509000000E+03 0.  0.
         25    1    4    4    0    0  0.41775704441E+02  0.16255997897E+00 -0.19606507906E+03  0.23629274055E+03  0.12509000000E+03 0.  0.
<mgrwt>
<rscale>  2 0.45557351E+03</rscale>
<asrwt>0</asrwt>
<pdfrwt beam="1">  1       21 0.55399652E-02 0.45557351E+03</pdfrwt>
<pdfrwt beam="2">  1       21 0.20254992E+00 0.45557351E+03</pdfrwt>
<totfact> 0.25819463E+04</totfact>
</mgrwt>
</event>
<event>
 7    0  0.4831799E-002  0.4660529E+03  0.7546771E-02  0.1023040E+00
         21   -1    0    0  502  501  0.00000000000E+00  0.00000000000E+00  0.69105578713E+02  0.69105578713E+02  0.00000000000E+00 0.  1.
         21   -1    0    0  501  502 -0.00000000000E+00 -0.00000000000E+00 -0.78577325213E+03  0.78577325213E+03  0.00000000000E+00 0.  1.
      99926    2    1    2    0    0  0.00000000000E+00  0.00000000000E+00 -0.71666767341E+03  0.85487883084E+03  0.46605285248E+03 0.  0.
      99925    2    3    3    0    0 -0.77251923562E+02  0.52939338820E+02 -0.59361103077E+03  0.65597966370E+03  0.26299207222E+03 0.  0.
         25    1    3    3    0    0  0.77251923562E+02 -0.52939338820E+02 -0.12305664264E+03  0.19889916714E+03  0.12509000000E+03 0.  0.
         25    1    4    4    0    0 -0.24679989734E+02  0.26851964938E+02 -0.37864248414E+03  0.40043447505E+03  0.12509000000E+03 0.  0.
         25    1    4    4    0    0 -0.52571933829E+02  0.26087373882E+02 -0.21496854663E+03  0.25554518865E+03  0.12509000000E+03 0.  0.
<mgrwt>
<rscale>  2 0.46605285E+03</rscale>
<asrwt>0</asrwt>
<pdfrwt beam="1">  1       21 0.10162586E-01 0.46605285E+03</pdfrwt>
<pdfrwt beam="2">  1       21 0.11555489E+00 0.46605285E+03</pdfrwt>
<totfact> 0.41504620E+04</totfact>
</mgrwt>
</event>
<event>
 7    0  0.4831799E-002  0.4577232E+03  0.7546771E-02  0.1025444E+00
         21   -1    0    0  502  501  0.00000000000E+00  0.00000000000E+00  0.17157442020E+04  0.17157442020E+04  0.00000000000E+00 0.  1.
         21   -1    0    0  501  502 -0.00000000000E+00 -0.00000000000E+00 -0.30527642666E+02  0.30527642666E+02  0.00000000000E+00 0.  1.
      99926    2    1    2    0    0  0.00000000000E+00  0.00000000000E+00  0.16852165593E+04  0.17462718446E+04  0.45772317357E+03 0.  0.
      99925    2    3    3    0    0 -0.39005068715E+02 -0.10454009535E+03  0.94081784547E+03  0.98323385071E+03  0.26298395370E+03 0.  0.
         25    1    3    3    0    0  0.39005068715E+02  0.10454009535E+03  0.74439871384E+03  0.76303799394E+03  0.12509000000E+03 0.  0.
         25    1    4    4    0    0 -0.10300215774E+02 -0.12316618120E+02  0.36780133297E+03  0.38882273874E+03  0.12509000000E+03 0.  0.
         25    1    4    4    0    0 -0.28704852941E+02 -0.92223477227E+02  0.57301651250E+03  0.59441111197E+03  0.12509000000E+03 0.  0.
<mgrwt>
<rscale>  2 0.45772317E+03</rscale>
<asrwt>0</asrwt>
<pdfrwt beam="1">  1       21 0.25231526E+00 0.45772317E+03</pdfrwt>
<pdfrwt beam="2">  1       21 0.44893604E-02 0.45772317E+03</pdfrwt>
<totfact> 0.17932937E+04</totfact>
</mgrwt>
</event>
<event>
 7    0  0.4831799E-002  0.4871978E+03  0.7546771E-02  0.1017176E+00
         21   -1    0    0  502  501  0.00000000000E+00  0.00000000000E+00  0.92089033398E+02  0.92089033398E+02  0.00000000000E+00 0.  1.
         21   -1    0    0  501  502 -0.00000000000E+00 -0.00000000000E+00 -0.64438094408E+03  0.64438094408E+03  0.00000000000E+00 0.  1.
      99926    2    1    2    0    0  0.00000000000E+00  0.00000000000E+00 -0.55229191068E+03  0.73646997747E+03  0.48719777618E+03 0.  0.
      99925    2    3    3    0    0 -0.24223450125E+02  0.12972758691E+03 -0.41450019752E+03  0.50832509662E+03  0.26299803759E+03 0.  0.
         25    1    4    4    0    0 -0.42482160502E+02  0.63955257449E+02 -0.16367031418E+03  0.21984196315E+03  0.12509000000E+03 0.  0.
         25    1    4    4    0    0  0.18258710377E+02  0.65772329460E+02 -0.25082988334E+03  0.28848313348E+03  0.12509000000E+03 0.  0.
         25    1    3    3    0    0  0.24223450125E+02 -0.12972758691E+03 -0.13779171316E+03  0.22814488085E+03  0.12509000000E+03 0.  0.
<mgrwt>
<rscale>  2 0.48719778E+03</rscale>
<asrwt>0</asrwt>
<pdfrwt beam="1">  1       21 0.13542505E-01 0.48719778E+03</pdfrwt>
<pdfrwt beam="2">  1       21 0.94761899E-01 0.48719778E+03</pdfrwt>
<totfact> 0.39869675E+04</totfact>
</mgrwt>
</event>
<event>
 7    0  0.4831799E-002  0.4540287E+03  0.7546771E-02  0.1026527E+00
         21   -1    0    0  502  501  0.00000000000E+00  0.00000000000E+00  0.53985304882E+03  0.53985304882E+03  0.00000000000E+00 0.  1.
         21   -1    0    0  501  502 -0.00000000000E+00 -0.00000000000E+00 -0.95462115923E+02  0.95462115923E+02  0.00000000000E+00 0.  1.
      99926    2    1    2    0    0 -0.14210854715E-13  0.00000000000E+00  0.44439093289E+03  0.63531516474E+03  0.45402869657E+03 0.  0.
      99925    2    3    3    0    0 -0.71192899842E+02  0.64909160961E+02  0.36060134294E+03  0.45657000634E+03  0.26294716960E+03 0.  0.
         25    1    4    4    0    0  0.29063758340E+01  0.14768050397E+02  0.17211602788E+03  0.21330254918E+03  0.12509000000E+03 0.  0.
         25    1    4    4    0    0 -0.74099275676E+02  0.50141110563E+02  0.18848531505E+03  0.24326745716E+03  0.12509000000E+03 0.  0.
         25    1    3    3    0    0  0.71192899842E+02 -0.64909160961E+02  0.83789589959E+02  0.17874515840E+03  0.12509000000E+03 0.  0.
<mgrwt>
<rscale>  2 0.45402870E+03</rscale>
<asrwt>0</asrwt>
<pdfrwt beam="1">  1       21 0.79390152E-01 0.45402870E+03</pdfrwt>
<pdfrwt beam="2">  1       21 0.14038547E-01 0.45402870E+03</pdfrwt>
<totfact> 0.56991162E+04</totfact>
</mgrwt>
</event>
<event>
 7    0  0.4831799E-002  0.4488129E+03  0.7546771E-02  0.1028077E+00
         21   -1    0    0  502  501  0.00000000000E+00  0.00000000000E+00  0.97842806432E+02  0.97842806432E+02  0.00000000000E+00 0.  1.
         21   -1    0    0  501  502 -0.00000000000E+00 -0.00000000000E+00 -0.51468530014E+03  0.51468530014E+03  0.00000000000E+00 0.  1.
      99926    2    1    2    0    0  0.00000000000E+00  0.00000000000E+00 -0.41684249371E+03  0.61252810657E+03  0.44881289730E+03 0.  0.
      99925    2    3    3    0    0 -0.10195690931E+02  0.87247858127E+02 -0.18434590359E+03  0.33428664062E+03  0.26466583660E+03 0.  0.
         25    1    4    4    0    0 -0.20015286265E+02  0.30290203765E+01 -0.69863939457E+02  0.14470060396E+03  0.12509000000E+03 0.  0.
         25    1    3    3    0    0  0.10195690931E+02 -0.87247858127E+02 -0.23249659011E+03  0.27824146595E+03  0.12509000000E+03 0.  0.
         25    1    4    4    0    0  0.98195953339E+01  0.84218837750E+02 -0.11448196414E+03  0.18958603666E+03  0.12509000000E+03 0.  0.
<mgrwt>
<rscale>  2 0.44881290E+03</rscale>
<asrwt>0</asrwt>
<pdfrwt beam="1">  1       21 0.14388648E-01 0.44881290E+03</pdfrwt>
<pdfrwt beam="2">  1       21 0.75689014E-01 0.44881290E+03</pdfrwt>
<totfact> 0.60832258E+04</totfact>
</mgrwt>
</event>
<event>
 7    0  0.4831799E-002  0.4536238E+03  0.7546771E-02  0.1026647E+00
         21   -1    0    0  502  501  0.00000000000E+00  0.00000000000E+00  0.53707629449E+02  0.53707629449E+02  0.00000000000E+00 0.  1.
         21   -1    0    0  501  502 -0.00000000000E+00 -0.00000000000E+00 -0.95784618282E+03  0.95784618282E+03  0.00000000000E+00 0.  1.
      99926    2    1    2    0    0 -0.71054273576E-14  0.14210854715E-13 -0.90413855338E+03  0.10115538123E+04  0.45362384354E+03 0.  0.
      99925    2    3    3    0    0 -0.61168015030E+02  0.92183785111E+02 -0.53403847016E+03  0.60552307945E+03  0.26310023914E+03 0.  0.
         25    1    4    4    0    0 -0.26264704776E+02  0.87808466527E+02 -0.30643795683E+03  0.34344124825E+03  0.12509000000E+03 0.  0.
         25    1    4    4    0    0 -0.34903310254E+02  0.43753185840E+01 -0.22760051333E+03  0.26208183121E+03  0.12509000000E+03 0.  0.
         25    1    3    3    0    0  0.61168015030E+02 -0.92183785111E+02 -0.37010008321E+03  0.40603073282E+03  0.12509000000E+03 0.  0.
<mgrwt>
<rscale>  2 0.45362384E+03</rscale>
<asrwt>0</asrwt>
<pdfrwt beam="1">  1       21 0.78981816E-02 0.45362384E+03</pdfrwt>
<pdfrwt beam="2">  1       21 0.14085972E+00 0.45362384E+03</pdfrwt>
<totfact> 0.39139274E+04</totfact>
</mgrwt>
</event>
<event>
 6    0  0.4831799E-002  0.4150324E+03  0.7546771E-02  0.1038695E+00
         21   -1    0    0  502  501  0.00000000000E+00  0.00000000000E+00  0.21809568217E+04  0.21809568217E+04  0.00000000000E+00 0. -1.
         21   -1    0    0  501  502 -0.00000000000E+00 -0.00000000000E+00 -0.19744988463E+02  0.19744988463E+02  0.00000000000E+00 0. -1.
      99926    2    1    2    0    0  0.71054273576E-14  0.35527136788E-14  0.21612118333E+04  0.22007018102E+04  0.41503237119E+03 0.  0.
         25    1    3    3    0    0  0.13164237326E+02  0.51588717626E+02  0.60330382213E+03  0.61843164766E+03  0.12509000000E+03 0.  0.
         25    1    3    3    0    0  0.45524938444E+02 -0.24658088186E+02  0.80810435769E+03  0.81936603685E+03  0.12509000000E+03 0.  0.
         25    1    3    3    0    0 -0.58689175770E+02 -0.26930629439E+02  0.74980365344E+03  0.76290412567E+03  0.12509000000E+03 0.  0.
<mgrwt>
<rscale>  2 0.41503237E+03</rscale>
<asrwt>0</asrwt>
<pdfrwt beam="1">  1       21 0.32072878E+00 0.41503237E+03</pdfrwt>
<pdfrwt beam="2">  1       21 0.29036763E-02 0.41503237E+03</pdfrwt>
<totfact> 0.14786459E+04</totfact>
</mgrwt>
</event>
<event>
 7    0  0.4831799E-002  0.4539237E+03  0.7546771E-02  0.1026558E+00
         21   -1    0    0  502  501  0.00000000000E+00  0.00000000000E+00  0.49655479853E+03  0.49655479853E+03  0.00000000000E+00 0.  1.
         21   -1    0    0  501  502 -0.00000000000E+00 -0.00000000000E+00 -0.10373817536E+03  0.10373817536E+03  0.00000000000E+00 0.  1.
      99926    2    1    2    0    0 -0.35527136788E-14 -0.71054273576E-14  0.39281662317E+03  0.60029297389E+03  0.45392373264E+03 0.  0.
      99925    2    3    3    0    0 -0.19577050423E+02 -0.33461088751E+02  0.38667237445E+03  0.46918933070E+03  0.26290720324E+03 0.  0.
         25    1    4    4    0    0 -0.23104147718E+02  0.21610449238E+02  0.18777850267E+03  0.22783565859E+03  0.12509000000E+03 0.  0.
         25    1    4    4    0    0  0.35270972943E+01 -0.55071537989E+02  0.19889387178E+03  0.24135367211E+03  0.12509000000E+03 0.  0.
         25    1    3    3    0    0  0.19577050423E+02  0.33461088751E+02  0.61442487172E+01  0.13110364318E+03  0.12509000000E+03 0.  0.
<mgrwt>
<rscale>  2 0.45392373E+03</rscale>
<asrwt>0</asrwt>
<pdfrwt beam="1">  1       21 0.73022763E-01 0.45392373E+03</pdfrwt>
<pdfrwt beam="2">  1       21 0.15255614E-01 0.45392373E+03</pdfrwt>
<totfact> 0.59161732E+04</totfact>
</mgrwt>
</event>
<event>
 7    0  0.4831799E-002  0.4871972E+03  0.7546771E-02  0.1017176E+00
         21   -1    0    0  502  501  0.00000000000E+00  0.00000000000E+00  0.35971637110E+03  0.35971637110E+03  0.00000000000E+00 0.  1.
         21   -1    0    0  501  502 -0.00000000000E+00 -0.00000000000E+00 -0.16496408518E+03  0.16496408518E+03  0.00000000000E+00 0.  1.
      99926    2    1    2    0    0  0.00000000000E+00 -0.17763568394E-14  0.19475228592E+03  0.52468045628E+03  0.48719721708E+03 0.  0.
      99925    2    3    3    0    0 -0.13852176439E+03 -0.15766781827E+02  0.14346549984E+03  0.33047769331E+03  0.26305186849E+03 0.  0.
         25    1    4    4    0    0 -0.87206369661E+02  0.25857186773E+02  0.57908709387E+02  0.16514984632E+03  0.12509000000E+03 0.  0.
         25    1    4    4    0    0 -0.51315394728E+02 -0.41623968600E+02  0.85556790455E+02  0.16532784699E+03  0.12509000000E+03 0.  0.
         25    1    3    3    0    0  0.13852176439E+03  0.15766781827E+02  0.51286786079E+02  0.19420276297E+03  0.12509000000E+03 0.  0.
<mgrwt>
<rscale>  2 0.48719722E+03</rscale>
<asrwt>0</asrwt>
<pdfrwt beam="1">  1       21 0.52899466E-01 0.48719722E+03</pdfrwt>
<pdfrwt beam="2">  1       21 0.24259424E-01 0.48719722E+03</pdfrwt>
<totfact> 0.49623634E+04</totfact>
</mgrwt>
</event>
<event>
 7    0  0.4831799E-002  0.4553687E+03  0.7546771E-02  0.1026133E+00
         21   -1    0    0  502  501  0.00000000000E+00  0.00000000000E+00  0.22727847782E+02  0.22727847782E+02  0.00000000000E+00 0.  1.
         21   -1    0    0  501  502 -0.00000000000E+00 -0.00000000000E+00 -0.22809089818E+04  0.22809089818E+04  0.00000000000E+00 0.  1.
      99926    2    1    2    0    0  0.00000000000E+00  0.44408920985E-15 -0.22581811340E+04  0.23036368296E+04  0.45536865128E+03 0.  0.
      99925    2    3    3    0    0 -0.89757625429E+02  0.33297821416E+01 -0.10754592884E+04  0.11109315051E+04  0.26360692198E+03 0.  0.
         25    1    4    4    0    0 -0.60116405047E+02  0.28432842263E+02 -0.44486866451E+03  0.46688118986E+03  0.12509000000E+03 0.  0.
         25    1    3    3    0    0  0.89757625429E+02 -0.33297821416E+01 -0.11827218456E+04  0.11927053244E+04  0.12509000000E+03 0.  0.
         25    1    4    4    0    0 -0.29641220382E+02 -0.25103060121E+02 -0.63059062387E+03  0.64405031526E+03  0.12509000000E+03 0.  0.
<mgrwt>
<rscale>  2 0.45536865E+03</rscale>
<asrwt>0</asrwt>
<pdfrwt beam="1">  1       21 0.33423307E-02 0.45536865E+03</pdfrwt>
<pdfrwt beam="2">  1       21 0.33542777E+00 0.45536865E+03</pdfrwt>
<totfact> 0.93288888E+03</totfact>
</mgrwt>
</event>
<event>
 7    0  0.4831799E-002  0.4479502E+03  0.7546771E-02  0.1028335E+00
         21   -1    0    0  502  501  0.00000000000E+00  0.00000000000E+00  0.87627240287E+02  0.87627240287E+02  0.00000000000E+00 0.  1.
         21   -1    0    0  501  502 -0.00000000000E+00 -0.00000000000E+00 -0.57247992679E+03  0.57247992679E+03  0.00000000000E+00 0.  1.
      99926    2    1    2    0    0  0.00000000000E+00 -0.14210854715E-13 -0.48485268650E+03  0.66010716708E+03  0.44795015841E+03 0.  0.
      99925    2    3    3    0    0 -0.15841138350E+02 -0.10511135879E+03 -0.31916616202E+03  0.42687150963E+03  0.26277919884E+03 0.  0.
         25    1    3    3    0    0  0.15841138350E+02  0.10511135879E+03 -0.16568652449E+03  0.23323565745E+03  0.12509000000E+03 0.  0.
         25    1    4    4    0    0  0.15672286366E+02 -0.16959714545E+02 -0.14072189338E+03  0.18969294097E+03  0.12509000000E+03 0.  0.
         25    1    4    4    0    0 -0.31513424716E+02 -0.88151644243E+02 -0.17844426864E+03  0.23717856866E+03  0.12509000000E+03 0.  0.
<mgrwt>
<rscale>  2 0.44795016E+03</rscale>
<asrwt>0</asrwt>
<pdfrwt beam="1">  1       21 0.12886359E-01 0.44795016E+03</pdfrwt>
<pdfrwt beam="2">  1       21 0.84188225E-01 0.44795016E+03</pdfrwt>
<totfact> 0.58295965E+04</totfact>
</mgrwt>
</event>
<event>
 7    0  0.4831799E-002  0.4554378E+03  0.7546771E-02  0.1026113E+00
         21   -1    0    0  502  501  0.00000000000E+00  0.00000000000E+00  0.81256760246E+02  0.81256760246E+02  0.00000000000E+00 0.  1.
         21   -1    0    0  501  502 -0.00000000000E+00 -0.00000000000E+00 -0.63817338107E+03  0.63817338107E+03  0.00000000000E+00 0.  1.
      99926    2    1    2    0    0  0.00000000000E+00  0.00000000000E+00 -0.55691662082E+03  0.71943014131E+03  0.45543781758E+03 0.  0.
      99925    2    3    3    0    0  0.60257886746E+01  0.48496317668E+02 -0.51229691807E+03  0.57791466891E+03  0.26296203018E+03 0.  0.
         25    1    3    3    0    0 -0.60257886746E+01 -0.48496317668E+02 -0.44619702752E+02  0.14151547241E+03  0.12509000000E+03 0.  0.
         25    1    4    4    0    0 -0.82545103124E+01  0.63751438908E+02 -0.26909381510E+03  0.30363032182E+03  0.12509000000E+03 0.  0.
         25    1    4    4    0    0  0.14280298987E+02 -0.15255121241E+02 -0.24320310297E+03  0.27428434709E+03  0.12509000000E+03 0.  0.
<mgrwt>
<rscale>  2 0.45543782E+03</rscale>
<asrwt>0</asrwt>
<pdfrwt beam="1">  1       21 0.11949523E-01 0.45543782E+03</pdfrwt>
<pdfrwt beam="2">  1       21 0.93849028E-01 0.45543782E+03</pdfrwt>
<totfact> 0.51682518E+04</totfact>
</mgrwt>
</event>
<event>
 7    0  0.4831799E-002  0.4884209E+03  0.7546771E-02  0.1016846E+00
         21   -1    0    0  502  501  0.00000000000E+00  0.00000000000E+00  0.28604267286E+03  0.28604267286E+03  0.00000000000E+00 0. -1.
         21   -1    0    0  501  502 -0.00000000000E+00 -0.00000000000E+00 -0.20849598994E+03  0.20849598994E+03  0.00000000000E+00 0. -1.
      99926    2    1    2    0    0  0.14210854715E-13  0.00000000000E+00  0.77546682924E+02  0.49453866280E+03  0.48842092601E+03 0.  0.
      99925    2    3    3    0    0  0.90555825315E+02  0.41356621942E+02  0.15038996756E+03  0.31885605155E+03  0.26294735517E+03 0.  0.
         25    1    4    4    0    0  0.31386505518E+02 -0.98137169469E+01  0.98073831068E+02  0.16231884120E+03  0.12509000000E+03 0.  0.
         25    1    4    4    0    0  0.59169319797E+02  0.51170338889E+02  0.52316136490E+02  0.15653721035E+03  0.12509000000E+03 0.  0.
         25    1    3    3    0    0 -0.90555825315E+02 -0.41356621942E+02 -0.72843284634E+02  0.17568261124E+03  0.12509000000E+03 0.  0.
<mgrwt>
<rscale>  2 0.48842093E+03</rscale>
<asrwt>0</asrwt>
<pdfrwt beam="1">  1       21 0.42065099E-01 0.48842093E+03</pdfrwt>
<pdfrwt beam="2">  1       21 0.30661175E-01 0.48842093E+03</pdfrwt>
<totfact> 0.50779599E+04</totfact>
</mgrwt>
</event>
<event>
 7    0  0.4831799E-002  0.4531708E+03  0.7546771E-02  0.1026781E+00
         21   -1    0    0  502  501  0.00000000000E+00  0.00000000000E+00  0.96738113741E+03  0.96738113741E+03  0.00000000000E+00 0. -1.
         21   -1    0    0  501  502 -0.00000000000E+00 -0.00000000000E+00 -0.53072086969E+02  0.53072086969E+02  0.00000000000E+00 0. -1.
      99926    2    1    2    0    0  0.14210854715E-13  0.00000000000E+00  0.91430905044E+03  0.10204532244E+04  0.45317076630E+03 0.  0.
      99925    2    3    3    0    0 -0.11017072031E+03 -0.16607641429E+02  0.57767432012E+03  0.64444278419E+03  0.26303133009E+03 0.  0.
         25    1    4    4    0    0 -0.60447708721E+02 -0.25899141252E+02  0.37705546319E+03  0.40266986655E+03  0.12509000000E+03 0.  0.
         25    1    4    4    0    0 -0.49723011591E+02  0.92914998237E+01  0.20061885693E+03  0.24177291764E+03  0.12509000000E+03 0.  0.
         25    1    3    3    0    0  0.11017072031E+03  0.16607641429E+02  0.33663473032E+03  0.37601044018E+03  0.12509000000E+03 0.  0.
<mgrwt>
<rscale>  2 0.45317077E+03</rscale>
<asrwt>0</asrwt>
<pdfrwt beam="1">  1       21 0.14226192E+00 0.45317077E+03</pdfrwt>
<pdfrwt beam="2">  1       21 0.78047193E-02 0.45317077E+03</pdfrwt>
<totfact> 0.38933652E+04</totfact>
</mgrwt>
</event>
<event>
 7    0  0.4831799E-002  0.4549438E+03  0.7546771E-02  0.1026258E+00
         21   -1    0    0  502  501  0.00000000000E+00  0.00000000000E+00  0.92140879871E+03  0.92140879871E+03  0.00000000000E+00 0.  1.
         21   -1    0    0  501  502 -0.00000000000E+00 -0.00000000000E+00 -0.56156903841E+02  0.56156903841E+02  0.00000000000E+00 0.  1.
      99926    2    1    2    0    0  0.14210854715E-13  0.00000000000E+00  0.86525189487E+03  0.97756570255E+03  0.45494380008E+03 0.  0.
      99925    2    3    3    0    0  0.10069403585E+03 -0.49106948701E+02  0.57679645810E+03  0.64379208411E+03  0.26310323490E+03 0.  0.
         25    1    3    3    0    0 -0.10069403585E+03  0.49106948701E+02  0.28845543676E+03  0.33377361844E+03  0.12509000000E+03 0.  0.
         25    1    4    4    0    0  0.17746924179E+02 -0.34596956323E+02  0.21404615004E+03  0.25094853088E+03  0.12509000000E+03 0.  0.
         25    1    4    4    0    0  0.82947111674E+02 -0.14509992378E+02  0.36275030807E+03  0.39284355323E+03  0.12509000000E+03 0.  0.
<mgrwt>
<rscale>  2 0.45494380E+03</rscale>
<asrwt>0</asrwt>
<pdfrwt beam="1">  1       21 0.13550128E+00 0.45494380E+03</pdfrwt>
<pdfrwt beam="2">  1       21 0.82583688E-02 0.45494380E+03</pdfrwt>
<totfact> 0.40061811E+04</totfact>
</mgrwt>
</event>
<event>
 7    0  0.4831799E-002  0.4547264E+03  0.7546771E-02  0.1026322E+00
         21   -1    0    0  502  501  0.00000000000E+00  0.00000000000E+00  0.41003256628E+03  0.41003256628E+03  0.00000000000E+00 0. -1.
         21   -1    0    0  501  502 -0.00000000000E+00 -0.00000000000E+00 -0.12607300004E+03  0.12607300004E+03  0.00000000000E+00 0. -1.
      99926    2    1    2    0    0  0.00000000000E+00 -0.44408920985E-15  0.28395956624E+03  0.53610556632E+03  0.45472644851E+03 0.  0.
      99925    2    3    3    0    0  0.99867604230E+02 -0.29035333420E+01  0.11658248567E+03  0.30449260450E+03  0.26294923721E+03 0.  0.
         25    1    4    4    0    0  0.52323473599E+02  0.17309036432E+02  0.19822083593E+02  0.13812230714E+03  0.12509000000E+03 0.  0.
         25    1    4    4    0    0  0.47544130631E+02 -0.20212569774E+02  0.96760402073E+02  0.16637029736E+03  0.12509000000E+03 0.  0.
         25    1    3    3    0    0 -0.99867604230E+02  0.29035333420E+01  0.16737708057E+03  0.23161296182E+03  0.12509000000E+03 0.  0.
<mgrwt>
<rscale>  2 0.45472645E+03</rscale>
<asrwt>0</asrwt>
<pdfrwt beam="1">  1       21 0.60298906E-01 0.45472645E+03</pdfrwt>
<pdfrwt beam="2">  1       21 0.18540147E-01 0.45472645E+03</pdfrwt>
<totfact> 0.62930249E+04</totfact>
</mgrwt>
</event>
<event>
 7    0  0.4831799E-002  0.4609600E+03  0.7546771E-02  0.1024503E+00
         21   -1    0    0  502  501  0.00000000000E+00  0.00000000000E+00  0.17506775768E+04  0.17506775768E+04  0.00000000000E+00 0.  1.
         21   -1    0    0  501  502 -0.00000000000E+00 -0.00000000000E+00 -0.30343128381E+02  0.30343128381E+02  0.00000000000E+00 0.  1.
      99926    2    1    2    0    0  0.00000000000E+00  0.14210854715E-13  0.17203344484E+04  0.17810207052E+04  0.46096001765E+03 0.  0.
      99925    2    3    3    0    0 -0.10248264015E+02  0.10782214734E+03  0.88930754004E+03  0.93368141486E+03  0.26298753072E+03 0.  0.
         25    1    4    4    0    0 -0.39218294290E+02  0.69586020314E+02  0.52263192654E+03  0.54329727366E+03  0.12509000000E+03 0.  0.
         25    1    4    4    0    0  0.28970030275E+02  0.38236127021E+02  0.36667561350E+03  0.39038414120E+03  0.12509000000E+03 0.  0.
         25    1    3    3    0    0  0.10248264015E+02 -0.10782214734E+03  0.83102690837E+03  0.84733929031E+03  0.12509000000E+03 0.  0.
<mgrwt>
<rscale>  2 0.46096002E+03</rscale>
<asrwt>0</asrwt>
<pdfrwt beam="1">  1       21 0.25745252E+00 0.46096002E+03</pdfrwt>
<pdfrwt beam="2">  1       21 0.44622260E-02 0.46096002E+03</pdfrwt>
<totfact> 0.16834486E+04</totfact>
</mgrwt>
</event>
<event>
 7    0  0.4831799E-002  0.4565566E+03  0.7546771E-02  0.1025785E+00
         21   -1    0    0  502  501  0.00000000000E+00  0.00000000000E+00  0.32506328212E+02  0.32506328212E+02  0.00000000000E+00 0.  1.
         21   -1    0    0  501  502 -0.00000000000E+00 -0.00000000000E+00 -0.16031026143E+04  0.16031026143E+04  0.00000000000E+00 0.  1.
      99926    2    1    2    0    0  0.71054273576E-14  0.00000000000E+00 -0.15705962861E+04  0.16356089425E+04  0.45655658899E+03 0.  0.
      99925    2    3    3    0    0 -0.41479824396E+02  0.77883258245E+02 -0.12494080594E+04  0.12798059593E+04  0.26286197331E+03 0.  0.
         25    1    3    3    0    0  0.41479824396E+02 -0.77883258245E+02 -0.32118822671E+03  0.35580298316E+03  0.12509000000E+03 0.  0.
         25    1    4    4    0    0 -0.42296400182E+02  0.17964560917E+02 -0.73730574538E+03  0.74925228140E+03  0.12509000000E+03 0.  0.
         25    1    4    4    0    0  0.81657578589E+00  0.59918697328E+02 -0.51210231399E+03  0.53055367794E+03  0.12509000000E+03 0.  0.
<mgrwt>
<rscale>  2 0.45655659E+03</rscale>
<asrwt>0</asrwt>
<pdfrwt beam="1">  1       21 0.47803411E-02 0.45655659E+03</pdfrwt>
<pdfrwt beam="2">  1       21 0.23575045E+00 0.45655659E+03</pdfrwt>
<totfact> 0.20389373E+04</totfact>
</mgrwt>
</event>
<event>
 7    0  0.4831799E-002  0.4562837E+03  0.7546771E-02  0.1025865E+00
         21   -1    0    0  502  501  0.00000000000E+00  0.00000000000E+00  0.55152254983E+03  0.55152254983E+03  0.00000000000E+00 0. -1.
         21   -1    0    0  501  502 -0.00000000000E+00 -0.00000000000E+00 -0.94372739765E+02  0.94372739765E+02  0.00000000000E+00 0. -1.
      99926    2    1    2    0    0  0.14210854715E-13  0.00000000000E+00  0.45714981006E+03  0.64589528959E+03  0.45628365769E+03 0.  0.
      99925    2    3    3    0    0 -0.10833312874E+03  0.28554347527E+02  0.31978188096E+03  0.42894166876E+03  0.26301917471E+03 0.  0.
         25    1    4    4    0    0 -0.96864374255E+02  0.66141341971E+01  0.17451515682E+03  0.23564698562E+03  0.12509000000E+03 0.  0.
         25    1    4    4    0    0 -0.11468754482E+02  0.21940213329E+02  0.14526672414E+03  0.19329468315E+03  0.12509000000E+03 0.  0.
         25    1    3    3    0    0  0.10833312874E+03 -0.28554347527E+02  0.13736792910E+03  0.21695362083E+03  0.12509000000E+03 0.  0.
<mgrwt>
<rscale>  2 0.45628366E+03</rscale>
<asrwt>0</asrwt>
<pdfrwt beam="1">  1       21 0.81106256E-01 0.45628366E+03</pdfrwt>
<pdfrwt beam="2">  1       21 0.13878344E-01 0.45628366E+03</pdfrwt>
<totfact> 0.55375592E+04</totfact>
</mgrwt>
</event>
<event>
 7    0  0.4831799E-002  0.4518372E+03  0.7546771E-02  0.1027176E+00
         21   -1    0    0  502  501  0.00000000000E+00  0.00000000000E+00  0.23965093558E+03  0.23965093558E+03  0.00000000000E+00 0.  1.
         21   -1    0    0  501  502 -0.00000000000E+00 -0.00000000000E+00 -0.21297316800E+03  0.21297316800E+03  0.00000000000E+00 0.  1.
      99926    2    1    2    0    0  0.00000000000E+00 -0.14210854715E-13  0.26677767587E+02  0.45262410358E+03  0.45183722275E+03 0.  0.
      99925    2    3    3    0    0 -0.33569133210E+02  0.10264104103E+03  0.39983025053E+02  0.28683324743E+03  0.26270249243E+03 0.  0.
         25    1    3    3    0    0  0.33569133210E+02 -0.10264104103E+03 -0.13305257467E+02  0.16579085616E+03  0.12509000000E+03 0.  0.
         25    1    4    4    0    0 -0.52683856493E+02  0.69544046491E+02  0.11314836105E+02  0.15292971181E+03  0.12509000000E+03 0.  0.
         25    1    4    4    0    0  0.19114723283E+02  0.33096994541E+02  0.28668188949E+02  0.13390353562E+03  0.12509000000E+03 0.  0.
<mgrwt>
<rscale>  2 0.45183722E+03</rscale>
<asrwt>0</asrwt>
<pdfrwt beam="1">  1       21 0.35242784E-01 0.45183722E+03</pdfrwt>
<pdfrwt beam="2">  1       21 0.31319584E-01 0.45183722E+03</pdfrwt>
<totfact> 0.70482144E+04</totfact>
</mgrwt>
</event>
<event>
 7    0  0.4831799E-002  0.4543111E+03  0.7546771E-02  0.1026444E+00
         21   -1    0    0  502  501  0.00000000000E+00  0.00000000000E+00  0.22054042694E+02  0.22054042694E+02  0.00000000000E+00 0. -1.
         21   -1    0    0  501  502 -0.00000000000E+00 -0.00000000000E+00 -0.23396904429E+04  0.23396904429E+04  0.00000000000E+00 0. -1.
      99926    2    1    2    0    0  0.00000000000E+00  0.00000000000E+00 -0.23176364002E+04  0.23617444856E+04  0.45431105167E+03 0.  0.
      99925    2    3    3    0    0 -0.72550379314E+02  0.78450730407E+02 -0.12755610849E+04  0.13067627106E+04  0.26297267146E+03 0.  0.
         25    1    3    3    0    0  0.72550379314E+02 -0.78450730407E+02 -0.10420753153E+04  0.10549817750E+04  0.12509000000E+03 0.  0.
         25    1    4    4    0    0 -0.49219932128E+02  0.19103978467E+02 -0.77851387401E+03  0.79026509719E+03  0.12509000000E+03 0.  0.
         25    1    4    4    0    0 -0.23330447185E+02  0.59346751939E+02 -0.49704721087E+03  0.51649761342E+03  0.12509000000E+03 0.  0.
<mgrwt>
<rscale>  2 0.45431105E+03</rscale>
<asrwt>0</asrwt>
<pdfrwt beam="1">  1       21 0.32432419E-02 0.45431105E+03</pdfrwt>
<pdfrwt beam="2">  1       21 0.34407208E+00 0.45431105E+03</pdfrwt>
<totfact> 0.86983017E+03</totfact>
</mgrwt>
</event>
<event>
 7    0  0.4831799E-002  0.4522062E+03  0.7546771E-02  0.1027066E+00
         21   -1    0    0  502  501  0.00000000000E+00  0.00000000000E+00  0.20625975193E+03  0.20625975193E+03  0.00000000000E+00 0. -1.
         21   -1    0    0  501  502 -0.00000000000E+00 -0.00000000000E+00 -0.24785546784E+03  0.24785546784E+03  0.00000000000E+00 0. -1.
      99926    2    1    2    0    0  0.00000000000E+00  0.14210854715E-13 -0.41595715909E+02  0.45411521977E+03  0.45220618002E+03 0.  0.
      99925    2    3    3    0    0  0.77837384225E+02  0.69918642981E+02 -0.61856808675E+02  0.28978234114E+03  0.26305943328E+03 0.  0.
         25    1    4    4    0    0  0.65971237968E+02  0.11643297085E+02 -0.11344469903E+02  0.14235159185E+03  0.12509000000E+03 0.  0.
         25    1    3    3    0    0 -0.77837384225E+02 -0.69918642981E+02  0.20261092767E+02  0.16433287863E+03  0.12509000000E+03 0.  0.
         25    1    4    4    0    0  0.11866146257E+02  0.58275345896E+02 -0.50512338772E+02  0.14743074928E+03  0.12509000000E+03 0.  0.
<mgrwt>
<rscale>  2 0.45220618E+03</rscale>
<asrwt>0</asrwt>
<pdfrwt beam="1">  1       21 0.30332317E-01 0.45220618E+03</pdfrwt>
<pdfrwt beam="2">  1       21 0.36449333E-01 0.45220618E+03</pdfrwt>
<totfact> 0.70161639E+04</totfact>
</mgrwt>
</event>
<event>
 7    0  0.4831799E-002  0.4539285E+03  0.7546771E-02  0.1026557E+00
         21   -1    0    0  502  501  0.00000000000E+00  0.00000000000E+00  0.46135069806E+03  0.46135069806E+03  0.00000000000E+00 0.  1.
         21   -1    0    0  501  502 -0.00000000000E+00 -0.00000000000E+00 -0.11165642576E+03  0.11165642576E+03  0.00000000000E+00 0.  1.
      99926    2    1    2    0    0  0.00000000000E+00  0.00000000000E+00  0.34969427230E+03  0.57300712382E+03  0.45392849643E+03 0.  0.
      99925    2    3    3    0    0  0.10722193191E+03 -0.21423160737E+02  0.24985549566E+03  0.37917527938E+03  0.26342101147E+03 0.  0.
         25    1    4    4    0    0  0.89556063061E+02  0.57922559459E+01  0.11318252562E+03  0.19108016869E+03  0.12509000000E+03 0.  0.
         25    1    3    3    0    0 -0.10722193191E+03  0.21423160737E+02  0.99838776645E+02  0.19383184444E+03  0.12509000000E+03 0.  0.
         25    1    4    4    0    0  0.17665868847E+02 -0.27215416683E+02  0.13667297004E+03  0.18809511069E+03  0.12509000000E+03 0.  0.
<mgrwt>
<rscale>  2 0.45392850E+03</rscale>
<asrwt>0</asrwt>
<pdfrwt beam="1">  1       21 0.67845690E-01 0.45392850E+03</pdfrwt>
<pdfrwt beam="2">  1       21 0.16420063E-01 0.45392850E+03</pdfrwt>
<totfact> 0.60885512E+04</totfact>
</mgrwt>
</event>
<event>
 7    0  0.4831799E-002  0.4604638E+03  0.7546771E-02  0.1024647E+00
         21   -1    0    0  502  501  0.00000000000E+00  0.00000000000E+00  0.71628198930E+02  0.71628198930E+02  0.00000000000E+00 0.  1.
         21   -1    0    0  501  502 -0.00000000000E+00 -0.00000000000E+00 -0.74002602736E+03  0.74002602736E+03  0.00000000000E+00 0.  1.
      99926    2    1    2    0    0  0.71054273576E-14  0.00000000000E+00 -0.66839782843E+03  0.81165422629E+03  0.46046381617E+03 0.  0.
      99925    2    3    3    0    0 -0.50889660065E+02  0.37462438666E+02 -0.24199047010E+03  0.36280688571E+03  0.26282362315E+03 0.  0.
         25    1    3    3    0    0  0.50889660065E+02 -0.37462438666E+02 -0.42640735832E+03  0.44884734058E+03  0.12509000000E+03 0.  0.
         25    1    4    4    0    0  0.13709105528E+02  0.10156448109E+02 -0.10072295812E+03  0.16150453679E+03  0.12509000000E+03 0.  0.
         25    1    4    4    0    0 -0.64598765593E+02  0.27305990557E+02 -0.14126751198E+03  0.20130234891E+03  0.12509000000E+03 0.  0.
<mgrwt>
<rscale>  2 0.46046382E+03</rscale>
<asrwt>0</asrwt>
<pdfrwt beam="1">  1       21 0.10533559E-01 0.46046382E+03</pdfrwt>
<pdfrwt beam="2">  1       21 0.10882736E+00 0.46046382E+03</pdfrwt>
<totfact> 0.45235380E+04</totfact>
</mgrwt>
</event>
<event>
 7    0  0.4831799E-002  0.4556471E+03  0.7546771E-02  0.1026051E+00
         21   -1    0    0  502  501  0.00000000000E+00  0.00000000000E+00  0.25975393673E+03  0.25975393673E+03  0.00000000000E+00 0. -1.
         21   -1    0    0  501  502 -0.00000000000E+00 -0.00000000000E+00 -0.19981825167E+03  0.19981825167E+03  0.00000000000E+00 0. -1.
      99926    2    1    2    0    0  0.35527136788E-14  0.00000000000E+00  0.59935685065E+02  0.45957218840E+03  0.45564713321E+03 0.  0.
      99925    2    3    3    0    0 -0.26546454944E+02 -0.98874502677E+02 -0.12374413495E+02  0.28249271471E+03  0.26299833878E+03 0.  0.
         25    1    4    4    0    0  0.15837226880E+02 -0.18981602394E+02 -0.12630057465E+02  0.12813331119E+03  0.12509000000E+03 0.  0.
         25    1    3    3    0    0  0.26546454944E+02  0.98874502677E+02  0.72310098560E+02  0.17707947369E+03  0.12509000000E+03 0.  0.
         25    1    4    4    0    0 -0.42383681824E+02 -0.79892900283E+02  0.25564396936E+00  0.15435940352E+03  0.12509000000E+03 0.  0.
<mgrwt>
<rscale>  2 0.45564713E+03</rscale>
<asrwt>0</asrwt>
<pdfrwt beam="1">  1       21 0.38199108E-01 0.45564713E+03</pdfrwt>
<pdfrwt beam="2">  1       21 0.29385037E-01 0.45564713E+03</pdfrwt>
<totfact> 0.67860856E+04</totfact>
</mgrwt>
</event>
<event>
 7    0  0.4831799E-002  0.4610800E+03  0.7546771E-02  0.1024468E+00
         21   -1    0    0  502  501  0.00000000000E+00  0.00000000000E+00  0.24560335128E+03  0.24560335128E+03  0.00000000000E+00 0.  1.
         21   -1    0    0  501  502 -0.00000000000E+00 -0.00000000000E+00 -0.21640053257E+03  0.21640053257E+03  0.00000000000E+00 0.  1.
      99926    2    1    2    0    0  0.00000000000E+00  0.14210854715E-13  0.29202818703E+02  0.46200388385E+03  0.46108001917E+03 0.  0.
      99925    2    3    3    0    0  0.46530904774E+02  0.84207516161E+02 -0.51848345333E+02  0.28459804920E+03  0.26277703061E+03 0.  0.
         25    1    4    4    0    0  0.27713737491E+02  0.74449507993E+02 -0.53974227172E+02  0.15770702516E+03  0.12509000000E+03 0.  0.
         25    1    4    4    0    0  0.18817167283E+02  0.97580081680E+01  0.21258818386E+01  0.12689102404E+03  0.12509000000E+03 0.  0.
         25    1    3    3    0    0 -0.46530904774E+02 -0.84207516161E+02  0.81051164037E+02  0.17740583465E+03  0.12509000000E+03 0.  0.
<mgrwt>
<rscale>  2 0.46108002E+03</rscale>
<asrwt>0</asrwt>
<pdfrwt beam="1">  1       21 0.36118140E-01 0.46108002E+03</pdfrwt>
<pdfrwt beam="2">  1       21 0.31823608E-01 0.46108002E+03</pdfrwt>
<totfact> 0.64833065E+04</totfact>
</mgrwt>
</event>
<event>
 7    0  0.4831799E-002  0.4580114E+03  0.7546771E-02  0.1025360E+00
         21   -1    0    0  502  501  0.00000000000E+00  0.00000000000E+00  0.81600379478E+03  0.81600379478E+03  0.00000000000E+00 0. -1.
         21   -1    0    0  501  502 -0.00000000000E+00 -0.00000000000E+00 -0.64268843723E+02  0.64268843723E+02  0.00000000000E+00 0. -1.
      99926    2    1    2    0    0  0.00000000000E+00  0.00000000000E+00  0.75173495105E+03  0.88027263850E+03  0.45801144249E+03 0.  0.
      99925    2    3    3    0    0  0.36882583613E+02  0.31030496289E+02  0.26891231112E+03  0.37918539419E+03  0.26295344725E+03 0.  0.
         25    1    3    3    0    0 -0.36882583613E+02 -0.31030496289E+02  0.48282263993E+03  0.50108724431E+03  0.12509000000E+03 0.  0.
         25    1    4    4    0    0 -0.77049092857E+00  0.48567664834E+02  0.11670031161E+03  0.17783667382E+03  0.12509000000E+03 0.  0.
         25    1    4    4    0    0  0.37653074542E+02 -0.17537168545E+02  0.15221199951E+03  0.20134872038E+03  0.12509000000E+03 0.  0.
<mgrwt>
<rscale>  2 0.45801144E+03</rscale>
<asrwt>0</asrwt>
<pdfrwt beam="1">  1       21 0.12000055E+00 0.45801144E+03</pdfrwt>
<pdfrwt beam="2">  1       21 0.94513010E-02 0.45801144E+03</pdfrwt>
<totfact> 0.43072749E+04</totfact>
</mgrwt>
</event>
<event>
 7    0  0.4831799E-002  0.4513398E+03  0.7546771E-02  0.1027323E+00
         21   -1    0    0  502  501  0.00000000000E+00  0.00000000000E+00  0.52869624039E+03  0.52869624039E+03  0.00000000000E+00 0.  1.
         21   -1    0    0  501  502 -0.00000000000E+00 -0.00000000000E+00 -0.96325444969E+02  0.96325444969E+02  0.00000000000E+00 0.  1.
      99926    2    1    2    0    0  0.00000000000E+00  0.00000000000E+00  0.43237079542E+03  0.62502168536E+03  0.45133978601E+03 0.  0.
      99925    2    3    3    0    0  0.91020552523E+01  0.10826430926E+03  0.29377859028E+03  0.40901401074E+03  0.26302584057E+03 0.  0.
         25    1    4    4    0    0  0.27897127673E+02  0.70558206737E+02  0.19680061809E+03  0.24522377872E+03  0.12509000000E+03 0.  0.
         25    1    3    3    0    0 -0.91020552523E+01 -0.10826430926E+03  0.13859220514E+03  0.21600767462E+03  0.12509000000E+03 0.  0.
         25    1    4    4    0    0 -0.18795072421E+02  0.37706102519E+02  0.96977972188E+02  0.16379023202E+03  0.12509000000E+03 0.  0.
<mgrwt>
<rscale>  2 0.45133979E+03</rscale>
<asrwt>0</asrwt>
<pdfrwt beam="1">  1       21 0.77749446E-01 0.45133979E+03</pdfrwt>
<pdfrwt beam="2">  1       21 0.14165507E-01 0.45133979E+03</pdfrwt>
<totfact> 0.58846129E+04</totfact>
</mgrwt>
</event>
<event>
 7    0  0.4831799E-002  0.4524164E+03  0.7546771E-02  0.1027004E+00
         21   -1    0    0  502  501  0.00000000000E+00  0.00000000000E+00  0.28045618304E+03  0.28045618304E+03  0.00000000000E+00 0.  1.
         21   -1    0    0  501  502 -0.00000000000E+00 -0.00000000000E+00 -0.18245328293E+03  0.18245328293E+03  0.00000000000E+00 0.  1.
      99926    2    1    2    0    0  0.00000000000E+00  0.32751579226E-14  0.98002900113E+02  0.46290946597E+03  0.45241640693E+03 0.  0.
      99925    2    3    3    0    0  0.46510033080E+02  0.30986349057E+00  0.16469999223E+03  0.31371399222E+03  0.26292033447E+03 0.  0.
         25    1    3    3    0    0 -0.46510033080E+02 -0.30986349057E+00 -0.66697092121E+02  0.14919547376E+03  0.12509000000E+03 0.  0.
         25    1    4    4    0    0  0.42933514394E+02  0.34702390220E+02  0.74978361195E+02  0.15593846637E+03  0.12509000000E+03 0.  0.
         25    1    4    4    0    0  0.35765186858E+01 -0.34392526730E+02  0.89721631038E+02  0.15777552585E+03  0.12509000000E+03 0.  0.
<mgrwt>
<rscale>  2 0.45241641E+03</rscale>
<asrwt>0</asrwt>
<pdfrwt beam="1">  1       21 0.41243556E-01 0.45241641E+03</pdfrwt>
<pdfrwt beam="2">  1       21 0.26831365E-01 0.45241641E+03</pdfrwt>
<totfact> 0.69378193E+04</totfact>
</mgrwt>
</event>
<event>
 7    0  0.4831799E-002  0.4442702E+03  0.7546771E-02  0.1029445E+00
         21   -1    0    0  502  501  0.00000000000E+00  0.00000000000E+00  0.17301022804E+03  0.17301022804E+03  0.00000000000E+00 0. -1.
         21   -1    0    0  501  502 -0.00000000000E+00 -0.00000000000E+00 -0.28520856718E+03  0.28520856718E+03  0.00000000000E+00 0. -1.
      99926    2    1    2    0    0  0.00000000000E+00  0.00000000000E+00 -0.11219833914E+03  0.45821879522E+03  0.44427018467E+03 0.  0.
      99925    2    3    3    0    0 -0.85014968189E+02  0.53152976916E+02 -0.88383603096E+02  0.29614648567E+03  0.26426936241E+03 0.  0.
         25    1    3    3    0    0  0.85014968189E+02 -0.53152976916E+02 -0.23814736049E+02  0.16207230955E+03  0.12509000000E+03 0.  0.
         25    1    4    4    0    0 -0.82057754062E+02  0.48809418479E+02 -0.52848860647E+02  0.16600103766E+03  0.12509000000E+03 0.  0.
         25    1    4    4    0    0 -0.29572141275E+01  0.43435584370E+01 -0.35534742449E+02  0.13014544800E+03  0.12509000000E+03 0.  0.
<mgrwt>
<rscale>  2 0.44427018E+03</rscale>
<asrwt>0</asrwt>
<pdfrwt beam="1">  1       21 0.25442681E-01 0.44427018E+03</pdfrwt>
<pdfrwt beam="2">  1       21 0.41942436E-01 0.44427018E+03</pdfrwt>
<totfact> 0.74460608E+04</totfact>
</mgrwt>
</event>
<event>
 6    0  0.4831799E-002  0.4512486E+03  0.7546771E-02  0.1027350E+00
         21   -1    0    0  502  501  0.00000000000E+00  0.00000000000E+00  0.39008439834E+03  0.39008439834E+03  0.00000000000E+00 0. -1.
         21   -1    0    0  501  502 -0.00000000000E+00 -0.00000000000E+00 -0.13050078330E+03  0.13050078330E+03  0.00000000000E+00 0. -1.
      99926    2    1    2    0    0  0.00000000000E+00  0.00000000000E+00  0.25958361504E+03  0.52058518164E+03  0.45124857689E+03 0.  0.
         25    1    3    3    0    0  0.24684622898E+02 -0.75001158592E+02  0.15121467307E+03  0.21153697041E+03  0.12509000000E+03 0.  0.
         25    1    3    3    0    0 -0.62210595679E+01 -0.22922044836E+02  0.29355038012E+02  0.13066502240E+03  0.12509000000E+03 0.  0.
         25    1    3    3    0    0 -0.18463563331E+02  0.97923203428E+02  0.79013903963E+02  0.17838318884E+03  0.12509000000E+03 0.  0.
<mgrwt>
<rscale>  2 0.45124858E+03</rscale>
<asrwt>0</asrwt>
<pdfrwt beam="1">  1       21 0.57365352E-01 0.45124858E+03</pdfrwt>
<pdfrwt beam="2">  1       21 0.19191292E-01 0.45124858E+03</pdfrwt>
<totfact> 0.65783061E+04</totfact>
</mgrwt>
</event>
<event>
 7    0  0.4831799E-002  0.4531996E+03  0.7546771E-02  0.1026772E+00
         21   -1    0    0  502  501  0.00000000000E+00  0.00000000000E+00  0.11184717352E+03  0.11184717352E+03  0.00000000000E+00 0. -1.
         21   -1    0    0  501  502 -0.00000000000E+00 -0.00000000000E+00 -0.45908593243E+03  0.45908593243E+03  0.00000000000E+00 0. -1.
      99926    2    1    2    0    0  0.00000000000E+00  0.00000000000E+00 -0.34723875890E+03  0.57093310595E+03  0.45319957611E+03 0.  0.
      99925    2    3    3    0    0  0.27262556396E+02  0.82820025054E+02 -0.30660436219E+03  0.41313239040E+03  0.26281121277E+03 0.  0.
         25    1    4    4    0    0  0.86167324349E+01  0.29119009518E+02 -0.20571576271E+03  0.24266983315E+03  0.12509000000E+03 0.  0.
         25    1    4    4    0    0  0.18645823962E+02  0.53701015536E+02 -0.10088859947E+03  0.17046255725E+03  0.12509000000E+03 0.  0.
         25    1    3    3    0    0 -0.27262556396E+02 -0.82820025054E+02 -0.40634396718E+02  0.15780071555E+03  0.12509000000E+03 0.  0.
<mgrwt>
<rscale>  2 0.45319958E+03</rscale>
<asrwt>0</asrwt>
<pdfrwt beam="1">  1       21 0.16448114E-01 0.45319958E+03</pdfrwt>
<pdfrwt beam="2">  1       21 0.67512636E-01 0.45319958E+03</pdfrwt>
<totfact> 0.61373176E+04</totfact>
</mgrwt>
</event>
<event>
 7    0  0.4831799E-002  0.4474681E+03  0.7546771E-02  0.1028480E+00
         21   -1    0    0  502  501  0.00000000000E+00  0.00000000000E+00  0.44391994546E+02  0.44391994546E+02  0.00000000000E+00 0.  1.
         21   -1    0    0  501  502 -0.00000000000E+00 -0.00000000000E+00 -0.11276113016E+04  0.11276113016E+04  0.00000000000E+00 0.  1.
      99926    2    1    2    0    0 -0.71054273576E-14  0.00000000000E+00 -0.10832193070E+04  0.11720032961E+04  0.44746805361E+03 0.  0.
      99925    2    3    3    0    0 -0.28031783223E+02 -0.10201266080E+03 -0.66282259615E+03  0.72081235378E+03  0.26276280475E+03 0.  0.
         25    1    4    4    0    0  0.13040854692E+02 -0.80877287668E+02 -0.33153061037E+03  0.36369115093E+03  0.12509000000E+03 0.  0.
         25    1    3    3    0    0  0.28031783223E+02  0.10201266080E+03 -0.42039671089E+03  0.45119094235E+03  0.12509000000E+03 0.  0.
         25    1    4    4    0    0 -0.41072637915E+02 -0.21135373135E+02 -0.33129198578E+03  0.35712120285E+03  0.12509000000E+03 0.  0.
<mgrwt>
<rscale>  2 0.44746805E+03</rscale>
<asrwt>0</asrwt>
<pdfrwt beam="1">  1       21 0.65282339E-02 0.44746805E+03</pdfrwt>
<pdfrwt beam="2">  1       21 0.16582521E+00 0.44746805E+03</pdfrwt>
<totfact> 0.35069579E+04</totfact>
</mgrwt>
</event>
<event>
 7    0  0.4831799E-002  0.4232652E+03  0.7546771E-02  0.1036009E+00
         21   -1    0    0  502  501  0.00000000000E+00  0.00000000000E+00  0.36870614441E+03  0.36870614441E+03  0.00000000000E+00 0. -1.
         21   -1    0    0  501  502 -0.00000000000E+00 -0.00000000000E+00 -0.12147439723E+03  0.12147439723E+03  0.00000000000E+00 0. -1.
      99926    2    1    2    0    0  0.00000000000E+00  0.00000000000E+00  0.24723174718E+03  0.49018054164E+03  0.42326519652E+03 0.  0.
      99925    2    3    3    0    0 -0.76235279662E+02 -0.55081900404E+01  0.13370716135E+03  0.30476884376E+03  0.26299103617E+03 0.  0.
         25    1    4    4    0    0 -0.80236530584E+01 -0.26980566272E+02  0.79251869981E+02  0.15073386136E+03  0.12509000000E+03 0.  0.
         25    1    3    3    0    0  0.76235279662E+02  0.55081900404E+01  0.11352458583E+03  0.18541169788E+03  0.12509000000E+03 0.  0.
         25    1    4    4    0    0 -0.68211626604E+02  0.21472376231E+02  0.54455291369E+02  0.15403498240E+03  0.12509000000E+03 0.  0.
<mgrwt>
<rscale>  2 0.42326520E+03</rscale>
<asrwt>0</asrwt>
<pdfrwt beam="1">  1       21 0.54221492E-01 0.42326520E+03</pdfrwt>
<pdfrwt beam="2">  1       21 0.17863882E-01 0.42326520E+03</pdfrwt>
<totfact> 0.85564890E+04</totfact>
</mgrwt>
</event>
<event>
 7    0  0.4831799E-002  0.4517369E+03  0.7546771E-02  0.1027205E+00
         21   -1    0    0  502  501  0.00000000000E+00  0.00000000000E+00  0.26259556746E+03  0.26259556746E+03  0.00000000000E+00 0. -1.
         21   -1    0    0  501  502 -0.00000000000E+00 -0.00000000000E+00 -0.19427808639E+03  0.19427808639E+03  0.00000000000E+00 0. -1.
      99926    2    1    2    0    0 -0.71054273576E-14 -0.71054273576E-14  0.68317481068E+02  0.45687365385E+03  0.45173693380E+03 0.  0.
      99925    2    3    3    0    0  0.45417630158E+02  0.26034132946E+02  0.14107609761E+03  0.30298453276E+03  0.26297647151E+03 0.  0.
         25    1    4    4    0    0  0.26116053807E+02  0.36878776133E+02  0.35115277069E+02  0.13755974404E+03  0.12509000000E+03 0.  0.
         25    1    4    4    0    0  0.19301576351E+02 -0.10844643187E+02  0.10596082054E+03  0.16542478873E+03  0.12509000000E+03 0.  0.
         25    1    3    3    0    0 -0.45417630158E+02 -0.26034132946E+02 -0.72758616541E+02  0.15388912109E+03  0.12509000000E+03 0.  0.
<mgrwt>
<rscale>  2 0.45173693E+03</rscale>
<asrwt>0</asrwt>
<pdfrwt beam="1">  1       21 0.38616995E-01 0.45173693E+03</pdfrwt>
<pdfrwt beam="2">  1       21 0.28570307E-01 0.45173693E+03</pdfrwt>
<totfact> 0.70218504E+04</totfact>
</mgrwt>
</event>
<event>
 7    0  0.4831799E-002  0.4471861E+03  0.7546771E-02  0.1028564E+00
         21   -1    0    0  502  501  0.00000000000E+00  0.00000000000E+00  0.12037102838E+03  0.12037102838E+03  0.00000000000E+00 0.  1.
         21   -1    0    0  501  502 -0.00000000000E+00 -0.00000000000E+00 -0.41533132427E+03  0.41533132427E+03  0.00000000000E+00 0.  1.
      99926    2    1    2    0    0  0.00000000000E+00 -0.14210854715E-13 -0.29496029589E+03  0.53570235265E+03  0.44718612958E+03 0.  0.
      99925    2    3    3    0    0 -0.19998317064E+02  0.83273354034E+02 -0.11220752097E+03  0.29825663461E+03  0.26273962044E+03 0.  0.
         25    1    3    3    0    0  0.19998317064E+02 -0.83273354034E+02 -0.18275277492E+03  0.23744571804E+03  0.12509000000E+03 0.  0.
         25    1    4    4    0    0 -0.11355893174E+02  0.39426912848E+02 -0.99100415866E+02  0.16477814871E+03  0.12509000000E+03 0.  0.
         25    1    4    4    0    0 -0.86424238902E+01  0.43846441185E+02 -0.13107105106E+02  0.13347848591E+03  0.12509000000E+03 0.  0.
<mgrwt>
<rscale>  2 0.44718613E+03</rscale>
<asrwt>0</asrwt>
<pdfrwt beam="1">  1       21 0.17701622E-01 0.44718613E+03</pdfrwt>
<pdfrwt beam="2">  1       21 0.61078136E-01 0.44718613E+03</pdfrwt>
<totfact> 0.66861357E+04</totfact>
</mgrwt>
</event>
<event>
 7    0  0.4831799E-002  0.4517198E+03  0.7546771E-02  0.1027210E+00
         21   -1    0    0  502  501  0.00000000000E+00  0.00000000000E+00  0.12791891650E+03  0.12791891650E+03  0.00000000000E+00 0.  1.
         21   -1    0    0  501  502 -0.00000000000E+00 -0.00000000000E+00 -0.39878921285E+03  0.39878921285E+03  0.00000000000E+00 0.  1.
      99926    2    1    2    0    0  0.00000000000E+00  0.14210854715E-13 -0.27087029635E+03  0.52670812935E+03  0.45171975392E+03 0.  0.
      99925    2    3    3    0    0 -0.10881604762E+02  0.96718217405E+02 -0.23085864771E+03  0.36324173211E+03  0.26301334153E+03 0.  0.
         25    1    4    4    0    0  0.19295269100E+02  0.13726502964E+02 -0.10650176212E+03  0.16598451051E+03  0.12509000000E+03 0.  0.
         25    1    4    4    0    0 -0.30176873862E+02  0.82991714442E+02 -0.12435688559E+03  0.19725722160E+03  0.12509000000E+03 0.  0.
         25    1    3    3    0    0  0.10881604762E+02 -0.96718217405E+02 -0.40011648636E+02  0.16346639724E+03  0.12509000000E+03 0.  0.
<mgrwt>
<rscale>  2 0.45171975E+03</rscale>
<asrwt>0</asrwt>
<pdfrwt beam="1">  1       21 0.18811605E-01 0.45171975E+03</pdfrwt>
<pdfrwt beam="2">  1       21 0.58645473E-01 0.45171975E+03</pdfrwt>
<totfact> 0.65106313E+04</totfact>
</mgrwt>
</event>
<event>
 7    0  0.4831799E-002  0.4530649E+03  0.7546771E-02  0.1026812E+00
         21   -1    0    0  502  501  0.00000000000E+00  0.00000000000E+00  0.49898713168E+03  0.49898713168E+03  0.00000000000E+00 0.  1.
         21   -1    0    0  501  502 -0.00000000000E+00 -0.00000000000E+00 -0.10284223950E+03  0.10284223950E+03  0.00000000000E+00 0.  1.
      99926    2    1    2    0    0  0.00000000000E+00  0.14210854715E-13  0.39614489218E+03  0.60182937117E+03  0.45306491412E+03 0.  0.
      99925    2    3    3    0    0 -0.40360382181E+02  0.86931400706E+02  0.17434075763E+03  0.32974370253E+03  0.26296421945E+03 0.  0.
         25    1    4    4    0    0 -0.57702176940E+02  0.61090060182E+02  0.86499429112E+02  0.17375613950E+03  0.12509000000E+03 0.  0.
         25    1    4    4    0    0  0.17341794759E+02  0.25841340523E+02  0.87841328519E+02  0.15598756303E+03  0.12509000000E+03 0.  0.
         25    1    3    3    0    0  0.40360382181E+02 -0.86931400706E+02  0.22180413455E+03  0.27208566864E+03  0.12509000000E+03 0.  0.
<mgrwt>
<rscale>  2 0.45306491E+03</rscale>
<asrwt>0</asrwt>
<pdfrwt beam="1">  1       21 0.73380459E-01 0.45306491E+03</pdfrwt>
<pdfrwt beam="2">  1       21 0.15123859E-01 0.45306491E+03</pdfrwt>
<totfact> 0.59469818E+04</totfact>
</mgrwt>
</event>
<event>
 6    0  0.4831799E-002  0.4526864E+03  0.7546771E-02  0.1026924E+00
         21   -1    0    0  502  501  0.00000000000E+00  0.00000000000E+00  0.98059989429E+02  0.98059989429E+02  0.00000000000E+00 0.  1.
         21   -1    0    0  501  502 -0.00000000000E+00 -0.00000000000E+00 -0.52244801400E+03  0.52244801400E+03  0.00000000000E+00 0.  1.
      99926    2    1    2    0    0  0.00000000000E+00 -0.35527136788E-14 -0.42438802457E+03  0.62050800343E+03  0.45268641124E+03 0.  0.
         25    1    3    3    0    0 -0.42068653717E+02 -0.33562697685E+02 -0.10957735763E+03  0.17478824819E+03  0.12509000000E+03 0.  0.
         25    1    3    3    0    0 -0.33537119690E+02  0.39308724518E+02 -0.52085292225E+02  0.14501827466E+03  0.12509000000E+03 0.  0.
         25    1    3    3    0    0  0.75605773408E+02 -0.57460268327E+01 -0.26272537472E+03  0.30070148057E+03  0.12509000000E+03 0.  0.
<mgrwt>
<rscale>  2 0.45268641E+03</rscale>
<asrwt>0</asrwt>
<pdfrwt beam="1">  1       21 0.14420586E-01 0.45268641E+03</pdfrwt>
<pdfrwt beam="2">  1       21 0.76830593E-01 0.45268641E+03</pdfrwt>
<totfact> 0.58494699E+04</totfact>
</mgrwt>
</event>
<event>
 7    0  0.4831799E-002  0.4735258E+03  0.7546771E-02  0.1020930E+00
         21   -1    0    0  502  501  0.00000000000E+00  0.00000000000E+00  0.21370889425E+03  0.21370889425E+03  0.00000000000E+00 0. -1.
         21   -1    0    0  501  502 -0.00000000000E+00 -0.00000000000E+00 -0.26230390788E+03  0.26230390788E+03  0.00000000000E+00 0. -1.
      99926    2    1    2    0    0  0.00000000000E+00  0.00000000000E+00 -0.48595013637E+02  0.47601280213E+03  0.47352583081E+03 0.  0.
      99925    2    3    3    0    0 -0.11244536079E+03 -0.53767830990E+02  0.61366773557E+01  0.29113985951E+03  0.26303957911E+03 0.  0.
         25    1    3    3    0    0  0.11244536079E+03  0.53767830990E+02 -0.54731690993E+02  0.18487294261E+03  0.12509000000E+03 0.  0.
         25    1    4    4    0    0 -0.42450683559E+02 -0.22077280586E+02 -0.35486138446E+02  0.13855049973E+03  0.12509000000E+03 0.  0.
         25    1    4    4    0    0 -0.69994677228E+02 -0.31690550403E+02  0.41622815802E+02  0.15258935979E+03  0.12509000000E+03 0.  0.
<mgrwt>
<rscale>  2 0.47352583E+03</rscale>
<asrwt>0</asrwt>
<pdfrwt beam="1">  1       21 0.31427779E-01 0.47352583E+03</pdfrwt>
<pdfrwt beam="2">  1       21 0.38574104E-01 0.47352583E+03</pdfrwt>
<totfact> 0.57977646E+04</totfact>
</mgrwt>
</event>
<event>
 7    0  0.4831799E-002  0.4518226E+03  0.7546771E-02  0.1027180E+00
         21   -1    0    0  502  501  0.00000000000E+00  0.00000000000E+00  0.17440056389E+03  0.17440056389E+03  0.00000000000E+00 0. -1.
         21   -1    0    0  501  502 -0.00000000000E+00 -0.00000000000E+00 -0.29263623977E+03  0.29263623977E+03  0.00000000000E+00 0. -1.
      99926    2    1    2    0    0  0.17763568394E-14  0.17763568394E-14 -0.11823567588E+03  0.46703680366E+03  0.45182264321E+03 0.  0.
      99925    2    3    3    0    0 -0.63510577976E+01  0.13710984452E+02 -0.18728580018E+03  0.32335745651E+03  0.26316486601E+03 0.  0.
         25    1    4    4    0    0 -0.35594270690E+02  0.16526874789E+02 -0.66486311372E+02  0.14699669179E+03  0.12509000000E+03 0.  0.
         25    1    4    4    0    0  0.29243212893E+02 -0.28158903367E+01 -0.12079948881E+03  0.17636076473E+03  0.12509000000E+03 0.  0.
         25    1    3    3    0    0  0.63510577976E+01 -0.13710984452E+02  0.69050124297E+02  0.14367934714E+03  0.12509000000E+03 0.  0.
<mgrwt>
<rscale>  2 0.45182264E+03</rscale>
<asrwt>0</asrwt>
<pdfrwt beam="1">  1       21 0.25647142E-01 0.45182264E+03</pdfrwt>
<pdfrwt beam="2">  1       21 0.43034740E-01 0.45182264E+03</pdfrwt>
<totfact> 0.69389316E+04</totfact>
</mgrwt>
</event>
<event>
 7    0  0.4831799E-002  0.4153950E+03  0.7546771E-02  0.1038576E+00
         21   -1    0    0  502  501  0.00000000000E+00  0.00000000000E+00  0.37788057921E+02  0.37788057921E+02  0.00000000000E+00 0.  1.
         21   -1    0    0  501  502 -0.00000000000E+00 -0.00000000000E+00 -0.11415840643E+04  0.11415840643E+04  0.00000000000E+00 0.  1.
      99926    2    1    2    0    0  0.71054273576E-14  0.71054273576E-14 -0.11037960064E+04  0.11793721222E+04  0.41539496744E+03 0.  0.
      99925    2    3    3    0    0  0.32247604529E+02  0.57472184087E+02 -0.65789571177E+03  0.71159275032E+03  0.26304850276E+03 0.  0.
         25    1    3    3    0    0 -0.32247604529E+02 -0.57472184087E+02 -0.44590029459E+03  0.46777937188E+03  0.12509000000E+03 0.  0.
         25    1    4    4    0    0  0.16932873900E+02  0.27153962445E+02 -0.43489447334E+03  0.45365710723E+03  0.12509000000E+03 0.  0.
         25    1    4    4    0    0  0.15314730629E+02  0.30318221642E+02 -0.22300123842E+03  0.25793564309E+03  0.12509000000E+03 0.  0.
<mgrwt>
<rscale>  2 0.41539497E+03</rscale>
<asrwt>0</asrwt>
<pdfrwt beam="1">  1       21 0.55570682E-02 0.41539497E+03</pdfrwt>
<pdfrwt beam="2">  1       21 0.16787998E+00 0.41539497E+03</pdfrwt>
<totfact> 0.45245010E+04</totfact>
</mgrwt>
</event>
<event>
 7    0  0.4831799E-002  0.4557674E+03  0.7546771E-02  0.1026016E+00
         21   -1    0    0  502  501  0.00000000000E+00  0.00000000000E+00  0.16791843647E+03  0.16791843647E+03  0.00000000000E+00 0.  1.
         21   -1    0    0  501  502 -0.00000000000E+00 -0.00000000000E+00 -0.30926315494E+03  0.30926315494E+03  0.00000000000E+00 0.  1.
      99926    2    1    2    0    0  0.00000000000E+00  0.00000000000E+00 -0.14134471847E+03  0.47718159141E+03  0.45576742067E+03 0.  0.
      99925    2    3    3    0    0 -0.98851939332E+01 -0.97898579039E+02 -0.14907263604E+03  0.31784208706E+03  0.26290510199E+03 0.  0.
         25    1    4    4    0    0  0.12392230928E+02 -0.17161430128E+02 -0.44090820727E+02  0.13431154323E+03  0.12509000000E+03 0.  0.
         25    1    4    4    0    0 -0.22277424861E+02 -0.80737148910E+02 -0.10498181531E+03  0.18353054383E+03  0.12509000000E+03 0.  0.
         25    1    3    3    0    0  0.98851939332E+01  0.97898579039E+02  0.77279175721E+01  0.15933950435E+03  0.12509000000E+03 0.  0.
<mgrwt>
<rscale>  2 0.45576742E+03</rscale>
<asrwt>0</asrwt>
<pdfrwt beam="1">  1       21 0.24693888E-01 0.45576742E+03</pdfrwt>
<pdfrwt beam="2">  1       21 0.45479875E-01 0.45576742E+03</pdfrwt>
<totfact> 0.66499885E+04</totfact>
</mgrwt>
</event>
<event>
 7    0  0.4831799E-002  0.4561702E+03  0.7546771E-02  0.1025898E+00
         21   -1    0    0  502  501  0.00000000000E+00  0.00000000000E+00  0.12077148021E+03  0.12077148021E+03  0.00000000000E+00 0. -1.
         21   -1    0    0  501  502 -0.00000000000E+00 -0.00000000000E+00 -0.43075408486E+03  0.43075408486E+03  0.00000000000E+00 0. -1.
      99926    2    1    2    0    0  0.00000000000E+00  0.00000000000E+00 -0.30998260465E+03  0.55152556506E+03  0.45617018067E+03 0.  0.
      99925    2    3    3    0    0  0.79855916339E+02  0.67664310099E+02 -0.25006441187E+03  0.37776387722E+03  0.26309296953E+03 0.  0.
         25    1    4    4    0    0  0.74644816588E+02  0.29250602989E+02 -0.16273356541E+03  0.22035691011E+03  0.12509000000E+03 0.  0.
         25    1    4    4    0    0  0.52110997508E+01  0.38413707110E+02 -0.87330846451E+02  0.15740696712E+03  0.12509000000E+03 0.  0.
         25    1    3    3    0    0 -0.79855916339E+02 -0.67664310099E+02 -0.59918192782E+02  0.17376168784E+03  0.12509000000E+03 0.  0.
<mgrwt>
<rscale>  2 0.45617018E+03</rscale>
<asrwt>0</asrwt>
<pdfrwt beam="1">  1       21 0.17760512E-01 0.45617018E+03</pdfrwt>
<pdfrwt beam="2">  1       21 0.63346188E-01 0.45617018E+03</pdfrwt>
<totfact> 0.61197278E+04</totfact>
</mgrwt>
</event>
<event>
 7    0  0.4831799E-002  0.4649375E+03  0.7546771E-02  0.1023359E+00
         21   -1    0    0  502  501  0.00000000000E+00  0.00000000000E+00  0.46944749871E+02  0.46944749871E+02  0.00000000000E+00 0. -1.
         21   -1    0    0  501  502 -0.00000000000E+00 -0.00000000000E+00 -0.11511772840E+04  0.11511772840E+04  0.00000000000E+00 0. -1.
      99926    2    1    2    0    0 -0.71054273576E-14  0.00000000000E+00 -0.11042325342E+04  0.11981220339E+04  0.46493754272E+03 0.  0.
      99925    2    3    3    0    0 -0.41935264321E+02  0.10875692574E+03 -0.59420249675E+03  0.66019566119E+03  0.26304955547E+03 0.  0.
         25    1    4    4    0    0  0.16778190433E+02  0.45284155829E+02 -0.31296028055E+03  0.34047585486E+03  0.12509000000E+03 0.  0.
         25    1    3    3    0    0  0.41935264321E+02 -0.10875692574E+03 -0.51003003742E+03  0.53792637272E+03  0.12509000000E+03 0.  0.
         25    1    4    4    0    0 -0.58713454754E+02  0.63472769912E+02 -0.28124221620E+03  0.31971980633E+03  0.12509000000E+03 0.  0.
<mgrwt>
<rscale>  2 0.46493754E+03</rscale>
<asrwt>0</asrwt>
<pdfrwt beam="1">  1       21 0.69036397E-02 0.46493754E+03</pdfrwt>
<pdfrwt beam="2">  1       21 0.16929078E+00 0.46493754E+03</pdfrwt>
<totfact> 0.29837831E+04</totfact>
</mgrwt>
</event>
<event>
 7    0  0.4831799E-002  0.4455537E+03  0.7546771E-02  0.1029056E+00
         21   -1    0    0  502  501  0.00000000000E+00  0.00000000000E+00  0.76209553307E+03  0.76209553307E+03  0.00000000000E+00 0. -1.
         21   -1    0    0  501  502 -0.00000000000E+00 -0.00000000000E+00 -0.65122450615E+02  0.65122450615E+02  0.00000000000E+00 0. -1.
      99926    2    1    2    0    0  0.00000000000E+00  0.17763568394E-14  0.69697308245E+03  0.82721798369E+03  0.44555371715E+03 0.  0.
      99925    2    3    3    0    0  0.98608710830E+02 -0.85510280427E+01  0.50258703622E+03  0.57576174295E+03  0.26288982053E+03 0.  0.
         25    1    4    4    0    0  0.26986661423E+02  0.28763668293E+02  0.25781153243E+03  0.28925753726E+03  0.12509000000E+03 0.  0.
         25    1    4    4    0    0  0.71622049406E+02 -0.37314696336E+02  0.24477550380E+03  0.28650420570E+03  0.12509000000E+03 0.  0.
         25    1    3    3    0    0 -0.98608710830E+02  0.85510280427E+01  0.19438604623E+03  0.25145624073E+03  0.12509000000E+03 0.  0.
<mgrwt>
<rscale>  2 0.44555372E+03</rscale>
<asrwt>0</asrwt>
<pdfrwt beam="1">  1       21 0.11207287E+00 0.44555372E+03</pdfrwt>
<pdfrwt beam="2">  1       21 0.95768314E-02 0.44555372E+03</pdfrwt>
<totfact> 0.50086701E+04</totfact>
</mgrwt>
</event>
<event>
 7    0  0.4831799E-002  0.4463328E+03  0.7546771E-02  0.1028821E+00
         21   -1    0    0  502  501  0.00000000000E+00  0.00000000000E+00  0.44599501287E+02  0.44599501287E+02  0.00000000000E+00 0.  1.
         21   -1    0    0  501  502 -0.00000000000E+00 -0.00000000000E+00 -0.11166769729E+04  0.11166769729E+04  0.00000000000E+00 0.  1.
      99926    2    1    2    0    0  0.00000000000E+00  0.00000000000E+00 -0.10720774716E+04  0.11612764742E+04  0.44633277312E+03 0.  0.
      99925    2    3    3    0    0  0.70023309982E+02  0.62484893321E+02 -0.80158185964E+03  0.84882966266E+03  0.26300321801E+03 0.  0.
         25    1    3    3    0    0 -0.70023309982E+02 -0.62484893321E+02 -0.27049561199E+03  0.31244681154E+03  0.12509000000E+03 0.  0.
         25    1    4    4    0    0  0.10856737021E+02  0.59522876937E+02 -0.35236724213E+03  0.37877568962E+03  0.12509000000E+03 0.  0.
         25    1    4    4    0    0  0.59166572961E+02  0.29620163840E+01 -0.44921461750E+03  0.47005397304E+03  0.12509000000E+03 0.  0.
<mgrwt>
<rscale>  2 0.44633277E+03</rscale>
<asrwt>0</asrwt>
<pdfrwt beam="1">  1       21 0.65587502E-02 0.44633277E+03</pdfrwt>
<pdfrwt beam="2">  1       21 0.16421720E+00 0.44633277E+03</pdfrwt>
<totfact> 0.35763233E+04</totfact>
</mgrwt>
</event>
<event>
 7    0  0.4831799E-002  0.4491480E+03  0.7546771E-02  0.1027976E+00
         21   -1    0    0  502  501  0.00000000000E+00  0.00000000000E+00  0.61605438242E+03  0.61605438242E+03  0.00000000000E+00 0. -1.
         21   -1    0    0  501  502 -0.00000000000E+00 -0.00000000000E+00 -0.81865310070E+02  0.81865310070E+02  0.00000000000E+00 0. -1.
      99926    2    1    2    0    0  0.00000000000E+00  0.00000000000E+00  0.53418907235E+03  0.69791969249E+03  0.44914800695E+03 0.  0.
      99925    2    3    3    0    0 -0.52291237818E+02  0.64000399036E+02  0.23025350588E+03  0.35901740378E+03  0.26276680653E+03 0.  0.
         25    1    4    4    0    0  0.14097785688E+02  0.23045760809E+02  0.11088058741E+03  0.16932769241E+03  0.12509000000E+03 0.  0.
         25    1    3    3    0    0  0.52291237818E+02 -0.64000399036E+02  0.30393556647E+03  0.33890228872E+03  0.12509000000E+03 0.  0.
         25    1    4    4    0    0 -0.66389023506E+02  0.40954638227E+02  0.11937291847E+03  0.18968971137E+03  0.12509000000E+03 0.  0.
<mgrwt>
<rscale>  2 0.44914801E+03</rscale>
<asrwt>0</asrwt>
<pdfrwt beam="1">  1       21 0.90596230E-01 0.44914801E+03</pdfrwt>
<pdfrwt beam="2">  1       21 0.12039017E-01 0.44914801E+03</pdfrwt>
<totfact> 0.55529677E+04</totfact>
</mgrwt>
</event>
<event>
 7    0  0.4831799E-002  0.4533121E+03  0.7546771E-02  0.1026739E+00
         21   -1    0    0  502  501  0.00000000000E+00  0.00000000000E+00  0.27061089958E+03  0.27061089958E+03  0.00000000000E+00 0.  1.
         21   -1    0    0  501  502 -0.00000000000E+00 -0.00000000000E+00 -0.18984070760E+03  0.18984070760E+03  0.00000000000E+00 0.  1.
      99926    2    1    2    0    0  0.00000000000E+00  0.00000000000E+00  0.80770191979E+02  0.46045160719E+03  0.45331209850E+03 0.  0.
      99925    2    3    3    0    0 -0.15472178702E+02 -0.11048081647E+03  0.58324146668E+02  0.29134592375E+03  0.26274577461E+03 0.  0.
         25    1    3    3    0    0  0.15472178702E+02  0.11048081647E+03  0.22446045311E+02  0.16910568344E+03  0.12509000000E+03 0.  0.
         25    1    4    4    0    0 -0.27508475150E+01 -0.16018786821E+02  0.87181673057E+01  0.12644241074E+03  0.12509000000E+03 0.  0.
         25    1    4    4    0    0 -0.12721331187E+02 -0.94462029647E+02  0.49605979363E+02  0.16490351300E+03  0.12509000000E+03 0.  0.
<mgrwt>
<rscale>  2 0.45331210E+03</rscale>
<asrwt>0</asrwt>
<pdfrwt beam="1">  1       21 0.39795721E-01 0.45331210E+03</pdfrwt>
<pdfrwt beam="2">  1       21 0.27917751E-01 0.45331210E+03</pdfrwt>
<totfact> 0.69071221E+04</totfact>
</mgrwt>
</event>
<event>
 7    0  0.4831799E-002  0.4563655E+03  0.7546771E-02  0.1025841E+00
         21   -1    0    0  502  501  0.00000000000E+00  0.00000000000E+00  0.10986475548E+03  0.10986475548E+03  0.00000000000E+00 0. -1.
         21   -1    0    0  501  502 -0.00000000000E+00 -0.00000000000E+00 -0.47392233146E+03  0.47392233146E+03  0.00000000000E+00 0. -1.
      99926    2    1    2    0    0  0.00000000000E+00  0.00000000000E+00 -0.36405757598E+03  0.58378708695E+03  0.45636547224E+03 0.  0.
      99925    2    3    3    0    0  0.10155187351E+03  0.51804069450E+02 -0.24169798178E+03  0.37494307095E+03  0.26299799891E+03 0.  0.
         25    1    4    4    0    0  0.43467424627E+02 -0.12007041267E+02 -0.13328294659E+03  0.18826958861E+03  0.12509000000E+03 0.  0.
         25    1    3    3    0    0 -0.10155187351E+03 -0.51804069450E+02 -0.12235959420E+03  0.20884401600E+03  0.12509000000E+03 0.  0.
         25    1    4    4    0    0  0.58084448881E+02  0.63811110718E+02 -0.10841503519E+03  0.18667348234E+03  0.12509000000E+03 0.  0.
<mgrwt>
<rscale>  2 0.45636547E+03</rscale>
<asrwt>0</asrwt>
<pdfrwt beam="1">  1       21 0.16156581E-01 0.45636547E+03</pdfrwt>
<pdfrwt beam="2">  1       21 0.69694462E-01 0.45636547E+03</pdfrwt>
<totfact> 0.59047535E+04</totfact>
</mgrwt>
</event>
<event>
 7    0  0.4831799E-002  0.4551476E+03  0.7546771E-02  0.1026198E+00
         21   -1    0    0  502  501  0.00000000000E+00  0.00000000000E+00  0.41498872932E+03  0.41498872932E+03  0.00000000000E+00 0. -1.
         21   -1    0    0  501  502 -0.00000000000E+00 -0.00000000000E+00 -0.12479819105E+03  0.12479819105E+03  0.00000000000E+00 0. -1.
      99926    2    1    2    0    0  0.00000000000E+00  0.00000000000E+00  0.29019053827E+03  0.53978692037E+03  0.45514763638E+03 0.  0.
      99925    2    3    3    0    0 -0.86377882275E+01  0.49746243720E+02  0.62262430550E+02  0.27493218558E+03  0.26298630432E+03 0.  0.
         25    1    4    4    0    0 -0.17337511202E+02  0.63942008535E+02  0.35436237806E+02  0.14591917215E+03  0.12509000000E+03 0.  0.
         25    1    4    4    0    0  0.86997229746E+01 -0.14195764814E+02  0.26826192744E+02  0.12901301344E+03  0.12509000000E+03 0.  0.
         25    1    3    3    0    0  0.86377882275E+01 -0.49746243720E+02  0.22792810772E+03  0.26485473478E+03  0.12509000000E+03 0.  0.
<mgrwt>
<rscale>  2 0.45514764E+03</rscale>
<asrwt>0</asrwt>
<pdfrwt beam="1">  1       21 0.61027754E-01 0.45514764E+03</pdfrwt>
<pdfrwt beam="2">  1       21 0.18352675E-01 0.45514764E+03</pdfrwt>
<totfact> 0.62473463E+04</totfact>
</mgrwt>
</event>
<event>
 7    0  0.4831799E-002  0.4239788E+03  0.7546771E-02  0.1035779E+00
         21   -1    0    0  502  501  0.00000000000E+00  0.00000000000E+00  0.15348222564E+03  0.15348222564E+03  0.00000000000E+00 0.  1.
         21   -1    0    0  501  502 -0.00000000000E+00 -0.00000000000E+00 -0.29279936049E+03  0.29279936049E+03  0.00000000000E+00 0.  1.
      99926    2    1    2    0    0  0.44408920985E-15  0.00000000000E+00 -0.13931713486E+03  0.44628158613E+03  0.42397876132E+03 0.  0.
      99925    2    3    3    0    0 -0.39519419933E+01 -0.54501603080E+02 -0.27807342743E+02  0.27002046046E+03  0.26296721882E+03 0.  0.
         25    1    4    4    0    0 -0.13535985166E+02 -0.70756012909E+00  0.15590684557E+02  0.12678446703E+03  0.12509000000E+03 0.  0.
         25    1    4    4    0    0  0.95840431731E+01 -0.53794042951E+02 -0.43398027300E+02  0.14323599343E+03  0.12509000000E+03 0.  0.
         25    1    3    3    0    0  0.39519419933E+01  0.54501603080E+02 -0.11150979211E+03  0.17626112567E+03  0.12509000000E+03 0.  0.
<mgrwt>
<rscale>  2 0.42397876E+03</rscale>
<asrwt>0</asrwt>
<pdfrwt beam="1">  1       21 0.22570916E-01 0.42397876E+03</pdfrwt>
<pdfrwt beam="2">  1       21 0.43058729E-01 0.42397876E+03</pdfrwt>
<totfact> 0.89269745E+04</totfact>
</mgrwt>
</event>
<event>
 7    0  0.4831799E-002  0.4490997E+03  0.7546771E-02  0.1027991E+00
         21   -1    0    0  502  501  0.00000000000E+00  0.00000000000E+00  0.18223651966E+03  0.18223651966E+03  0.00000000000E+00 0.  1.
         21   -1    0    0  501  502 -0.00000000000E+00 -0.00000000000E+00 -0.27668788284E+03  0.27668788284E+03  0.00000000000E+00 0.  1.
      99926    2    1    2    0    0 -0.35527136788E-14  0.00000000000E+00 -0.94451363176E+02  0.45892440250E+03  0.44909970742E+03 0.  0.
      99925    2    3    3    0    0  0.22144046022E+02 -0.99974770850E+02 -0.26443543000E+02  0.28354514122E+03  0.26308415491E+03 0.  0.
         25    1    3    3    0    0 -0.22144046022E+02  0.99974770850E+02 -0.68007820176E+02  0.17537926128E+03  0.12509000000E+03 0.  0.
         25    1    4    4    0    0 -0.19591064288E+02 -0.59346891290E+02 -0.38492829490E+02  0.14503471766E+03  0.12509000000E+03 0.  0.
         25    1    4    4    0    0  0.41735110310E+02 -0.40627879560E+02  0.12049286490E+02  0.13851042356E+03  0.12509000000E+03 0.  0.
<mgrwt>
<rscale>  2 0.44909971E+03</rscale>
<asrwt>0</asrwt>
<pdfrwt beam="1">  1       21 0.26799488E-01 0.44909971E+03</pdfrwt>
<pdfrwt beam="2">  1       21 0.40689394E-01 0.44909971E+03</pdfrwt>
<totfact> 0.71559906E+04</totfact>
</mgrwt>
</event>
<event>
 7    0  0.4831799E-002  0.4538015E+03  0.7546771E-02  0.1026594E+00
         21   -1    0    0  502  501  0.00000000000E+00  0.00000000000E+00  0.82875930051E+02  0.82875930051E+02  0.00000000000E+00 0. -1.
         21   -1    0    0  501  502 -0.00000000000E+00 -0.00000000000E+00 -0.62121720382E+03  0.62121720382E+03  0.00000000000E+00 0. -1.
      99926    2    1    2    0    0  0.00000000000E+00  0.00000000000E+00 -0.53834127377E+03  0.70409313387E+03  0.45380151401E+03 0.  0.
      99925    2    3    3    0    0 -0.10012387461E+03  0.49862495729E+02 -0.32906696977E+03  0.43585014484E+03  0.26300041714E+03 0.  0.
         25    1    4    4    0    0 -0.12695607196E+02  0.61140219305E+01 -0.12623690137E+03  0.17827457215E+03  0.12509000000E+03 0.  0.
         25    1    4    4    0    0 -0.87428267417E+02  0.43748473798E+02 -0.20283006840E+03  0.25757557269E+03  0.12509000000E+03 0.  0.
         25    1    3    3    0    0  0.10012387461E+03 -0.49862495729E+02 -0.20927430400E+03  0.26824298903E+03  0.12509000000E+03 0.  0.
<mgrwt>
<rscale>  2 0.45380151E+03</rscale>
<asrwt>0</asrwt>
<pdfrwt beam="1">  1       21 0.12187636E-01 0.45380151E+03</pdfrwt>
<pdfrwt beam="2">  1       21 0.91355475E-01 0.45380151E+03</pdfrwt>
<totfact> 0.53181051E+04</totfact>
</mgrwt>
</event>
<event>
 7    0  0.4831799E-002  0.4555491E+03  0.7546771E-02  0.1026080E+00
         21   -1    0    0  502  501  0.00000000000E+00  0.00000000000E+00  0.30199731070E+04  0.30199731070E+04  0.00000000000E+00 0. -1.
         21   -1    0    0  501  502 -0.00000000000E+00 -0.00000000000E+00 -0.17179376061E+02  0.17179376061E+02  0.00000000000E+00 0. -1.
      99926    2    1    2    0    0  0.00000000000E+00  0.00000000000E+00  0.30027937309E+04  0.30371524830E+04  0.45554913543E+03 0.  0.
      99925    2    3    3    0    0 -0.38186062218E+02  0.95079189538E+02  0.22173339747E+04  0.22352218349E+04  0.26296096361E+03 0.  0.
         25    1    3    3    0    0  0.38186062218E+02 -0.95079189538E+02  0.78545975621E+03  0.80193064810E+03  0.12509000000E+03 0.  0.
         25    1    4    4    0    0 -0.51721628862E+02  0.25384089923E+02  0.10081588572E+04  0.10175221218E+04  0.12509000000E+03 0.  0.
         25    1    4    4    0    0  0.13535566645E+02  0.69695099614E+02  0.12091751175E+04  0.12176997131E+04  0.12509000000E+03 0.  0.
<mgrwt>
<rscale>  2 0.45554914E+03</rscale>
<asrwt>0</asrwt>
<pdfrwt beam="1">  1       21 0.44411333E+00 0.45554914E+03</pdfrwt>
<pdfrwt beam="2">  1       21 0.25263809E-02 0.45554914E+03</pdfrwt>
<totfact> 0.30328833E+03</totfact>
</mgrwt>
</event>
<event>
 7    0  0.4831799E-002  0.4495192E+03  0.7546771E-02  0.1027866E+00
         21   -1    0    0  502  501  0.00000000000E+00  0.00000000000E+00  0.15469030513E+03  0.15469030513E+03  0.00000000000E+00 0. -1.
         21   -1    0    0  501  502 -0.00000000000E+00 -0.00000000000E+00 -0.32656786957E+03  0.32656786957E+03  0.00000000000E+00 0. -1.
      99926    2    1    2    0    0  0.00000000000E+00  0.00000000000E+00 -0.17187756444E+03  0.48125817470E+03  0.44951922491E+03 0.  0.
      99925    2    3    3    0    0 -0.61771655472E+02 -0.46917870398E+02 -0.28064073841E+02  0.27547466671E+03  0.26283393194E+03 0.  0.
         25    1    4    4    0    0 -0.20736022869E+02 -0.58328954227E+02  0.35035116106E+01  0.13961386836E+03  0.12509000000E+03 0.  0.
         25    1    3    3    0    0  0.61771655472E+02  0.46917870398E+02 -0.14381349060E+03  0.20578350799E+03  0.12509000000E+03 0.  0.
         25    1    4    4    0    0 -0.41035632603E+02  0.11411083829E+02 -0.31567585451E+02  0.13586079835E+03  0.12509000000E+03 0.  0.
<mgrwt>
<rscale>  2 0.44951922E+03</rscale>
<asrwt>0</asrwt>
<pdfrwt beam="1">  1       21 0.22748575E-01 0.44951922E+03</pdfrwt>
<pdfrwt beam="2">  1       21 0.48024685E-01 0.44951922E+03</pdfrwt>
<totfact> 0.69587298E+04</totfact>
</mgrwt>
</event>
<event>
 7    0  0.4831799E-002  0.4651188E+03  0.7546771E-02  0.1023307E+00
         21   -1    0    0  502  501  0.00000000000E+00  0.00000000000E+00  0.11748077471E+03  0.11748077471E+03  0.00000000000E+00 0.  1.
         21   -1    0    0  501  502 -0.00000000000E+00 -0.00000000000E+00 -0.46036352653E+03  0.46036352653E+03  0.00000000000E+00 0.  1.
      99926    2    1    2    0    0  0.35527136788E-14  0.00000000000E+00 -0.34288275182E+03  0.57784430124E+03  0.46511875363E+03 0.  0.
      99925    2    3    3    0    0 -0.10110579561E+02 -0.96266659592E+02 -0.12077779069E+03  0.30517670979E+03  0.26301341393E+03 0.  0.
         25    1    4    4    0    0 -0.40289559452E+02 -0.35603480797E+02 -0.41616835713E+02  0.14237389354E+03  0.12509000000E+03 0.  0.
         25    1    4    4    0    0  0.30178979891E+02 -0.60663178795E+02 -0.79160954978E+02  0.16280281626E+03  0.12509000000E+03 0.  0.
         25    1    3    3    0    0  0.10110579561E+02  0.96266659592E+02 -0.22210496113E+03  0.27266759145E+03  0.12509000000E+03 0.  0.
<mgrwt>
<rscale>  2 0.46511875E+03</rscale>
<asrwt>0</asrwt>
<pdfrwt beam="1">  1       21 0.17276585E-01 0.46511875E+03</pdfrwt>
<pdfrwt beam="2">  1       21 0.67700518E-01 0.46511875E+03</pdfrwt>
<totfact> 0.55488826E+04</totfact>
</mgrwt>
</event>
<event>
 7    0  0.4831799E-002  0.4592005E+03  0.7546771E-02  0.1025013E+00
         21   -1    0    0  502  501  0.00000000000E+00  0.00000000000E+00  0.51606265596E+03  0.51606265596E+03  0.00000000000E+00 0. -1.
         21   -1    0    0  501  502 -0.00000000000E+00 -0.00000000000E+00 -0.10215090333E+03  0.10215090333E+03  0.00000000000E+00 0. -1.
      99926    2    1    2    0    0 -0.55511151231E-15  0.00000000000E+00  0.41391175263E+03  0.61821355928E+03  0.45920046376E+03 0.  0.
      99925    2    3    3    0    0 -0.50647118777E+00  0.78718999312E+02  0.14241720440E+03  0.30909588721E+03  0.26279396876E+03 0.  0.
         25    1    4    4    0    0 -0.94040714616E+01 -0.12043909041E+01  0.70646352155E+02  0.14397326936E+03  0.12509000000E+03 0.  0.
         25    1    3    3    0    0  0.50647118777E+00 -0.78718999312E+02  0.27149454823E+03  0.30911767207E+03  0.12509000000E+03 0.  0.
         25    1    4    4    0    0  0.88976002738E+01  0.79923390216E+02  0.71770852242E+02  0.16512261785E+03  0.12509000000E+03 0.  0.
<mgrwt>
<rscale>  2 0.45920046E+03</rscale>
<asrwt>0</asrwt>
<pdfrwt beam="1">  1       21 0.75891566E-01 0.45920046E+03</pdfrwt>
<pdfrwt beam="2">  1       21 0.15022192E-01 0.45920046E+03</pdfrwt>
<totfact> 0.55700158E+04</totfact>
</mgrwt>
</event>
<event>
 6    0  0.4831799E-002  0.4525458E+03  0.7546771E-02  0.1026966E+00
         21   -1    0    0  502  501  0.00000000000E+00  0.00000000000E+00  0.17810105350E+03  0.17810105350E+03  0.00000000000E+00 0. -1.
         21   -1    0    0  501  502 -0.00000000000E+00 -0.00000000000E+00 -0.28747399577E+03  0.28747399577E+03  0.00000000000E+00 0. -1.
      99926    2    1    2    0    0  0.14210854715E-13  0.00000000000E+00 -0.10937294227E+03  0.46557504927E+03  0.45254578332E+03 0.  0.
         25    1    3    3    0    0  0.10429673772E+03 -0.26456788718E+02 -0.54750815791E+02  0.17384743627E+03  0.12509000000E+03 0.  0.
         25    1    3    3    0    0 -0.76810353856E+01  0.12683362738E+02 -0.41077319726E+02  0.13249422739E+03  0.12509000000E+03 0.  0.
         25    1    3    3    0    0 -0.96615702338E+02  0.13773425980E+02 -0.13544806750E+02  0.15923338561E+03  0.12509000000E+03 0.  0.
<mgrwt>
<rscale>  2 0.45254578E+03</rscale>
<asrwt>0</asrwt>
<pdfrwt beam="1">  1       21 0.26191332E-01 0.45254578E+03</pdfrwt>
<pdfrwt beam="2">  1       21 0.42275587E-01 0.45254578E+03</pdfrwt>
<totfact> 0.69101872E+04</totfact>
</mgrwt>
</event>
<event>
 7    0  0.4831799E-002  0.4385326E+03  0.7546771E-02  0.1031198E+00
         21   -1    0    0  502  501  0.00000000000E+00  0.00000000000E+00  0.20039867300E+03  0.20039867300E+03  0.00000000000E+00 0. -1.
         21   -1    0    0  501  502 -0.00000000000E+00 -0.00000000000E+00 -0.23991030777E+03  0.23991030777E+03  0.00000000000E+00 0. -1.
      99926    2    1    2    0    0  0.14210854715E-13  0.00000000000E+00 -0.39511634773E+02  0.44030898077E+03  0.43853258632E+03 0.  0.
      99925    2    3    3    0    0 -0.64830944118E+02 -0.46911146515E+02 -0.80220266801E+02  0.28633363273E+03  0.26295997993E+03 0.  0.
         25    1    4    4    0    0 -0.71926485950E+02 -0.37301716945E+02 -0.38510718168E+02  0.15393317051E+03  0.12509000000E+03 0.  0.
         25    1    4    4    0    0  0.70955418314E+01 -0.96094295699E+01 -0.41709548633E+02  0.13240046223E+03  0.12509000000E+03 0.  0.
         25    1    3    3    0    0  0.64830944118E+02  0.46911146515E+02  0.40708632028E+02  0.15397534804E+03  0.12509000000E+03 0.  0.
<mgrwt>
<rscale>  2 0.43853259E+03</rscale>
<asrwt>0</asrwt>
<pdfrwt beam="1">  1       21 0.29470393E-01 0.43853259E+03</pdfrwt>
<pdfrwt beam="2">  1       21 0.35280928E-01 0.43853259E+03</pdfrwt>
<totfact> 0.79589987E+04</totfact>
</mgrwt>
</event>
<event>
 7    0  0.4831799E-002  0.4562664E+03  0.7546771E-02  0.1025870E+00
         21   -1    0    0  502  501  0.00000000000E+00  0.00000000000E+00  0.40732591975E+03  0.40732591975E+03  0.00000000000E+00 0.  1.
         21   -1    0    0  501  502 -0.00000000000E+00 -0.00000000000E+00 -0.12777177351E+03  0.12777177351E+03  0.00000000000E+00 0.  1.
      99926    2    1    2    0    0  0.00000000000E+00 -0.14210854715E-13  0.27955414624E+03  0.53509769326E+03  0.45626639220E+03 0.  0.
      99925    2    3    3    0    0 -0.17286932232E+02 -0.10810056076E+03  0.21460044476E+03  0.35662903860E+03  0.26295693757E+03 0.  0.
         25    1    3    3    0    0  0.17286932232E+02  0.10810056076E+03  0.64953701478E+02  0.17846865467E+03  0.12509000000E+03 0.  0.
         25    1    4    4    0    0  0.99012824611E+01 -0.14641653020E+02  0.96274210715E+02  0.15883527677E+03  0.12509000000E+03 0.  0.
         25    1    4    4    0    0 -0.27188214693E+02 -0.93458907741E+02  0.11832623405E+03  0.19779376183E+03  0.12509000000E+03 0.  0.
<mgrwt>
<rscale>  2 0.45626639E+03</rscale>
<asrwt>0</asrwt>
<pdfrwt beam="1">  1       21 0.59900870E-01 0.45626639E+03</pdfrwt>
<pdfrwt beam="2">  1       21 0.18789967E-01 0.45626639E+03</pdfrwt>
<totfact> 0.62235712E+04</totfact>
</mgrwt>
</event>
<event>
 7    0  0.4831799E-002  0.4529148E+03  0.7546771E-02  0.1026856E+00
         21   -1    0    0  502  501  0.00000000000E+00  0.00000000000E+00  0.13130841531E+03  0.13130841531E+03  0.00000000000E+00 0. -1.
         21   -1    0    0  501  502 -0.00000000000E+00 -0.00000000000E+00 -0.39055342193E+03  0.39055342193E+03  0.00000000000E+00 0. -1.
      99926    2    1    2    0    0  0.00000000000E+00  0.00000000000E+00 -0.25924500662E+03  0.52186183724E+03  0.45291478637E+03 0.  0.
      99925    2    3    3    0    0 -0.10693494219E+03 -0.30465445945E+02 -0.16685758562E+03  0.33069131410E+03  0.26296780428E+03 0.  0.
         25    1    4    4    0    0 -0.36223695949E+02 -0.95900201388E+01 -0.36569755364E+02  0.13560597237E+03  0.12509000000E+03 0.  0.
         25    1    3    3    0    0  0.10693494219E+03  0.30465445945E+02 -0.92387421006E+02  0.19117052314E+03  0.12509000000E+03 0.  0.
         25    1    4    4    0    0 -0.70711246242E+02 -0.20875425806E+02 -0.13028783025E+03  0.19508534173E+03  0.12509000000E+03 0.  0.
<mgrwt>
<rscale>  2 0.45291479E+03</rscale>
<asrwt>0</asrwt>
<pdfrwt beam="1">  1       21 0.19310061E-01 0.45291479E+03</pdfrwt>
<pdfrwt beam="2">  1       21 0.57434327E-01 0.45291479E+03</pdfrwt>
<totfact> 0.64825772E+04</totfact>
</mgrwt>
</event>
<event>
 7    0  0.4831799E-002  0.4469630E+03  0.7546771E-02  0.1028632E+00
         21   -1    0    0  502  501  0.00000000000E+00  0.00000000000E+00  0.20979780588E+04  0.20979780588E+04  0.00000000000E+00 0. -1.
         21   -1    0    0  501  502 -0.00000000000E+00 -0.00000000000E+00 -0.23805770873E+02  0.23805770873E+02  0.00000000000E+00 0. -1.
      99926    2    1    2    0    0  0.00000000000E+00  0.00000000000E+00  0.20741722880E+04  0.21217838297E+04  0.44696301844E+03 0.  0.
      99925    2    3    3    0    0 -0.78771360781E+02  0.37694708054E+02  0.15948311343E+04  0.16187517552E+04  0.26314459850E+03 0.  0.
         25    1    3    3    0    0  0.78771360781E+02 -0.37694708054E+02  0.47934115369E+03  0.50303207454E+03  0.12509000000E+03 0.  0.
         25    1    4    4    0    0 -0.72851905811E+02  0.25238238664E+02  0.10013780228E+04  0.10121016853E+04  0.12509000000E+03 0.  0.
         25    1    4    4    0    0 -0.59194549702E+01  0.12456469390E+02  0.59345311149E+03  0.60665006982E+03  0.12509000000E+03 0.  0.
<mgrwt>
<rscale>  2 0.44696302E+03</rscale>
<asrwt>0</asrwt>
<pdfrwt beam="1">  1       21 0.30852606E+00 0.44696302E+03</pdfrwt>
<pdfrwt beam="2">  1       21 0.35008501E-02 0.44696302E+03</pdfrwt>
<totfact> 0.12588995E+04</totfact>
</mgrwt>
</event>
<event>
 7    0  0.4831799E-002  0.4592270E+03  0.7546771E-02  0.1025006E+00
         21   -1    0    0  502  501  0.00000000000E+00  0.00000000000E+00  0.10007117650E+04  0.10007117650E+04  0.00000000000E+00 0.  1.
         21   -1    0    0  501  502 -0.00000000000E+00 -0.00000000000E+00 -0.52684851319E+02  0.52684851319E+02  0.00000000000E+00 0.  1.
      99926    2    1    2    0    0  0.00000000000E+00 -0.14210854715E-13  0.94802691365E+03  0.10533966163E+04  0.45922696154E+03 0.  0.
      99925    2    3    3    0    0 -0.19897344031E+02  0.11316620815E+03  0.64610157204E+03  0.70697358736E+03  0.26298653361E+03 0.  0.
         25    1    4    4    0    0  0.75744742941E+00  0.16854282626E+02  0.32258263700E+03  0.34639819047E+03  0.12509000000E+03 0.  0.
         25    1    3    3    0    0  0.19897344031E+02 -0.11316620815E+03  0.30192534162E+03  0.34642302894E+03  0.12509000000E+03 0.  0.
         25    1    4    4    0    0 -0.20654791460E+02  0.96311925528E+02  0.32351893504E+03  0.36057539689E+03  0.12509000000E+03 0.  0.
<mgrwt>
<rscale>  2 0.45922696E+03</rscale>
<asrwt>0</asrwt>
<pdfrwt beam="1">  1       21 0.14716348E+00 0.45922696E+03</pdfrwt>
<pdfrwt beam="2">  1       21 0.77477729E-02 0.45922696E+03</pdfrwt>
<totfact> 0.35952162E+04</totfact>
</mgrwt>
</event>
<event>
 7    0  0.4831799E-002  0.4621774E+03  0.7546771E-02  0.1024152E+00
         21   -1    0    0  502  501  0.00000000000E+00  0.00000000000E+00  0.20873616845E+04  0.20873616845E+04  0.00000000000E+00 0.  1.
         21   -1    0    0  501  502 -0.00000000000E+00 -0.00000000000E+00 -0.25583486380E+02  0.25583486380E+02  0.00000000000E+00 0.  1.
      99926    2    1    2    0    0 -0.71054273576E-14  0.00000000000E+00  0.20617781981E+04  0.21129451708E+04  0.46217740847E+03 0.  0.
      99925    2    3    3    0    0  0.52114579156E+02  0.10759575155E+03  0.12888115257E+04  0.13208481062E+04  0.26327133484E+03 0.  0.
         25    1    3    3    0    0 -0.52114579156E+02 -0.10759575155E+03  0.77296667237E+03  0.79209706464E+03  0.12509000000E+03 0.  0.
         25    1    4    4    0    0 -0.86436735954E+01  0.74036075434E+02  0.68785664299E+03  0.70310050701E+03  0.12509000000E+03 0.  0.
         25    1    4    4    0    0  0.60758252751E+02  0.33559676116E+02  0.60095488271E+03  0.61774759918E+03  0.12509000000E+03 0.  0.
<mgrwt>
<rscale>  2 0.46217741E+03</rscale>
<asrwt>0</asrwt>
<pdfrwt beam="1">  1       21 0.30696484E+00 0.46217741E+03</pdfrwt>
<pdfrwt beam="2">  1       21 0.37622788E-02 0.46217741E+03</pdfrwt>
<totfact> 0.11308540E+04</totfact>
</mgrwt>
</event>
<event>
 7    0  0.4831799E-002  0.4543123E+03  0.7546771E-02  0.1026444E+00
         21   -1    0    0  502  501  0.00000000000E+00  0.00000000000E+00  0.55705685894E+03  0.55705685894E+03  0.00000000000E+00 0.  1.
         21   -1    0    0  501  502 -0.00000000000E+00 -0.00000000000E+00 -0.92629550188E+02  0.92629550188E+02  0.00000000000E+00 0.  1.
      99926    2    1    2    0    0  0.00000000000E+00  0.00000000000E+00  0.46442730875E+03  0.64968640913E+03  0.45431234310E+03 0.  0.
      99925    2    3    3    0    0  0.41459012719E+02  0.98518800414E+02  0.34235481188E+03  0.44481082160E+03  0.26310652981E+03 0.  0.
         25    1    4    4    0    0  0.16101042046E+02  0.76351827295E+02  0.13267479623E+03  0.19834050202E+03  0.12509000000E+03 0.  0.
         25    1    3    3    0    0 -0.41459012719E+02 -0.98518800414E+02  0.12207249688E+03  0.20487558753E+03  0.12509000000E+03 0.  0.
         25    1    4    4    0    0  0.25357970673E+02  0.22166973119E+02  0.20968001565E+03  0.24647031959E+03  0.12509000000E+03 0.  0.
<mgrwt>
<rscale>  2 0.45431234E+03</rscale>
<asrwt>0</asrwt>
<pdfrwt beam="1">  1       21 0.81920125E-01 0.45431234E+03</pdfrwt>
<pdfrwt beam="2">  1       21 0.13621993E-01 0.45431234E+03</pdfrwt>
<totfact> 0.56022862E+04</totfact>
</mgrwt>
</event>
<event>
 7    0  0.4831799E-002  0.4543949E+03  0.7546771E-02  0.1026419E+00
         21   -1    0    0  502  501  0.00000000000E+00  0.00000000000E+00  0.71140539351E+03  0.71140539351E+03  0.00000000000E+00 0.  1.
         21   -1    0    0  501  502 -0.00000000000E+00 -0.00000000000E+00 -0.72558759099E+02  0.72558759099E+02  0.00000000000E+00 0.  1.
      99926    2    1    2    0    0  0.14210854715E-13  0.00000000000E+00  0.63884663442E+03  0.78396415261E+03  0.45439494966E+03 0.  0.
      99925    2    3    3    0    0 -0.75928132406E+02 -0.83146988376E+02  0.40501446123E+03  0.49586087897E+03  0.26298820225E+03 0.  0.
         25    1    4    4    0    0  0.36630937973E+00 -0.20935484376E+02  0.18497290754E+03  0.22427865104E+03  0.12509000000E+03 0.  0.
         25    1    4    4    0    0 -0.76294441786E+02 -0.62211504000E+02  0.22004155369E+03  0.27158222793E+03  0.12509000000E+03 0.  0.
         25    1    3    3    0    0  0.75928132406E+02  0.83146988376E+02  0.23383217319E+03  0.28810327365E+03  0.12509000000E+03 0.  0.
<mgrwt>
<rscale>  2 0.45439495E+03</rscale>
<asrwt>0</asrwt>
<pdfrwt beam="1">  1       21 0.10461844E+00 0.45439495E+03</pdfrwt>
<pdfrwt beam="2">  1       21 0.10670406E-01 0.45439495E+03</pdfrwt>
<totfact> 0.48781512E+04</totfact>
</mgrwt>
</event>
<event>
 7    0  0.4831799E-002  0.4603647E+03  0.7546771E-02  0.1024675E+00
         21   -1    0    0  502  501  0.00000000000E+00  0.00000000000E+00  0.27904265705E+03  0.27904265705E+03  0.00000000000E+00 0.  1.
         21   -1    0    0  501  502 -0.00000000000E+00 -0.00000000000E+00 -0.18987749278E+03  0.18987749278E+03  0.00000000000E+00 0.  1.
      99926    2    1    2    0    0  0.00000000000E+00  0.00000000000E+00  0.89165164271E+02  0.46892014983E+03  0.46036472541E+03 0.  0.
      99925    2    3    3    0    0  0.69639951570E+02 -0.78960473358E+02  0.13464879387E+01  0.28332891291E+03  0.26303798330E+03 0.  0.
         25    1    3    3    0    0 -0.69639951570E+02  0.78960473358E+02  0.87818676332E+02  0.18559123692E+03  0.12509000000E+03 0.  0.
         25    1    4    4    0    0  0.14127273508E+02 -0.10917516903E+02  0.24609997603E+02  0.12873201666E+03  0.12509000000E+03 0.  0.
         25    1    4    4    0    0  0.55512678061E+02 -0.68042956455E+02 -0.23263509665E+02  0.15459689625E+03  0.12509000000E+03 0.  0.
<mgrwt>
<rscale>  2 0.46036473E+03</rscale>
<asrwt>0</asrwt>
<pdfrwt beam="1">  1       21 0.41035685E-01 0.46036473E+03</pdfrwt>
<pdfrwt beam="2">  1       21 0.27923161E-01 0.46036473E+03</pdfrwt>
<totfact> 0.64716001E+04</totfact>
</mgrwt>
</event>
<event>
 7    0  0.4831799E-002  0.4531072E+03  0.7546771E-02  0.1026799E+00
         21   -1    0    0  502  501  0.00000000000E+00  0.00000000000E+00  0.10695865214E+03  0.10695865214E+03  0.00000000000E+00 0. -1.
         21   -1    0    0  501  502 -0.00000000000E+00 -0.00000000000E+00 -0.47987269422E+03  0.47987269422E+03  0.00000000000E+00 0. -1.
      99926    2    1    2    0    0  0.17763568394E-14  0.00000000000E+00 -0.37291404208E+03  0.58683134636E+03  0.45310721279E+03 0.  0.
      99925    2    3    3    0    0 -0.87604572177E+01  0.10964233270E+03 -0.25552799444E+03  0.38305406840E+03  0.26332048277E+03 0.  0.
         25    1    4    4    0    0  0.19219218614E+02  0.31664868800E+02 -0.15431449964E+03  0.20207056980E+03  0.12509000000E+03 0.  0.
         25    1    4    4    0    0 -0.27979675832E+02  0.77977463897E+02 -0.10121349480E+03  0.18098349860E+03  0.12509000000E+03 0.  0.
         25    1    3    3    0    0  0.87604572177E+01 -0.10964233270E+03 -0.11738604765E+03  0.20377727796E+03  0.12509000000E+03 0.  0.
<mgrwt>
<rscale>  2 0.45310721E+03</rscale>
<asrwt>0</asrwt>
<pdfrwt beam="1">  1       21 0.15729213E-01 0.45310721E+03</pdfrwt>
<pdfrwt beam="2">  1       21 0.70569515E-01 0.45310721E+03</pdfrwt>
<totfact> 0.60394741E+04</totfact>
</mgrwt>
</event>
<event>
 7    0  0.4831799E-002  0.4500877E+03  0.7546771E-02  0.1027696E+00
         21   -1    0    0  502  501  0.00000000000E+00  0.00000000000E+00  0.78429666413E+02  0.78429666413E+02  0.00000000000E+00 0. -1.
         21   -1    0    0  501  502 -0.00000000000E+00 -0.00000000000E+00 -0.64573443556E+03  0.64573443556E+03  0.00000000000E+00 0. -1.
      99926    2    1    2    0    0  0.00000000000E+00  0.00000000000E+00 -0.56730476914E+03  0.72416410197E+03  0.45008770866E+03 0.  0.
      99925    2    3    3    0    0 -0.67021702556E+02  0.84925595069E+02 -0.34197730945E+03  0.44465696878E+03  0.26280615365E+03 0.  0.
         25    1    4    4    0    0 -0.48013644235E+02  0.51206553987E+02 -0.23613454798E+03  0.27628690533E+03  0.12509000000E+03 0.  0.
         25    1    3    3    0    0  0.67021702556E+02 -0.84925595069E+02 -0.22532745969E+03  0.27950713319E+03  0.12509000000E+03 0.  0.
         25    1    4    4    0    0 -0.19008058320E+02  0.33719041083E+02 -0.10584276147E+03  0.16837006345E+03  0.12509000000E+03 0.  0.
<mgrwt>
<rscale>  2 0.45008771E+03</rscale>
<asrwt>0</asrwt>
<pdfrwt beam="1">  1       21 0.11533775E-01 0.45008771E+03</pdfrwt>
<pdfrwt beam="2">  1       21 0.94960944E-01 0.45008771E+03</pdfrwt>
<totfact> 0.53653580E+04</totfact>
</mgrwt>
</event>
<event>
 7    0  0.4831799E-002  0.4518313E+03  0.7546771E-02  0.1027177E+00
         21   -1    0    0  502  501  0.00000000000E+00  0.00000000000E+00  0.47745701452E+03  0.47745701452E+03  0.00000000000E+00 0. -1.
         21   -1    0    0  501  502 -0.00000000000E+00 -0.00000000000E+00 -0.10689526060E+03  0.10689526060E+03  0.00000000000E+00 0. -1.
      99926    2    1    2    0    0  0.71054273576E-14  0.00000000000E+00  0.37056175392E+03  0.58435227512E+03  0.45183134902E+03 0.  0.
      99925    2    3    3    0    0 -0.35220739817E+02 -0.88688172719E+02  0.16279303103E+03  0.32373484898E+03  0.26305244534E+03 0.  0.
         25    1    3    3    0    0  0.35220739817E+02  0.88688172719E+02  0.20776872289E+03  0.26061742614E+03  0.12509000000E+03 0.  0.
         25    1    4    4    0    0 -0.53652539782E+02 -0.26385242094E+02  0.74239860395E+02  0.15726996216E+03  0.12509000000E+03 0.  0.
         25    1    4    4    0    0  0.18431799966E+02 -0.62302930626E+02  0.88553170634E+02  0.16646488682E+03  0.12509000000E+03 0.  0.
<mgrwt>
<rscale>  2 0.45183135E+03</rscale>
<asrwt>0</asrwt>
<pdfrwt beam="1">  1       21 0.70214266E-01 0.45183135E+03</pdfrwt>
<pdfrwt beam="2">  1       21 0.15719891E-01 0.45183135E+03</pdfrwt>
<totfact> 0.61169701E+04</totfact>
</mgrwt>
</event>
<event>
 7    0  0.4831799E-002  0.4589068E+03  0.7546771E-02  0.1025099E+00
         21   -1    0    0  502  501  0.00000000000E+00  0.00000000000E+00  0.95147652020E+03  0.95147652020E+03  0.00000000000E+00 0.  1.
         21   -1    0    0  501  502 -0.00000000000E+00 -0.00000000000E+00 -0.55333844581E+02  0.55333844581E+02  0.00000000000E+00 0.  1.
      99926    2    1    2    0    0  0.00000000000E+00  0.17763568394E-14  0.89614267562E+03  0.10068103648E+04  0.45890676130E+03 0.  0.
      99925    2    3    3    0    0  0.11131219972E+03 -0.13787927396E+02  0.63387302227E+03  0.69534063605E+03  0.26291268328E+03 0.  0.
         25    1    4    4    0    0  0.30787632506E+02  0.23934926989E+02  0.32562384594E+03  0.35099737348E+03  0.12509000000E+03 0.  0.
         25    1    3    3    0    0 -0.11131219972E+03  0.13787927396E+02  0.26226965336E+03  0.31146972874E+03  0.12509000000E+03 0.  0.
         25    1    4    4    0    0  0.80524567215E+02 -0.37722854385E+02  0.30824917632E+03  0.34434326256E+03  0.12509000000E+03 0.  0.
<mgrwt>
<rscale>  2 0.45890676E+03</rscale>
<asrwt>0</asrwt>
<pdfrwt beam="1">  1       21 0.13992301E+00 0.45890676E+03</pdfrwt>
<pdfrwt beam="2">  1       21 0.81373306E-02 0.45890676E+03</pdfrwt>
<totfact> 0.37738388E+04</totfact>
</mgrwt>
</event>
<event>
 7    0  0.4831799E-002  0.4558383E+03  0.7546771E-02  0.1025995E+00
         21   -1    0    0  502  501  0.00000000000E+00  0.00000000000E+00  0.16484240185E+03  0.16484240185E+03  0.00000000000E+00 0. -1.
         21   -1    0    0  501  502 -0.00000000000E+00 -0.00000000000E+00 -0.31513218971E+03  0.31513218971E+03  0.00000000000E+00 0. -1.
      99926    2    1    2    0    0  0.00000000000E+00  0.00000000000E+00 -0.15028978786E+03  0.47997459157E+03  0.45583833561E+03 0.  0.
      99925    2    3    3    0    0  0.70061940592E+02  0.89611230453E+02 -0.91197277050E+02  0.30087048476E+03  0.26318673430E+03 0.  0.
         25    1    4    4    0    0  0.63220794022E+02  0.15203306042E+02 -0.46927048812E+02  0.14858554883E+03  0.12509000000E+03 0.  0.
         25    1    4    4    0    0  0.68411465705E+01  0.74407924411E+02 -0.44270228238E+02  0.15228493593E+03  0.12509000000E+03 0.  0.
         25    1    3    3    0    0 -0.70061940592E+02 -0.89611230453E+02 -0.59092510808E+02  0.17910410681E+03  0.12509000000E+03 0.  0.
<mgrwt>
<rscale>  2 0.45583834E+03</rscale>
<asrwt>0</asrwt>
<pdfrwt beam="1">  1       21 0.24241530E-01 0.45583834E+03</pdfrwt>
<pdfrwt beam="2">  1       21 0.46342969E-01 0.45583834E+03</pdfrwt>
<totfact> 0.66259945E+04</totfact>
</mgrwt>
</event>
<event>
 7    0  0.4831799E-002  0.4523491E+03  0.7546771E-02  0.1027024E+00
         21   -1    0    0  502  501  0.00000000000E+00  0.00000000000E+00  0.38130212719E+03  0.38130212719E+03  0.00000000000E+00 0. -1.
         21   -1    0    0  501  502 -0.00000000000E+00 -0.00000000000E+00 -0.13415852087E+03  0.13415852087E+03  0.00000000000E+00 0. -1.
      99926    2    1    2    0    0  0.00000000000E+00  0.00000000000E+00  0.24714360631E+03  0.51546064806E+03  0.45234911027E+03 0.  0.
      99925    2    3    3    0    0 -0.83682730030E+02 -0.66411895067E+02  0.18650082740E+03  0.34013696499E+03  0.26362332450E+03 0.  0.
         25    1    3    3    0    0  0.83682730030E+02  0.66411895067E+02  0.60642778910E+02  0.17532368307E+03  0.12509000000E+03 0.  0.
         25    1    4    4    0    0 -0.12089957342E+02 -0.57829375888E+02  0.10997380916E+03  0.17672620232E+03  0.12509000000E+03 0.  0.
         25    1    4    4    0    0 -0.71592772688E+02 -0.85825191792E+01  0.76527018243E+02  0.16341076267E+03  0.12509000000E+03 0.  0.
<mgrwt>
<rscale>  2 0.45234911E+03</rscale>
<asrwt>0</asrwt>
<pdfrwt beam="1">  1       21 0.56073842E-01 0.45234911E+03</pdfrwt>
<pdfrwt beam="2">  1       21 0.19729194E-01 0.45234911E+03</pdfrwt>
<totfact> 0.65565870E+04</totfact>
</mgrwt>
</event>
<event>
 7    0  0.4831799E-002  0.4631172E+03  0.7546771E-02  0.1023881E+00
         21   -1    0    0  502  501  0.00000000000E+00  0.00000000000E+00  0.10710417611E+03  0.10710417611E+03  0.00000000000E+00 0.  1.
         21   -1    0    0  501  502 -0.00000000000E+00 -0.00000000000E+00 -0.50062830172E+03  0.50062830172E+03  0.00000000000E+00 0.  1.
      99926    2    1    2    0    0 -0.35527136788E-14  0.00000000000E+00 -0.39352412560E+03  0.60773247783E+03  0.46311718515E+03 0.  0.
      99925    2    3    3    0    0 -0.24231687277E+02  0.10505434683E+03 -0.17489786168E+03  0.33374608796E+03  0.26300874273E+03 0.  0.
         25    1    3    3    0    0  0.24231687277E+02 -0.10505434683E+03 -0.21862626393E+03  0.27398638987E+03  0.12509000000E+03 0.  0.
         25    1    4    4    0    0 -0.39064532381E+02  0.60758069492E+02 -0.55895430241E+02  0.15488507972E+03  0.12509000000E+03 0.  0.
         25    1    4    4    0    0  0.14832845104E+02  0.44296277342E+02 -0.11900243143E+03  0.17886100824E+03  0.12509000000E+03 0.  0.
<mgrwt>
<rscale>  2 0.46311719E+03</rscale>
<asrwt>0</asrwt>
<pdfrwt beam="1">  1       21 0.15750614E-01 0.46311719E+03</pdfrwt>
<pdfrwt beam="2">  1       21 0.73621811E-01 0.46311719E+03</pdfrwt>
<totfact> 0.54617357E+04</totfact>
</mgrwt>
</event>
<event>
 7    0  0.4831799E-002  0.4547477E+03  0.7546771E-02  0.1026316E+00
         21   -1    0    0  502  501  0.00000000000E+00  0.00000000000E+00  0.30185849058E+03  0.30185849058E+03  0.00000000000E+00 0. -1.
         21   -1    0    0  501  502 -0.00000000000E+00 -0.00000000000E+00 -0.17126858531E+03  0.17126858531E+03  0.00000000000E+00 0. -1.
      99926    2    1    2    0    0  0.00000000000E+00  0.00000000000E+00  0.13058990527E+03  0.47312707589E+03  0.45474773950E+03 0.  0.
      99925    2    3    3    0    0  0.33357298607E+02 -0.73258645456E+01  0.19423397386E+03  0.32868174633E+03  0.26294196339E+03 0.  0.
         25    1    4    4    0    0  0.37931107606E+02 -0.29463132167E+02  0.71025961124E+02  0.15165434493E+03  0.12509000000E+03 0.  0.
         25    1    3    3    0    0 -0.33357298607E+02  0.73258645456E+01 -0.63644068595E+02  0.14444532955E+03  0.12509000000E+03 0.  0.
         25    1    4    4    0    0 -0.45738089996E+01  0.22137267622E+02  0.12320801274E+03  0.17702740141E+03  0.12509000000E+03 0.  0.
<mgrwt>
<rscale>  2 0.45474774E+03</rscale>
<asrwt>0</asrwt>
<pdfrwt beam="1">  1       21 0.44390955E-01 0.45474774E+03</pdfrwt>
<pdfrwt beam="2">  1       21 0.25186557E-01 0.45474774E+03</pdfrwt>
<totfact> 0.67338628E+04</totfact>
</mgrwt>
</event>
<event>
 7    0  0.4831799E-002  0.4584347E+03  0.7546771E-02  0.1025236E+00
         21   -1    0    0  502  501  0.00000000000E+00  0.00000000000E+00  0.77845868305E+02  0.77845868305E+02  0.00000000000E+00 0. -1.
         21   -1    0    0  501  502 -0.00000000000E+00 -0.00000000000E+00 -0.67493112740E+03  0.67493112740E+03  0.00000000000E+00 0. -1.
      99926    2    1    2    0    0  0.00000000000E+00  0.00000000000E+00 -0.59708525910E+03  0.75277699571E+03  0.45843472669E+03 0.  0.
      99925    2    3    3    0    0 -0.75657998744E+02 -0.48580421020E+02 -0.25602037096E+03  0.37853515397E+03  0.26392847965E+03 0.  0.
         25    1    3    3    0    0  0.75657998744E+02  0.48580421020E+02 -0.34106488814E+03  0.37424184173E+03  0.12509000000E+03 0.  0.
         25    1    4    4    0    0 -0.47520699042E+02 -0.18188555524E+02 -0.74497177169E+02  0.15422833039E+03  0.12509000000E+03 0.  0.
         25    1    4    4    0    0 -0.28137299702E+02 -0.30391865496E+02 -0.18152319379E+03  0.22430682358E+03  0.12509000000E+03 0.  0.
<mgrwt>
<rscale>  2 0.45843473E+03</rscale>
<asrwt>0</asrwt>
<pdfrwt beam="1">  1       21 0.11447921E-01 0.45843473E+03</pdfrwt>
<pdfrwt beam="2">  1       21 0.99254580E-01 0.45843473E+03</pdfrwt>
<totfact> 0.48798783E+04</totfact>
</mgrwt>
</event>
<event>
 7    0  0.4831799E-002  0.4504471E+03  0.7546771E-02  0.1027589E+00
         21   -1    0    0  502  501  0.00000000000E+00  0.00000000000E+00  0.27293991314E+03  0.27293991314E+03  0.00000000000E+00 0. -1.
         21   -1    0    0  501  502 -0.00000000000E+00 -0.00000000000E+00 -0.18584917863E+03  0.18584917863E+03  0.00000000000E+00 0. -1.
      99926    2    1    2    0    0 -0.71054273576E-14  0.00000000000E+00  0.87090734510E+02  0.45878909176E+03  0.45044714971E+03 0.  0.
      99925    2    3    3    0    0  0.58650626071E+02 -0.91721480626E+02  0.52150736971E+02  0.28931626953E+03  0.26292865668E+03 0.  0.
         25    1    3    3    0    0 -0.58650626071E+02  0.91721480626E+02  0.34939997540E+02  0.16947282223E+03  0.12509000000E+03 0.  0.
         25    1    4    4    0    0  0.69489944471E+02 -0.52252403187E+02  0.37516817361E+02  0.15688908728E+03  0.12509000000E+03 0.  0.
         25    1    4    4    0    0 -0.10839318399E+02 -0.39469077438E+02  0.14633919609E+02  0.13242718226E+03  0.12509000000E+03 0.  0.
<mgrwt>
<rscale>  2 0.45044715E+03</rscale>
<asrwt>0</asrwt>
<pdfrwt beam="1">  1       21 0.40138223E-01 0.45044715E+03</pdfrwt>
<pdfrwt beam="2">  1       21 0.27330762E-01 0.45044715E+03</pdfrwt>
<totfact> 0.70801700E+04</totfact>
</mgrwt>
</event>
<event>
 7    0  0.4831799E-002  0.4560128E+03  0.7546771E-02  0.1025944E+00
         21   -1    0    0  502  501  0.00000000000E+00  0.00000000000E+00  0.63525008153E+03  0.63525008153E+03  0.00000000000E+00 0.  1.
         21   -1    0    0  501  502 -0.00000000000E+00 -0.00000000000E+00 -0.81836920749E+02  0.81836920749E+02  0.00000000000E+00 0.  1.
      99926    2    1    2    0    0  0.00000000000E+00  0.14210854715E-13  0.55341316078E+03  0.71708700228E+03  0.45601276552E+03 0.  0.
      99925    2    3    3    0    0  0.44060474034E+02 -0.85515432626E+02  0.44532083449E+03  0.52581318365E+03  0.26251598786E+03 0.  0.
         25    1    3    3    0    0 -0.44060474034E+02  0.85515432626E+02  0.10809232629E+03  0.19127381863E+03  0.12509000000E+03 0.  0.
         25    1    4    4    0    0  0.93391320129E+01 -0.81721473519E+02  0.23943920903E+03  0.28239026461E+03  0.12509000000E+03 0.  0.
         25    1    4    4    0    0  0.34721342022E+02 -0.37939591075E+01  0.20588162545E+03  0.24342291905E+03  0.12509000000E+03 0.  0.
<mgrwt>
<rscale>  2 0.45601277E+03</rscale>
<asrwt>0</asrwt>
<pdfrwt beam="1">  1       21 0.93419127E-01 0.45601277E+03</pdfrwt>
<pdfrwt beam="2">  1       21 0.12034842E-01 0.45601277E+03</pdfrwt>
<totfact> 0.51572986E+04</totfact>
</mgrwt>
</event>
<event>
 7    0  0.4831799E-002  0.4570846E+03  0.7546771E-02  0.1025630E+00
         21   -1    0    0  502  501  0.00000000000E+00  0.00000000000E+00  0.11513479075E+03  0.11513479075E+03  0.00000000000E+00 0.  1.
         21   -1    0    0  501  502 -0.00000000000E+00 -0.00000000000E+00 -0.45365595407E+03  0.45365595407E+03  0.00000000000E+00 0.  1.
      99926    2    1    2    0    0  0.00000000000E+00  0.14210854715E-13 -0.33852116332E+03  0.56879074483E+03  0.45708460200E+03 0.  0.
      99925    2    3    3    0    0  0.28605960734E+02  0.84044081218E+02 -0.30380441228E+03  0.41151878458E+03  0.26299977293E+03 0.  0.
         25    1    3    3    0    0 -0.28605960734E+02 -0.84044081218E+02 -0.34716751040E+02  0.15727196025E+03  0.12509000000E+03 0.  0.
         25    1    4    4    0    0  0.10462396598E+02  0.68060814699E+02 -0.20716676719E+03  0.25160944690E+03  0.12509000000E+03 0.  0.
         25    1    4    4    0    0  0.18143564135E+02  0.15983266520E+02 -0.96637645094E+02  0.15990933768E+03  0.12509000000E+03 0.  0.
<mgrwt>
<rscale>  2 0.45708460E+03</rscale>
<asrwt>0</asrwt>
<pdfrwt beam="1">  1       21 0.16931587E-01 0.45708460E+03</pdfrwt>
<pdfrwt beam="2">  1       21 0.66714109E-01 0.45708460E+03</pdfrwt>
<totfact> 0.59652136E+04</totfact>
</mgrwt>
</event>
<event>
 7    0  0.4831799E-002  0.4600271E+03  0.7546771E-02  0.1024773E+00
         21   -1    0    0  502  501  0.00000000000E+00  0.00000000000E+00  0.11756080446E+03  0.11756080446E+03  0.00000000000E+00 0.  1.
         21   -1    0    0  501  502 -0.00000000000E+00 -0.00000000000E+00 -0.45003293685E+03  0.45003293685E+03  0.00000000000E+00 0.  1.
      99926    2    1    2    0    0  0.14210854715E-13  0.00000000000E+00 -0.33247213239E+03  0.56759374132E+03  0.46002710395E+03 0.  0.
      99925    2    3    3    0    0  0.10193834348E+03 -0.59092479690E+02 -0.21027501615E+03  0.35673124977E+03  0.26297957167E+03 0.  0.
         25    1    4    4    0    0  0.58595182129E+02 -0.31223096576E+02 -0.57989725824E+02  0.15303134819E+03  0.12509000000E+03 0.  0.
         25    1    4    4    0    0  0.43343161346E+02 -0.27869383114E+02 -0.15228529033E+03  0.20369990157E+03  0.12509000000E+03 0.  0.
         25    1    3    3    0    0 -0.10193834348E+03  0.59092479690E+02 -0.12219711624E+03  0.21086249155E+03  0.12509000000E+03 0.  0.
<mgrwt>
<rscale>  2 0.46002710E+03</rscale>
<asrwt>0</asrwt>
<pdfrwt beam="1">  1       21 0.17288354E-01 0.46002710E+03</pdfrwt>
<pdfrwt beam="2">  1       21 0.66181313E-01 0.46002710E+03</pdfrwt>
<totfact> 0.58363488E+04</totfact>
</mgrwt>
</event>
<event>
 7    0  0.4831799E-002  0.4470070E+03  0.7546771E-02  0.1028618E+00
         21   -1    0    0  502  501  0.00000000000E+00  0.00000000000E+00  0.13571785876E+03  0.13571785876E+03  0.00000000000E+00 0. -1.
         21   -1    0    0  501  502 -0.00000000000E+00 -0.00000000000E+00 -0.36807110967E+03  0.36807110967E+03  0.00000000000E+00 0. -1.
      99926    2    1    2    0    0  0.00000000000E+00  0.00000000000E+00 -0.23235325091E+03  0.50378896844E+03  0.44700703743E+03 0.  0.
      99925    2    3    3    0    0 -0.42237857825E+02 -0.79336122174E+02 -0.84917075574E+02  0.29056797788E+03  0.26294596998E+03 0.  0.
         25    1    4    4    0    0  0.11954895890E+02 -0.36334827735E+02 -0.65560874333E+02  0.14631772137E+03  0.12509000000E+03 0.  0.
         25    1    4    4    0    0 -0.54192753715E+02 -0.43001294439E+02 -0.19356201241E+02  0.14425025652E+03  0.12509000000E+03 0.  0.
         25    1    3    3    0    0  0.42237857825E+02  0.79336122174E+02 -0.14743617534E+03  0.21322099055E+03  0.12509000000E+03 0.  0.
<mgrwt>
<rscale>  2 0.44700704E+03</rscale>
<asrwt>0</asrwt>
<pdfrwt beam="1">  1       21 0.19958509E-01 0.44700704E+03</pdfrwt>
<pdfrwt beam="2">  1       21 0.54128104E-01 0.44700704E+03</pdfrwt>
<totfact> 0.69298111E+04</totfact>
</mgrwt>
</event>
<event>
 7    0  0.4831799E-002  0.4576288E+03  0.7546771E-02  0.1025471E+00
         21   -1    0    0  502  501  0.00000000000E+00  0.00000000000E+00  0.53533885946E+03  0.53533885946E+03  0.00000000000E+00 0.  1.
         21   -1    0    0  501  502 -0.00000000000E+00 -0.00000000000E+00 -0.97799792545E+02  0.97799792545E+02  0.00000000000E+00 0.  1.
      99926    2    1    2    0    0  0.00000000000E+00  0.00000000000E+00  0.43753906692E+03  0.63313865201E+03  0.45762879890E+03 0.  0.
      99925    2    3    3    0    0 -0.11176025188E+03  0.18600079412E+02  0.24173779691E+03  0.37463920851E+03  0.26283275527E+03 0.  0.
         25    1    4    4    0    0 -0.66737069361E+02  0.47438014412E+02  0.11375070900E+03  0.18785881277E+03  0.12509000000E+03 0.  0.
         25    1    4    4    0    0 -0.45023182517E+02 -0.28837935000E+02  0.12798708792E+03  0.18678039574E+03  0.12509000000E+03 0.  0.
         25    1    3    3    0    0  0.11176025188E+03 -0.18600079412E+02  0.19580127000E+03  0.25849944350E+03  0.12509000000E+03 0.  0.
<mgrwt>
<rscale>  2 0.45762880E+03</rscale>
<asrwt>0</asrwt>
<pdfrwt beam="1">  1       21 0.78726302E-01 0.45762880E+03</pdfrwt>
<pdfrwt beam="2">  1       21 0.14382323E-01 0.45762880E+03</pdfrwt>
<totfact> 0.55522378E+04</totfact>
</mgrwt>
</event>
<event>
 7    0  0.4831799E-002  0.4507839E+03  0.7546771E-02  0.1027489E+00
         21   -1    0    0  502  501  0.00000000000E+00  0.00000000000E+00  0.59767357774E+03  0.59767357774E+03  0.00000000000E+00 0. -1.
         21   -1    0    0  501  502 -0.00000000000E+00 -0.00000000000E+00 -0.84998782078E+02  0.84998782078E+02  0.00000000000E+00 0. -1.
      99926    2    1    2    0    0  0.71054273576E-14  0.00000000000E+00  0.51267479567E+03  0.68267235982E+03  0.45078387810E+03 0.  0.
      99925    2    3    3    0    0  0.62002320574E+02  0.40628201014E+02  0.44524486528E+03  0.52239372093E+03  0.26297770083E+03 0.  0.
         25    1    3    3    0    0 -0.62002320574E+02 -0.40628201014E+02  0.67429930385E+02  0.16027863889E+03  0.12509000000E+03 0.  0.
         25    1    4    4    0    0  0.53466151532E+01 -0.12610891256E+02  0.21242911497E+03  0.24690333707E+03  0.12509000000E+03 0.  0.
         25    1    4    4    0    0  0.56655705421E+02  0.53239092270E+02  0.23281575031E+03  0.27549038386E+03  0.12509000000E+03 0.  0.
<mgrwt>
<rscale>  2 0.45078388E+03</rscale>
<asrwt>0</asrwt>
<pdfrwt beam="1">  1       21 0.87893171E-01 0.45078388E+03</pdfrwt>
<pdfrwt beam="2">  1       21 0.12499821E-01 0.45078388E+03</pdfrwt>
<totfact> 0.55679603E+04</totfact>
</mgrwt>
</event>
<event>
 7    0  0.4831799E-002  0.4363998E+03  0.7546771E-02  0.1031857E+00
         21   -1    0    0  502  501  0.00000000000E+00  0.00000000000E+00  0.54235715666E+03  0.54235715666E+03  0.00000000000E+00 0.  1.
         21   -1    0    0  501  502 -0.00000000000E+00 -0.00000000000E+00 -0.87785672995E+02  0.87785672995E+02  0.00000000000E+00 0.  1.
      99926    2    1    2    0    0 -0.17763568394E-14  0.00000000000E+00  0.45457148366E+03  0.63014282965E+03  0.43639976169E+03 0.  0.
      99925    2    3    3    0    0 -0.13558330760E+02  0.78080963723E+02  0.36619147735E+03  0.45769284025E+03  0.26288033914E+03 0.  0.
         25    1    4    4    0    0  0.30202795123E+02  0.52150643467E+02  0.20171563123E+03  0.24488487587E+03  0.12509000000E+03 0.  0.
         25    1    3    3    0    0  0.13558330760E+02 -0.78080963723E+02  0.88380006315E+02  0.17244998940E+03  0.12509000000E+03 0.  0.
         25    1    4    4    0    0 -0.43761125883E+02  0.25930320257E+02  0.16447584611E+03  0.21280796438E+03  0.12509000000E+03 0.  0.
<mgrwt>
<rscale>  2 0.43639976E+03</rscale>
<asrwt>0</asrwt>
<pdfrwt beam="1">  1       21 0.79758404E-01 0.43639976E+03</pdfrwt>
<pdfrwt beam="2">  1       21 0.12909658E-01 0.43639976E+03</pdfrwt>
<totfact> 0.66033669E+04</totfact>
</mgrwt>
</event>
<event>
 7    0  0.4831799E-002  0.4518235E+03  0.7546771E-02  0.1027180E+00
         21   -1    0    0  502  501  0.00000000000E+00  0.00000000000E+00  0.25521102845E+03  0.25521102845E+03  0.00000000000E+00 0. -1.
         21   -1    0    0  501  502 -0.00000000000E+00 -0.00000000000E+00 -0.19997612082E+03  0.19997612082E+03  0.00000000000E+00 0. -1.
      99926    2    1    2    0    0 -0.71054273576E-14 -0.88817841970E-15  0.55234907627E+02  0.45518714926E+03  0.45182346756E+03 0.  0.
      99925    2    3    3    0    0 -0.45919714366E+02 -0.43266996786E+01 -0.65905213753E+02  0.27504893120E+03  0.26302295881E+03 0.  0.
         25    1    4    4    0    0 -0.51550388972E+02 -0.19147707082E+00 -0.41230262242E+01  0.13535873342E+03  0.12509000000E+03 0.  0.
         25    1    4    4    0    0  0.56306746056E+01 -0.41352226077E+01 -0.61782187529E+02  0.13969019779E+03  0.12509000000E+03 0.  0.
         25    1    3    3    0    0  0.45919714366E+02  0.43266996786E+01  0.12114012138E+03  0.18013821806E+03  0.12509000000E+03 0.  0.
<mgrwt>
<rscale>  2 0.45182347E+03</rscale>
<asrwt>0</asrwt>
<pdfrwt beam="1">  1       21 0.37531034E-01 0.45182347E+03</pdfrwt>
<pdfrwt beam="2">  1       21 0.29408253E-01 0.45182347E+03</pdfrwt>
<totfact> 0.70296692E+04</totfact>
</mgrwt>
</event>
<event>
 7    0  0.4831799E-002  0.4414204E+03  0.7546771E-02  0.1030312E+00
         21   -1    0    0  502  501  0.00000000000E+00  0.00000000000E+00  0.64034878394E+02  0.64034878394E+02  0.00000000000E+00 0. -1.
         21   -1    0    0  501  502 -0.00000000000E+00 -0.00000000000E+00 -0.76072584051E+03  0.76072584051E+03  0.00000000000E+00 0. -1.
      99926    2    1    2    0    0  0.00000000000E+00  0.00000000000E+00 -0.69669096211E+03  0.82476071890E+03  0.44142037419E+03 0.  0.
      99925    2    3    3    0    0  0.49311222478E+02 -0.86594663778E+02 -0.45913925704E+03  0.53838936359E+03  0.26291446712E+03 0.  0.
         25    1    4    4    0    0  0.54003999128E+01 -0.79664083054E+02 -0.24008124145E+03  0.28224464750E+03  0.12509000000E+03 0.  0.
         25    1    3    3    0    0 -0.49311222478E+02  0.86594663778E+02 -0.23755170508E+03  0.28637135531E+03  0.12509000000E+03 0.  0.
         25    1    4    4    0    0  0.43910822565E+02 -0.69305807247E+01 -0.21905801559E+03  0.25614471609E+03  0.12509000000E+03 0.  0.
<mgrwt>
<rscale>  2 0.44142037E+03</rscale>
<asrwt>0</asrwt>
<pdfrwt beam="1">  1       21 0.94168941E-02 0.44142037E+03</pdfrwt>
<pdfrwt beam="2">  1       21 0.11187145E+00 0.44142037E+03</pdfrwt>
<totfact> 0.51903654E+04</totfact>
</mgrwt>
</event>
<event>
 7    0  0.4831799E-002  0.4557257E+03  0.7546771E-02  0.1026028E+00
         21   -1    0    0  502  501  0.00000000000E+00  0.00000000000E+00  0.57725731707E+03  0.57725731707E+03  0.00000000000E+00 0. -1.
         21   -1    0    0  501  502 -0.00000000000E+00 -0.00000000000E+00 -0.89945126709E+02  0.89945126709E+02  0.00000000000E+00 0. -1.
      99926    2    1    2    0    0  0.17763568394E-14  0.00000000000E+00  0.48731219036E+03  0.66720244378E+03  0.45572571807E+03 0.  0.
      99925    2    3    3    0    0 -0.80227531879E+01 -0.28177011178E+02  0.46758502015E+03  0.53722176109E+03  0.26289382075E+03 0.  0.
         25    1    3    3    0    0  0.80227531879E+01  0.28177011178E+02  0.19727170207E+02  0.12998068269E+03  0.12509000000E+03 0.  0.
         25    1    4    4    0    0  0.24045971443E+02 -0.26828195380E+02  0.18166783875E+03  0.22349199661E+03  0.12509000000E+03 0.  0.
         25    1    4    4    0    0 -0.32068724631E+02 -0.13488157980E+01  0.28591718140E+03  0.31372976448E+03  0.12509000000E+03 0.  0.
<mgrwt>
<rscale>  2 0.45572572E+03</rscale>
<asrwt>0</asrwt>
<pdfrwt beam="1">  1       21 0.84890780E-01 0.45572572E+03</pdfrwt>
<pdfrwt beam="2">  1       21 0.13227225E-01 0.45572572E+03</pdfrwt>
<totfact> 0.54408043E+04</totfact>
</mgrwt>
</event>
<event>
 7    0  0.4831799E-002  0.4562907E+03  0.7546771E-02  0.1025863E+00
         21   -1    0    0  502  501  0.00000000000E+00  0.00000000000E+00  0.60271995688E+03  0.60271995688E+03  0.00000000000E+00 0.  1.
         21   -1    0    0  501  502 -0.00000000000E+00 -0.00000000000E+00 -0.86359007500E+02  0.86359007500E+02  0.00000000000E+00 0.  1.
      99926    2    1    2    0    0  0.71054273576E-14  0.00000000000E+00  0.51636094938E+03  0.68907896438E+03  0.45629068488E+03 0.  0.
      99925    2    3    3    0    0  0.63669017338E+02  0.33413094651E+02  0.45898847624E+03  0.53380730748E+03  0.26288712698E+03 0.  0.
         25    1    4    4    0    0  0.29424131427E+02 -0.23967555785E+02  0.22154424500E+03  0.25723449192E+03  0.12509000000E+03 0.  0.
         25    1    3    3    0    0 -0.63669017338E+02 -0.33413094651E+02  0.57372473135E+02  0.15527165690E+03  0.12509000000E+03 0.  0.
         25    1    4    4    0    0  0.34244885911E+02  0.57380650436E+02  0.23744423124E+03  0.27657281556E+03  0.12509000000E+03 0.  0.
<mgrwt>
<rscale>  2 0.45629068E+03</rscale>
<asrwt>0</asrwt>
<pdfrwt beam="1">  1       21 0.88635286E-01 0.45629068E+03</pdfrwt>
<pdfrwt beam="2">  1       21 0.12699854E-01 0.45629068E+03</pdfrwt>
<totfact> 0.52959887E+04</totfact>
</mgrwt>
</event>
<event>
 7    0  0.4831799E-002  0.4537125E+03  0.7546771E-02  0.1026621E+00
         21   -1    0    0  502  501  0.00000000000E+00  0.00000000000E+00  0.40535652086E+03  0.40535652086E+03  0.00000000000E+00 0.  1.
         21   -1    0    0  501  502 -0.00000000000E+00 -0.00000000000E+00 -0.12695923526E+03  0.12695923526E+03  0.00000000000E+00 0.  1.
      99926    2    1    2    0    0  0.00000000000E+00  0.00000000000E+00  0.27839728560E+03  0.53231575612E+03  0.45371248119E+03 0.  0.
      99925    2    3    3    0    0 -0.44353486620E+02  0.80530820977E+02  0.10030177630E+03  0.29605750032E+03  0.26293944600E+03 0.  0.
         25    1    4    4    0    0  0.11132288908E+02  0.14375868321E+02  0.40725299513E+02  0.13280305556E+03  0.12509000000E+03 0.  0.
         25    1    4    4    0    0 -0.55485775528E+02  0.66154952656E+02  0.59576476785E+02  0.16325444476E+03  0.12509000000E+03 0.  0.
         25    1    3    3    0    0  0.44353486620E+02 -0.80530820977E+02  0.17809550930E+03  0.23625825581E+03  0.12509000000E+03 0.  0.
<mgrwt>
<rscale>  2 0.45371248E+03</rscale>
<asrwt>0</asrwt>
<pdfrwt beam="1">  1       21 0.59611253E-01 0.45371248E+03</pdfrwt>
<pdfrwt beam="2">  1       21 0.18670476E-01 0.45371248E+03</pdfrwt>
<totfact> 0.63697121E+04</totfact>
</mgrwt>
</event>
<event>
 7    0  0.4831799E-002  0.4525266E+03  0.7546771E-02  0.1026971E+00
         21   -1    0    0  502  501  0.00000000000E+00  0.00000000000E+00  0.27344731450E+03  0.27344731450E+03  0.00000000000E+00 0.  1.
         21   -1    0    0  501  502 -0.00000000000E+00 -0.00000000000E+00 -0.18722104076E+03  0.18722104076E+03  0.00000000000E+00 0.  1.
      99926    2    1    2    0    0 -0.14210854715E-13  0.71054273576E-14  0.86226273741E+02  0.46066835525E+03  0.45252664369E+03 0.  0.
      99925    2    3    3    0    0  0.76693690421E+02 -0.59994061824E+02  0.10857114487E+03  0.30058084490E+03  0.26283063219E+03 0.  0.
         25    1    3    3    0    0 -0.76693690421E+02  0.59994061824E+02 -0.22344871132E+02  0.16008751035E+03  0.12509000000E+03 0.  0.
         25    1    4    4    0    0  0.52830918890E+00 -0.43937247120E+02  0.43689501607E+02  0.13959599366E+03  0.12509000000E+03 0.  0.
         25    1    4    4    0    0  0.76165381232E+02 -0.16056814704E+02  0.64881643266E+02  0.16098485124E+03  0.12509000000E+03 0.  0.
<mgrwt>
<rscale>  2 0.45252664E+03</rscale>
<asrwt>0</asrwt>
<pdfrwt beam="1">  1       21 0.40212841E-01 0.45252664E+03</pdfrwt>
<pdfrwt beam="2">  1       21 0.27532506E-01 0.45252664E+03</pdfrwt>
<totfact> 0.69489172E+04</totfact>
</mgrwt>
</event>
<event>
 7    0  0.4831799E-002  0.4547198E+03  0.7546771E-02  0.1026324E+00
         21   -1    0    0  502  501  0.00000000000E+00  0.00000000000E+00  0.25824644680E+02  0.25824644680E+02  0.00000000000E+00 0. -1.
         21   -1    0    0  501  502 -0.00000000000E+00 -0.00000000000E+00 -0.20016740522E+04  0.20016740522E+04  0.00000000000E+00 0. -1.
      99926    2    1    2    0    0 -0.14210854715E-13  0.00000000000E+00 -0.19758494075E+04  0.20274986969E+04  0.45471978695E+03 0.  0.
      99925    2    3    3    0    0  0.10531688738E+03 -0.40671829084E+02 -0.12286123783E+04  0.12614983507E+04  0.26295221655E+03 0.  0.
         25    1    4    4    0    0  0.91509148553E+02 -0.31263654247E+02 -0.61115313626E+03  0.63127411194E+03  0.12509000000E+03 0.  0.
         25    1    4    4    0    0  0.13807738832E+02 -0.94081748370E+01 -0.61745924206E+03  0.63022423876E+03  0.12509000000E+03 0.  0.
         25    1    3    3    0    0 -0.10531688738E+03  0.40671829084E+02 -0.74723702917E+03  0.76600034616E+03  0.12509000000E+03 0.  0.
<mgrwt>
<rscale>  2 0.45471979E+03</rscale>
<asrwt>0</asrwt>
<pdfrwt beam="1">  1       21 0.37977422E-02 0.45471979E+03</pdfrwt>
<pdfrwt beam="2">  1       21 0.29436381E+00 0.45471979E+03</pdfrwt>
<totfact> 0.13294777E+04</totfact>
</mgrwt>
</event>
<event>
 7    0  0.4831799E-002  0.4567372E+03  0.7546771E-02  0.1025732E+00
         21   -1    0    0  502  501  0.00000000000E+00  0.00000000000E+00  0.19776245678E+03  0.19776245678E+03  0.00000000000E+00 0. -1.
         21   -1    0    0  501  502 -0.00000000000E+00 -0.00000000000E+00 -0.26371142342E+03  0.26371142342E+03  0.00000000000E+00 0. -1.
      99926    2    1    2    0    0  0.00000000000E+00 -0.35527136788E-14 -0.65948966633E+02  0.46147388020E+03  0.45673720662E+03 0.  0.
      99925    2    3    3    0    0 -0.68707504092E+02 -0.17516612074E+02 -0.13258803945E+03  0.30299414351E+03  0.26305571649E+03 0.  0.
         25    1    4    4    0    0 -0.46794945009E+02  0.66395434324E+01 -0.10689112824E+03  0.17119308342E+03  0.12509000000E+03 0.  0.
         25    1    4    4    0    0 -0.21912559083E+02 -0.24156155506E+02 -0.25696911209E+02  0.13180106009E+03  0.12509000000E+03 0.  0.
         25    1    3    3    0    0  0.68707504092E+02  0.17516612074E+02  0.66639072813E+02  0.15847973669E+03  0.12509000000E+03 0.  0.
<mgrwt>
<rscale>  2 0.45673721E+03</rscale>
<asrwt>0</asrwt>
<pdfrwt beam="1">  1       21 0.29082714E-01 0.45673721E+03</pdfrwt>
<pdfrwt beam="2">  1       21 0.38781092E-01 0.45673721E+03</pdfrwt>
<totfact> 0.67138348E+04</totfact>
</mgrwt>
</event>
<event>
 7    0  0.4831799E-002  0.4522087E+03  0.7546771E-02  0.1027065E+00
         21   -1    0    0  502  501  0.00000000000E+00  0.00000000000E+00  0.75971431263E+03  0.75971431263E+03  0.00000000000E+00 0.  1.
         21   -1    0    0  501  502 -0.00000000000E+00 -0.00000000000E+00 -0.67292634456E+02  0.67292634456E+02  0.00000000000E+00 0.  1.
      99926    2    1    2    0    0  0.14210854715E-13 -0.71054273576E-14  0.69242167818E+03  0.82700694709E+03  0.45220870195E+03 0.  0.
      99925    2    3    3    0    0 -0.72628431276E+02  0.35827136718E+02  0.29848170521E+03  0.40582446507E+03  0.26276167025E+03 0.  0.
         25    1    3    3    0    0  0.72628431276E+02 -0.35827136718E+02  0.39393997297E+03  0.42118248202E+03  0.12509000000E+03 0.  0.
         25    1    4    4    0    0 -0.50755332995E+02  0.37065391926E+02  0.10763341086E+03  0.17658540806E+03  0.12509000000E+03 0.  0.
         25    1    4    4    0    0 -0.21873098281E+02 -0.12382552076E+01  0.19084829435E+03  0.22923905701E+03  0.12509000000E+03 0.  0.
<mgrwt>
<rscale>  2 0.45220870E+03</rscale>
<asrwt>0</asrwt>
<pdfrwt beam="1">  1       21 0.11172269E+00 0.45220870E+03</pdfrwt>
<pdfrwt beam="2">  1       21 0.98959761E-02 0.45220870E+03</pdfrwt>
<totfact> 0.47518291E+04</totfact>
</mgrwt>
</event>
<event>
 7    0  0.4831799E-002  0.4127216E+03  0.7546771E-02  0.1039462E+00
         21   -1    0    0  502  501  0.00000000000E+00  0.00000000000E+00  0.39250283643E+03  0.39250283643E+03  0.00000000000E+00 0. -1.
         21   -1    0    0  501  502 -0.00000000000E+00 -0.00000000000E+00 -0.10849546039E+03  0.10849546039E+03  0.00000000000E+00 0. -1.
      99926    2    1    2    0    0  0.00000000000E+00  0.00000000000E+00  0.28400737603E+03  0.50099829682E+03  0.41272158143E+03 0.  0.
      99925    2    3    3    0    0  0.37507298750E+02 -0.53406948466E+02  0.19981689738E+03  0.33669782695E+03  0.26302002698E+03 0.  0.
         25    1    4    4    0    0  0.52659927277E+02 -0.37846255491E+02  0.13048177646E+03  0.19203751999E+03  0.12509000000E+03 0.  0.
         25    1    3    3    0    0 -0.37507298750E+02  0.53406948466E+02  0.84190478649E+02  0.16430046987E+03  0.12509000000E+03 0.  0.
         25    1    4    4    0    0 -0.15152628527E+02 -0.15560692975E+02  0.69335120920E+02  0.14466030696E+03  0.12509000000E+03 0.  0.
<mgrwt>
<rscale>  2 0.41272158E+03</rscale>
<asrwt>0</asrwt>
<pdfrwt beam="1">  1       21 0.57721005E-01 0.41272158E+03</pdfrwt>
<pdfrwt beam="2">  1       21 0.15955215E-01 0.41272158E+03</pdfrwt>
<totfact> 0.92539016E+04</totfact>
</mgrwt>
</event>
<event>
 7    0  0.4831799E-002  0.4599012E+03  0.7546771E-02  0.1024810E+00
         21   -1    0    0  502  501  0.00000000000E+00  0.00000000000E+00  0.32361657806E+02  0.32361657806E+02  0.00000000000E+00 0. -1.
         21   -1    0    0  501  502 -0.00000000000E+00 -0.00000000000E+00 -0.16339483913E+04  0.16339483913E+04  0.00000000000E+00 0. -1.
      99926    2    1    2    0    0  0.00000000000E+00  0.00000000000E+00 -0.16015867335E+04  0.16663100491E+04  0.45990120118E+03 0.  0.
      99925    2    3    3    0    0 -0.86478578367E+02 -0.18545893026E+02 -0.72121569568E+03  0.77270881423E+03  0.26287703821E+03 0.  0.
         25    1    4    4    0    0 -0.80885838205E+02 -0.18471743074E+02 -0.34617032150E+03  0.37731303145E+03  0.12509000000E+03 0.  0.
         25    1    4    4    0    0 -0.55927401622E+01 -0.74149951906E-01 -0.37504537419E+03  0.39539578278E+03  0.12509000000E+03 0.  0.
         25    1    3    3    0    0  0.86478578367E+02  0.18545893026E+02 -0.88037103783E+03  0.89360123490E+03  0.12509000000E+03 0.  0.
<mgrwt>
<rscale>  2 0.45990120E+03</rscale>
<asrwt>0</asrwt>
<pdfrwt beam="1">  1       21 0.47590672E-02 0.45990120E+03</pdfrwt>
<pdfrwt beam="2">  1       21 0.24028653E+00 0.45990120E+03</pdfrwt>
<totfact> 0.19229763E+04</totfact>
</mgrwt>
</event>
<event>
 7    0  0.4831799E-002  0.4506698E+03  0.7546771E-02  0.1027522E+00
         21   -1    0    0  502  501  0.00000000000E+00  0.00000000000E+00  0.46394865328E+03  0.46394865328E+03  0.00000000000E+00 0. -1.
         21   -1    0    0  501  502 -0.00000000000E+00 -0.00000000000E+00 -0.10944275506E+03  0.10944275506E+03  0.00000000000E+00 0. -1.
      99926    2    1    2    0    0  0.00000000000E+00  0.00000000000E+00  0.35450589821E+03  0.57339140834E+03  0.45066980739E+03 0.  0.
      99925    2    3    3    0    0  0.25569739003E+02  0.27812259493E+02  0.91838184666E+02  0.28001593361E+03  0.26181546475E+03 0.  0.
         25    1    4    4    0    0 -0.19792750038E+02  0.13050067928E+02  0.66942953120E+02  0.14384340200E+03  0.12509000000E+03 0.  0.
         25    1    3    3    0    0 -0.25569739003E+02 -0.27812259493E+02  0.26266771355E+03  0.29337547473E+03  0.12509000000E+03 0.  0.
         25    1    4    4    0    0  0.45362489042E+02  0.14762191565E+02  0.24895231545E+02  0.13617253161E+03  0.12509000000E+03 0.  0.
<mgrwt>
<rscale>  2 0.45066981E+03</rscale>
<asrwt>0</asrwt>
<pdfrwt beam="1">  1       21 0.68227743E-01 0.45066981E+03</pdfrwt>
<pdfrwt beam="2">  1       21 0.16094523E-01 0.45066981E+03</pdfrwt>
<totfact> 0.62457915E+04</totfact>
</mgrwt>
</event>
<event>
 7    0  0.4831799E-002  0.4513136E+03  0.7546771E-02  0.1027331E+00
         21   -1    0    0  502  501  0.00000000000E+00  0.00000000000E+00  0.36033839694E+02  0.36033839694E+02  0.00000000000E+00 0. -1.
         21   -1    0    0  501  502 -0.00000000000E+00 -0.00000000000E+00 -0.14131434331E+04  0.14131434331E+04  0.00000000000E+00 0. -1.
      99926    2    1    2    0    0  0.14210854715E-13 -0.88817841970E-15 -0.13771095934E+04  0.14491772727E+04  0.45131356696E+03 0.  0.
      99925    2    3    3    0    0  0.95432975289E+02 -0.58945510995E+01 -0.10421834424E+04  0.10790891303E+04  0.26295403581E+03 0.  0.
         25    1    4    4    0    0  0.70528197521E+02 -0.33715709587E+02 -0.61256585475E+03  0.63007571785E+03  0.12509000000E+03 0.  0.
         25    1    4    4    0    0  0.24904777768E+02  0.27821158487E+02 -0.42961758767E+03  0.44901341244E+03  0.12509000000E+03 0.  0.
         25    1    3    3    0    0 -0.95432975289E+02  0.58945510995E+01 -0.33492615094E+03  0.37008814246E+03  0.12509000000E+03 0.  0.
<mgrwt>
<rscale>  2 0.45131357E+03</rscale>
<asrwt>0</asrwt>
<pdfrwt beam="1">  1       21 0.52990958E-02 0.45131357E+03</pdfrwt>
<pdfrwt beam="2">  1       21 0.20781514E+00 0.45131357E+03</pdfrwt>
<totfact> 0.25781024E+04</totfact>
</mgrwt>
</event>
<event>
 7    0  0.4831799E-002  0.4505807E+03  0.7546771E-02  0.1027549E+00
         21   -1    0    0  502  501  0.00000000000E+00  0.00000000000E+00  0.19623932291E+03  0.19623932291E+03  0.00000000000E+00 0. -1.
         21   -1    0    0  501  502 -0.00000000000E+00 -0.00000000000E+00 -0.25864200916E+03  0.25864200916E+03  0.00000000000E+00 0. -1.
      99926    2    1    2    0    0  0.00000000000E+00  0.00000000000E+00 -0.62402686245E+02  0.45488133207E+03  0.45058065984E+03 0.  0.
      99925    2    3    3    0    0 -0.74568307395E+02 -0.78336520442E+02 -0.50079727939E+02  0.28906092831E+03  0.26334615665E+03 0.  0.
         25    1    4    4    0    0 -0.64709542285E+02 -0.69224073388E+02 -0.10963291773E+02  0.15731178934E+03  0.12509000000E+03 0.  0.
         25    1    4    4    0    0 -0.98587651101E+01 -0.91124470543E+01 -0.39116436166E+02  0.13174913897E+03  0.12509000000E+03 0.  0.
         25    1    3    3    0    0  0.74568307395E+02  0.78336520442E+02 -0.12322958306E+02  0.16582040376E+03  0.12509000000E+03 0.  0.
<mgrwt>
<rscale>  2 0.45058066E+03</rscale>
<asrwt>0</asrwt>
<pdfrwt beam="1">  1       21 0.28858724E-01 0.45058066E+03</pdfrwt>
<pdfrwt beam="2">  1       21 0.38035589E-01 0.45058066E+03</pdfrwt>
<totfact> 0.71025581E+04</totfact>
</mgrwt>
</event>
<event>
 7    0  0.4831799E-002  0.4447205E+03  0.7546771E-02  0.1029308E+00
         21   -1    0    0  502  501  0.00000000000E+00  0.00000000000E+00  0.36419626723E+03  0.36419626723E+03  0.00000000000E+00 0. -1.
         21   -1    0    0  501  502 -0.00000000000E+00 -0.00000000000E+00 -0.13576216127E+03  0.13576216127E+03  0.00000000000E+00 0. -1.
      99926    2    1    2    0    0  0.00000000000E+00 -0.17763568394E-14  0.22843410596E+03  0.49995842851E+03  0.44472046217E+03 0.  0.
      99925    2    3    3    0    0 -0.93645214701E+02  0.14728069560E+02  0.19106207721E+03  0.33861866620E+03  0.26300483167E+03 0.  0.
         25    1    4    4    0    0 -0.75182050159E+02  0.16969928733E+02  0.67077739773E+02  0.16151548044E+03  0.12509000000E+03 0.  0.
         25    1    3    3    0    0  0.93645214701E+02 -0.14728069560E+02  0.37372028752E+02  0.16133976231E+03  0.12509000000E+03 0.  0.
         25    1    4    4    0    0 -0.18463164541E+02 -0.22418591732E+01  0.12398433744E+03  0.17710318576E+03  0.12509000000E+03 0.  0.
<mgrwt>
<rscale>  2 0.44472046E+03</rscale>
<asrwt>0</asrwt>
<pdfrwt beam="1">  1       21 0.53558274E-01 0.44472046E+03</pdfrwt>
<pdfrwt beam="2">  1       21 0.19965024E-01 0.44472046E+03</pdfrwt>
<totfact> 0.70882721E+04</totfact>
</mgrwt>
</event>
<event>
 7    0  0.4831799E-002  0.4611970E+03  0.7546771E-02  0.1024435E+00
         21   -1    0    0  502  501  0.00000000000E+00  0.00000000000E+00  0.44022678557E+03  0.44022678557E+03  0.00000000000E+00 0.  1.
         21   -1    0    0  501  502 -0.00000000000E+00 -0.00000000000E+00 -0.12079154250E+03  0.12079154250E+03  0.00000000000E+00 0.  1.
      99926    2    1    2    0    0  0.00000000000E+00  0.00000000000E+00  0.31943524307E+03  0.56101832807E+03  0.46119701854E+03 0.  0.
      99925    2    3    3    0    0  0.11077683160E+03  0.39705663626E+02  0.22097845330E+03  0.36305546868E+03  0.26292537035E+03 0.  0.
         25    1    3    3    0    0 -0.11077683160E+03 -0.39705663626E+02  0.98456789765E+02  0.19796285938E+03  0.12509000000E+03 0.  0.
         25    1    4    4    0    0  0.45885187907E+02 -0.13351513141E+02  0.13263311764E+03  0.18847484014E+03  0.12509000000E+03 0.  0.
         25    1    4    4    0    0  0.64891643698E+02  0.53057176767E+02  0.88345335664E+02  0.17458062854E+03  0.12509000000E+03 0.  0.
<mgrwt>
<rscale>  2 0.46119702E+03</rscale>
<asrwt>0</asrwt>
<pdfrwt beam="1">  1       21 0.64739232E-01 0.46119702E+03</pdfrwt>
<pdfrwt beam="2">  1       21 0.17763462E-01 0.46119702E+03</pdfrwt>
<totfact> 0.58236702E+04</totfact>
</mgrwt>
</event>
<event>
 7    0  0.4831799E-002  0.4579133E+03  0.7546771E-02  0.1025388E+00
         21   -1    0    0  502  501  0.00000000000E+00  0.00000000000E+00  0.13677727102E+03  0.13677727102E+03  0.00000000000E+00 0. -1.
         21   -1    0    0  501  502 -0.00000000000E+00 -0.00000000000E+00 -0.38325927783E+03  0.38325927783E+03  0.00000000000E+00 0. -1.
      99926    2    1    2    0    0 -0.14210854715E-13  0.35527136788E-14 -0.24648200681E+03  0.52003654884E+03  0.45791334601E+03 0.  0.
      99925    2    3    3    0    0 -0.11080884816E+03  0.21690192242E+02 -0.18402285834E+03  0.34032088843E+03  0.26306810798E+03 0.  0.
         25    1    4    4    0    0 -0.31604202789E+02 -0.23708542684E+02 -0.77551543418E+02  0.15238986389E+03  0.12509000000E+03 0.  0.
         25    1    3    3    0    0  0.11080884816E+03 -0.21690192242E+02 -0.62459148473E+02  0.17971566042E+03  0.12509000000E+03 0.  0.
         25    1    4    4    0    0 -0.79204645375E+02  0.45398734926E+02 -0.10647131492E+03  0.18793102454E+03  0.12509000000E+03 0.  0.
<mgrwt>
<rscale>  2 0.45791335E+03</rscale>
<asrwt>0</asrwt>
<pdfrwt beam="1">  1       21 0.20114305E-01 0.45791335E+03</pdfrwt>
<pdfrwt beam="2">  1       21 0.56361658E-01 0.45791335E+03</pdfrwt>
<totfact> 0.62429192E+04</totfact>
</mgrwt>
</event>
<event>
 7    0  0.4831799E-002  0.4053662E+03  0.7546771E-02  0.1041937E+00
         21   -1    0    0  502  501  0.00000000000E+00  0.00000000000E+00  0.52470170198E+02  0.52470170198E+02  0.00000000000E+00 0.  1.
         21   -1    0    0  501  502 -0.00000000000E+00 -0.00000000000E+00 -0.78292932668E+03  0.78292932668E+03  0.00000000000E+00 0.  1.
      99926    2    1    2    0    0  0.00000000000E+00  0.00000000000E+00 -0.73045915648E+03  0.83539949688E+03  0.40536618026E+03 0.  0.
      99925    2    3    3    0    0  0.26453348621E+02  0.42387193843E+02 -0.53150492667E+03  0.59513558466E+03  0.26304452702E+03 0.  0.
         25    1    4    4    0    0 -0.38629416053E+01  0.35331432881E+02 -0.34251400799E+03  0.36636946684E+03  0.12509000000E+03 0.  0.
         25    1    3    3    0    0 -0.26453348621E+02 -0.42387193843E+02 -0.19895422981E+03  0.24026391222E+03  0.12509000000E+03 0.  0.
         25    1    4    4    0    0  0.30316290227E+02  0.70557609623E+01 -0.18899091868E+03  0.22876611782E+03  0.12509000000E+03 0.  0.
<mgrwt>
<rscale>  2 0.40536618E+03</rscale>
<asrwt>0</asrwt>
<pdfrwt beam="1">  1       21 0.77162019E-02 0.40536618E+03</pdfrwt>
<pdfrwt beam="2">  1       21 0.11513666E+00 0.40536618E+03</pdfrwt>
<totfact> 0.69436161E+04</totfact>
</mgrwt>
</event>
<event>
 7    0  0.4831799E-002  0.4420103E+03  0.7546771E-02  0.1030132E+00
         21   -1    0    0  502  501  0.00000000000E+00  0.00000000000E+00  0.54110655887E+03  0.54110655887E+03  0.00000000000E+00 0.  1.
         21   -1    0    0  501  502 -0.00000000000E+00 -0.00000000000E+00 -0.90265547025E+02  0.90265547025E+02  0.00000000000E+00 0.  1.
      99926    2    1    2    0    0  0.00000000000E+00 -0.17763568394E-14  0.45084101185E+03  0.63137210590E+03  0.44201031452E+03 0.  0.
      99925    2    3    3    0    0  0.49666319899E+02  0.10674261719E+02  0.16306886332E+03  0.31350263463E+03  0.26289116482E+03 0.  0.
         25    1    4    4    0    0  0.44117113844E+02  0.21285810578E+02  0.46670194323E+02  0.14221469897E+03  0.12509000000E+03 0.  0.
         25    1    3    3    0    0 -0.49666319899E+02 -0.10674261719E+02  0.28777214853E+03  0.31786947127E+03  0.12509000000E+03 0.  0.
         25    1    4    4    0    0  0.55492060548E+01 -0.10611548859E+02  0.11639866900E+03  0.17128793566E+03  0.12509000000E+03 0.  0.
<mgrwt>
<rscale>  2 0.44201031E+03</rscale>
<asrwt>0</asrwt>
<pdfrwt beam="1">  1       21 0.79574492E-01 0.44201031E+03</pdfrwt>
<pdfrwt beam="2">  1       21 0.13274345E-01 0.44201031E+03</pdfrwt>
<totfact> 0.63002882E+04</totfact>
</mgrwt>
</event>
<event>
 7    0  0.4831799E-002  0.4548317E+03  0.7546771E-02  0.1026291E+00
         21   -1    0    0  502  501  0.00000000000E+00  0.00000000000E+00  0.49164277136E+03  0.49164277136E+03  0.00000000000E+00 0. -1.
         21   -1    0    0  501  502 -0.00000000000E+00 -0.00000000000E+00 -0.10519418682E+03  0.10519418682E+03  0.00000000000E+00 0. -1.
      99926    2    1    2    0    0  0.00000000000E+00  0.00000000000E+00  0.38644858454E+03  0.59683695818E+03  0.45483166794E+03 0.  0.
      99925    2    3    3    0    0  0.20308085026E+02  0.85060213138E+02  0.33700345154E+03  0.43640009380E+03  0.26310845167E+03 0.  0.
         25    1    3    3    0    0 -0.20308085026E+02 -0.85060213138E+02  0.49445132999E+02  0.16043686439E+03  0.12509000000E+03 0.  0.
         25    1    4    4    0    0  0.10668794352E+02  0.84978945604E+02  0.17613544898E+03  0.23239287609E+03  0.12509000000E+03 0.  0.
         25    1    4    4    0    0  0.96392906745E+01  0.81267534288E-01  0.16086800256E+03  0.20400721771E+03  0.12509000000E+03 0.  0.
<mgrwt>
<rscale>  2 0.45483167E+03</rscale>
<asrwt>0</asrwt>
<pdfrwt beam="1">  1       21 0.72300407E-01 0.45483167E+03</pdfrwt>
<pdfrwt beam="2">  1       21 0.15469734E-01 0.45483167E+03</pdfrwt>
<totfact> 0.58951760E+04</totfact>
</mgrwt>
</event>
<event>
 7    0  0.4831799E-002  0.4605962E+03  0.7546771E-02  0.1024608E+00
         21   -1    0    0  502  501  0.00000000000E+00  0.00000000000E+00  0.77470771694E+03  0.77470771694E+03  0.00000000000E+00 0. -1.
         21   -1    0    0  501  502 -0.00000000000E+00 -0.00000000000E+00 -0.68460929297E+02  0.68460929297E+02  0.00000000000E+00 0. -1.
      99926    2    1    2    0    0  0.00000000000E+00 -0.14210854715E-13  0.70624678764E+03  0.84316864624E+03  0.46059617990E+03 0.  0.
      99925    2    3    3    0    0 -0.32678203375E+02 -0.84194971578E+02  0.58220666029E+03  0.64520370109E+03  0.26299536573E+03 0.  0.
         25    1    3    3    0    0  0.32678203375E+02  0.84194971578E+02  0.12404012736E+03  0.19796494515E+03  0.12509000000E+03 0.  0.
         25    1    4    4    0    0 -0.88569100952E+01 -0.21279884848E+02  0.19547503832E+03  0.23321508756E+03  0.12509000000E+03 0.  0.
         25    1    4    4    0    0 -0.23821293280E+02 -0.62915086729E+02  0.38673162196E+03  0.41198861353E+03  0.12509000000E+03 0.  0.
<mgrwt>
<rscale>  2 0.46059618E+03</rscale>
<asrwt>0</asrwt>
<pdfrwt beam="1">  1       21 0.11392760E+00 0.46059618E+03</pdfrwt>
<pdfrwt beam="2">  1       21 0.10067784E-01 0.46059618E+03</pdfrwt>
<totfact> 0.43792027E+04</totfact>
</mgrwt>
</event>
<event>
 7    0  0.4831799E-002  0.4081375E+03  0.7546771E-02  0.1040998E+00
         21   -1    0    0  502  501  0.00000000000E+00  0.00000000000E+00  0.28794135656E+03  0.28794135656E+03  0.00000000000E+00 0.  1.
         21   -1    0    0  501  502 -0.00000000000E+00 -0.00000000000E+00 -0.14462683748E+03  0.14462683748E+03  0.00000000000E+00 0.  1.
      99926    2    1    2    0    0  0.00000000000E+00 -0.53290705182E-14  0.14331451907E+03  0.43256819404E+03  0.40813746596E+03 0.  0.
      99925    2    3    3    0    0 -0.29141190759E+02 -0.10539846913E+02  0.14850530796E+03  0.30359242205E+03  0.26297192789E+03 0.  0.
         25    1    4    4    0    0 -0.39539424025E+02  0.26663490143E+02  0.74834229823E+02  0.15336876413E+03  0.12509000000E+03 0.  0.
         25    1    4    4    0    0  0.10398233265E+02 -0.37203337056E+02  0.73671078139E+02  0.15022365791E+03  0.12509000000E+03 0.  0.
         25    1    3    3    0    0  0.29141190759E+02  0.10539846913E+02 -0.51907888900E+01  0.12897577199E+03  0.12509000000E+03 0.  0.
<mgrwt>
<rscale>  2 0.40813747E+03</rscale>
<asrwt>0</asrwt>
<pdfrwt beam="1">  1       21 0.42344317E-01 0.40813747E+03</pdfrwt>
<pdfrwt beam="2">  1       21 0.21268653E-01 0.40813747E+03</pdfrwt>
<totfact> 0.10390775E+05</totfact>
</mgrwt>
</event>
<event>
 7    0  0.4831799E-002  0.4561440E+03  0.7546771E-02  0.1025906E+00
         21   -1    0    0  502  501  0.00000000000E+00  0.00000000000E+00  0.11217545206E+04  0.11217545206E+04  0.00000000000E+00 0.  1.
         21   -1    0    0  501  502 -0.00000000000E+00 -0.00000000000E+00 -0.46370958700E+02  0.46370958700E+02  0.00000000000E+00 0.  1.
      99926    2    1    2    0    0  0.00000000000E+00 -0.71054273576E-14  0.10753835619E+04  0.11681254793E+04  0.45614397966E+03 0.  0.
      99925    2    3    3    0    0 -0.93059075579E+02 -0.60748403427E+02  0.60833351557E+03  0.67200693103E+03  0.26300815407E+03 0.  0.
         25    1    3    3    0    0  0.93059075579E+02  0.60748403427E+02  0.46705004629E+03  0.49611854824E+03  0.12509000000E+03 0.  0.
         25    1    4    4    0    0 -0.54516817606E+02 -0.69739422778E+02  0.35666327164E+03  0.38819050468E+03  0.12509000000E+03 0.  0.
         25    1    4    4    0    0 -0.38542257973E+02  0.89910193503E+01  0.25167024394E+03  0.28381642634E+03  0.12509000000E+03 0.  0.
<mgrwt>
<rscale>  2 0.45614398E+03</rscale>
<asrwt>0</asrwt>
<pdfrwt beam="1">  1       21 0.16496388E+00 0.45614398E+03</pdfrwt>
<pdfrwt beam="2">  1       21 0.68192593E-02 0.45614398E+03</pdfrwt>
<totfact> 0.32888773E+04</totfact>
</mgrwt>
</event>
<event>
 7    0  0.4831799E-002  0.4555364E+03  0.7546771E-02  0.1026084E+00
         21   -1    0    0  502  501  0.00000000000E+00  0.00000000000E+00  0.52967486642E+02  0.52967486642E+02  0.00000000000E+00 0. -1.
         21   -1    0    0  501  502 -0.00000000000E+00 -0.00000000000E+00 -0.97943767646E+03  0.97943767646E+03  0.00000000000E+00 0. -1.
      99926    2    1    2    0    0  0.00000000000E+00 -0.71054273576E-14 -0.92647018982E+03  0.10324051631E+04  0.45553639611E+03 0.  0.
      99925    2    3    3    0    0 -0.14016621260E+02 -0.52179124520E+02 -0.35604554623E+03  0.44593188253E+03  0.26299750220E+03 0.  0.
         25    1    4    4    0    0  0.14510954987E+02 -0.15888396279E+02 -0.22866087679E+03  0.26152688892E+03  0.12509000000E+03 0.  0.
         25    1    3    3    0    0  0.14016621260E+02  0.52179124520E+02 -0.57042464359E+03  0.58647328057E+03  0.12509000000E+03 0.  0.
         25    1    4    4    0    0 -0.28527576246E+02 -0.36290728241E+02 -0.12738466943E+03  0.18440499361E+03  0.12509000000E+03 0.  0.
<mgrwt>
<rscale>  2 0.45553640E+03</rscale>
<asrwt>0</asrwt>
<pdfrwt beam="1">  1       21 0.77893374E-02 0.45553640E+03</pdfrwt>
<pdfrwt beam="2">  1       21 0.14403493E+00 0.45553640E+03</pdfrwt>
<totfact> 0.37771291E+04</totfact>
</mgrwt>
</event>
<event>
 7    0  0.4831799E-002  0.4483244E+03  0.7546771E-02  0.1028223E+00
         21   -1    0    0  502  501  0.00000000000E+00  0.00000000000E+00  0.81668350088E+03  0.81668350088E+03  0.00000000000E+00 0.  1.
         21   -1    0    0  501  502 -0.00000000000E+00 -0.00000000000E+00 -0.61527737560E+02  0.61527737560E+02  0.00000000000E+00 0.  1.
      99926    2    1    2    0    0 -0.14210854715E-13  0.71054273576E-14  0.75515576332E+03  0.87821123844E+03  0.44832438306E+03 0.  0.
      99925    2    3    3    0    0 -0.85763342187E+02 -0.53595709810E+02  0.54500591912E+03  0.61356370663E+03  0.26306105613E+03 0.  0.
         25    1    4    4    0    0 -0.78227879346E+02 -0.21541923213E+02  0.33861712788E+03  0.36999016603E+03  0.12509000000E+03 0.  0.
         25    1    3    3    0    0  0.85763342187E+02  0.53595709810E+02  0.21014984421E+03  0.26464753181E+03  0.12509000000E+03 0.  0.
         25    1    4    4    0    0 -0.75354628406E+01 -0.32053786597E+02  0.20638879124E+03  0.24357354061E+03  0.12509000000E+03 0.  0.
<mgrwt>
<rscale>  2 0.44832438E+03</rscale>
<asrwt>0</asrwt>
<pdfrwt beam="1">  1       21 0.12010051E+00 0.44832438E+03</pdfrwt>
<pdfrwt beam="2">  1       21 0.90481972E-02 0.44832438E+03</pdfrwt>
<totfact> 0.46577106E+04</totfact>
</mgrwt>
</event>
<event>
 7    0  0.4831799E-002  0.4562171E+03  0.7546771E-02  0.1025884E+00
         21   -1    0    0  502  501  0.00000000000E+00  0.00000000000E+00  0.64210903404E+02  0.64210903404E+02  0.00000000000E+00 0.  1.
         21   -1    0    0  501  502 -0.00000000000E+00 -0.00000000000E+00 -0.81035302437E+03  0.81035302437E+03  0.00000000000E+00 0.  1.
      99926    2    1    2    0    0  0.00000000000E+00  0.00000000000E+00 -0.74614212096E+03  0.87456392777E+03  0.45621705260E+03 0.  0.
      99925    2    3    3    0    0  0.10688320284E+03 -0.36714900708E+02 -0.50198937385E+03  0.57786530121E+03  0.26298853947E+03 0.  0.
         25    1    4    4    0    0  0.59633912914E+02 -0.28931164906E+01 -0.32618055560E+03  0.35440913736E+03  0.12509000000E+03 0.  0.
         25    1    3    3    0    0 -0.10688320284E+03  0.36714900708E+02 -0.24415274711E+03  0.29669862656E+03  0.12509000000E+03 0.  0.
         25    1    4    4    0    0  0.47249289928E+02 -0.33821784218E+02 -0.17580881825E+03  0.22345616385E+03  0.12509000000E+03 0.  0.
<mgrwt>
<rscale>  2 0.45621705E+03</rscale>
<asrwt>0</asrwt>
<pdfrwt beam="1">  1       21 0.94427803E-02 0.45621705E+03</pdfrwt>
<pdfrwt beam="2">  1       21 0.11916956E+00 0.45621705E+03</pdfrwt>
<totfact> 0.43931474E+04</totfact>
</mgrwt>
</event>
<event>
 7    0  0.4831799E-002  0.4522967E+03  0.7546771E-02  0.1027039E+00
         21   -1    0    0  502  501  0.00000000000E+00  0.00000000000E+00  0.25770304233E+03  0.25770304233E+03  0.00000000000E+00 0.  1.
         21   -1    0    0  501  502 -0.00000000000E+00 -0.00000000000E+00 -0.19845738881E+03  0.19845738881E+03  0.00000000000E+00 0.  1.
      99926    2    1    2    0    0  0.71054273576E-14 -0.14210854715E-13  0.59245653527E+02  0.45616043114E+03  0.45229668524E+03 0.  0.
      99925    2    3    3    0    0  0.57235194309E+02 -0.75409919869E+02  0.95078822027E+02  0.29524415618E+03  0.26299544840E+03 0.  0.
         25    1    3    3    0    0 -0.57235194309E+02  0.75409919869E+02 -0.35833168500E+02  0.16091627496E+03  0.12509000000E+03 0.  0.
         25    1    4    4    0    0  0.46273917475E+02 -0.72381734081E+02  0.70190419761E+02  0.16719627386E+03  0.12509000000E+03 0.  0.
         25    1    4    4    0    0  0.10961276835E+02 -0.30281857880E+01  0.24888402266E+02  0.12804788232E+03  0.12509000000E+03 0.  0.
<mgrwt>
<rscale>  2 0.45229669E+03</rscale>
<asrwt>0</asrwt>
<pdfrwt beam="1">  1       21 0.37897506E-01 0.45229669E+03</pdfrwt>
<pdfrwt beam="2">  1       21 0.29184910E-01 0.45229669E+03</pdfrwt>
<totfact> 0.69957338E+04</totfact>
</mgrwt>
</event>
<event>
 7    0  0.4831799E-002  0.4409149E+03  0.7546771E-02  0.1030466E+00
         21   -1    0    0  502  501  0.00000000000E+00  0.00000000000E+00  0.33264619460E+02  0.33264619460E+02  0.00000000000E+00 0.  1.
         21   -1    0    0  501  502 -0.00000000000E+00 -0.00000000000E+00 -0.14610567893E+04  0.14610567893E+04  0.00000000000E+00 0.  1.
      99926    2    1    2    0    0 -0.35527136788E-14  0.00000000000E+00 -0.14277921698E+04  0.14943214088E+04  0.44091494919E+03 0.  0.
      99925    2    3    3    0    0 -0.22493227052E+02 -0.76194657160E+02 -0.70686581819E+03  0.75832284651E+03  0.26283584907E+03 0.  0.
         25    1    4    4    0    0 -0.48969365852E+02 -0.29735801952E+02 -0.32382520189E+03  0.35184156404E+03  0.12509000000E+03 0.  0.
         25    1    4    4    0    0  0.26476138800E+02 -0.46458855208E+02 -0.38304061631E+03  0.40648128246E+03  0.12509000000E+03 0.  0.
         25    1    3    3    0    0  0.22493227052E+02  0.76194657160E+02 -0.72092635165E+03  0.73599856226E+03  0.12509000000E+03 0.  0.
<mgrwt>
<rscale>  2 0.44091495E+03</rscale>
<asrwt>0</asrwt>
<pdfrwt beam="1">  1       21 0.48918548E-02 0.44091495E+03</pdfrwt>
<pdfrwt beam="2">  1       21 0.21486134E+00 0.44091495E+03</pdfrwt>
<totfact> 0.26725192E+04</totfact>
</mgrwt>
</event>
<event>
 7    0  0.4831799E-002  0.4626238E+03  0.7546771E-02  0.1024023E+00
         21   -1    0    0  502  501  0.00000000000E+00  0.00000000000E+00  0.37495226430E+02  0.37495226430E+02  0.00000000000E+00 0.  1.
         21   -1    0    0  501  502 -0.00000000000E+00 -0.00000000000E+00 -0.14269870990E+04  0.14269870990E+04  0.00000000000E+00 0.  1.
      99926    2    1    2    0    0 -0.14210854715E-13 -0.53290705182E-14 -0.13894918726E+04  0.14644823255E+04  0.46262384024E+03 0.  0.
      99925    2    3    3    0    0 -0.10771105458E+03  0.11104136834E+02 -0.70360245327E+03  0.75892100510E+03  0.26302035397E+03 0.  0.
         25    1    3    3    0    0  0.10771105458E+03 -0.11104136834E+02 -0.68588941933E+03  0.70556132036E+03  0.12509000000E+03 0.  0.
         25    1    4    4    0    0 -0.86120105965E+02 -0.21193304830E+02 -0.39009948589E+03  0.41915503792E+03  0.12509000000E+03 0.  0.
         25    1    4    4    0    0 -0.21590948618E+02  0.32297441665E+02 -0.31350296738E+03  0.33976596718E+03  0.12509000000E+03 0.  0.
<mgrwt>
<rscale>  2 0.46262384E+03</rscale>
<asrwt>0</asrwt>
<pdfrwt beam="1">  1       21 0.55140045E-02 0.46262384E+03</pdfrwt>
<pdfrwt beam="2">  1       21 0.20985102E+00 0.46262384E+03</pdfrwt>
<totfact> 0.23254828E+04</totfact>
</mgrwt>
</event>
<event>
 7    0  0.4831799E-002  0.4394310E+03  0.7546771E-02  0.1030922E+00
         21   -1    0    0  502  501  0.00000000000E+00  0.00000000000E+00  0.30316915755E+03  0.30316915755E+03  0.00000000000E+00 0. -1.
         21   -1    0    0  501  502 -0.00000000000E+00 -0.00000000000E+00 -0.15923419893E+03  0.15923419893E+03  0.00000000000E+00 0. -1.
      99926    2    1    2    0    0  0.17763568394E-14  0.00000000000E+00  0.14393495862E+03  0.46240335648E+03  0.43943098635E+03 0.  0.
      99925    2    3    3    0    0 -0.12599354776E+02 -0.60555095853E+02  0.14370417057E+02  0.27198239675E+03  0.26446597490E+03 0.  0.
         25    1    4    4    0    0  0.12173779565E+02 -0.31045359882E+01 -0.21614678742E+02  0.12756387220E+03  0.12509000000E+03 0.  0.
         25    1    4    4    0    0 -0.24773134341E+02 -0.57450559865E+02  0.35985095799E+02  0.14441852455E+03  0.12509000000E+03 0.  0.
         25    1    3    3    0    0  0.12599354776E+02  0.60555095853E+02  0.12956454156E+03  0.19042095973E+03  0.12509000000E+03 0.  0.
<mgrwt>
<rscale>  2 0.43943099E+03</rscale>
<asrwt>0</asrwt>
<pdfrwt beam="1">  1       21 0.44583700E-01 0.43943099E+03</pdfrwt>
<pdfrwt beam="2">  1       21 0.23416794E-01 0.43943099E+03</pdfrwt>
<totfact> 0.77097653E+04</totfact>
</mgrwt>
</event>
<event>
 7    0  0.4831799E-002  0.4086684E+03  0.7546771E-02  0.1040819E+00
         21   -1    0    0  502  501  0.00000000000E+00  0.00000000000E+00  0.43811414682E+02  0.43811414682E+02  0.00000000000E+00 0.  1.
         21   -1    0    0  501  502 -0.00000000000E+00 -0.00000000000E+00 -0.95300421315E+03  0.95300421315E+03  0.00000000000E+00 0.  1.
      99926    2    1    2    0    0  0.00000000000E+00  0.00000000000E+00 -0.90919279846E+03  0.99681562783E+03  0.40866838770E+03 0.  0.
      99925    2    3    3    0    0  0.44876800446E+02  0.37748942052E+02 -0.63511366776E+03  0.68988601403E+03  0.26293427225E+03 0.  0.
         25    1    4    4    0    0  0.51073669094E+02  0.20625554072E+02 -0.40352347588E+03  0.42604299881E+03  0.12509000000E+03 0.  0.
         25    1    3    3    0    0 -0.44876800446E+02 -0.37748942052E+02 -0.27407913070E+03  0.30692961380E+03  0.12509000000E+03 0.  0.
         25    1    4    4    0    0 -0.61968686485E+01  0.17123387980E+02 -0.23159019189E+03  0.26384301521E+03  0.12509000000E+03 0.  0.
<mgrwt>
<rscale>  2 0.40866839E+03</rscale>
<asrwt>0</asrwt>
<pdfrwt beam="1">  1       21 0.64428553E-02 0.40866839E+03</pdfrwt>
<pdfrwt beam="2">  1       21 0.14014767E+00 0.40866839E+03</pdfrwt>
<totfact> 0.57422074E+04</totfact>
</mgrwt>
</event>
<event>
 7    0  0.4831799E-002  0.4543130E+03  0.7546771E-02  0.1026444E+00
         21   -1    0    0  502  501  0.00000000000E+00  0.00000000000E+00  0.57802069019E+03  0.57802069019E+03  0.00000000000E+00 0.  1.
         21   -1    0    0  501  502 -0.00000000000E+00 -0.00000000000E+00 -0.89270294617E+02  0.89270294617E+02  0.00000000000E+00 0.  1.
      99926    2    1    2    0    0  0.00000000000E+00  0.00000000000E+00  0.48875039557E+03  0.66729098480E+03  0.45431300799E+03 0.  0.
      99925    2    3    3    0    0 -0.29139790681E+02 -0.53262577180E+02  0.44684394427E+03  0.52206809305E+03  0.26305808050E+03 0.  0.
         25    1    4    4    0    0 -0.78918882305E+01 -0.31898145615E+02  0.30081845107E+03  0.32744315873E+03  0.12509000000E+03 0.  0.
         25    1    3    3    0    0  0.29139790681E+02  0.53262577180E+02  0.41906451296E+02  0.14522289175E+03  0.12509000000E+03 0.  0.
         25    1    4    4    0    0 -0.21247902451E+02 -0.21364431565E+02  0.14602549320E+03  0.19462493432E+03  0.12509000000E+03 0.  0.
<mgrwt>
<rscale>  2 0.45431301E+03</rscale>
<asrwt>0</asrwt>
<pdfrwt beam="1">  1       21 0.85003041E-01 0.45431301E+03</pdfrwt>
<pdfrwt beam="2">  1       21 0.13127985E-01 0.45431301E+03</pdfrwt>
<totfact> 0.55012344E+04</totfact>
</mgrwt>
</event>
<event>
 7    0  0.4831799E-002  0.4599657E+03  0.7546771E-02  0.1024791E+00
         21   -1    0    0  502  501  0.00000000000E+00  0.00000000000E+00  0.39204187452E+03  0.39204187452E+03  0.00000000000E+00 0.  1.
         21   -1    0    0  501  502 -0.00000000000E+00 -0.00000000000E+00 -0.13491447170E+03  0.13491447170E+03  0.00000000000E+00 0.  1.
      99926    2    1    2    0    0  0.14210854715E-13  0.00000000000E+00  0.25712740282E+03  0.52695634622E+03  0.45996574822E+03 0.  0.
      99925    2    3    3    0    0  0.67690960991E+02  0.81351411712E+02  0.10206600015E+03  0.30136453545E+03  0.26306462410E+03 0.  0.
         25    1    3    3    0    0 -0.67690960991E+02 -0.81351411712E+02  0.15506140267E+03  0.22559181077E+03  0.12509000000E+03 0.  0.
         25    1    4    4    0    0  0.62159924159E+02  0.32759130249E+02  0.82877984517E+02  0.16569032924E+03  0.12509000000E+03 0.  0.
         25    1    4    4    0    0  0.55310368313E+01  0.48592281463E+02  0.19188015633E+02  0.13567420621E+03  0.12509000000E+03 0.  0.
<mgrwt>
<rscale>  2 0.45996575E+03</rscale>
<asrwt>0</asrwt>
<pdfrwt beam="1">  1       21 0.57653217E-01 0.45996575E+03</pdfrwt>
<pdfrwt beam="2">  1       21 0.19840364E-01 0.45996575E+03</pdfrwt>
<totfact> 0.60977016E+04</totfact>
</mgrwt>
</event>
<event>
 7    0  0.4831799E-002  0.4564759E+03  0.7546771E-02  0.1025808E+00
         21   -1    0    0  502  501  0.00000000000E+00  0.00000000000E+00  0.28326274848E+03  0.28326274848E+03  0.00000000000E+00 0. -1.
         21   -1    0    0  501  502 -0.00000000000E+00 -0.00000000000E+00 -0.18390193104E+03  0.18390193104E+03  0.00000000000E+00 0. -1.
      99926    2    1    2    0    0  0.00000000000E+00  0.00000000000E+00  0.99360817442E+02  0.46716467952E+03  0.45647592023E+03 0.  0.
      99925    2    3    3    0    0 -0.99161085650E+02  0.27196121116E+02  0.11397189637E+03  0.30458072694E+03  0.26307275828E+03 0.  0.
         25    1    4    4    0    0 -0.35273649738E+02  0.45190347926E+02  0.79200446450E+02  0.15876591803E+03  0.12509000000E+03 0.  0.
         25    1    4    4    0    0 -0.63887435912E+02 -0.17994226810E+02  0.34771449920E+02  0.14581480890E+03  0.12509000000E+03 0.  0.
         25    1    3    3    0    0  0.99161085650E+02 -0.27196121116E+02 -0.14611078928E+02  0.16258395259E+03  0.12509000000E+03 0.  0.
<mgrwt>
<rscale>  2 0.45647592E+03</rscale>
<asrwt>0</asrwt>
<pdfrwt beam="1">  1       21 0.41656286E-01 0.45647592E+03</pdfrwt>
<pdfrwt beam="2">  1       21 0.27044402E-01 0.45647592E+03</pdfrwt>
<totfact> 0.66861481E+04</totfact>
</mgrwt>
</event>
<event>
 7    0  0.4831799E-002  0.4613626E+03  0.7546771E-02  0.1024387E+00
         21   -1    0    0  502  501  0.00000000000E+00  0.00000000000E+00  0.10570108617E+04  0.10570108617E+04  0.00000000000E+00 0.  1.
         21   -1    0    0  501  502 -0.00000000000E+00 -0.00000000000E+00 -0.50343728982E+02  0.50343728982E+02  0.00000000000E+00 0.  1.
      99926    2    1    2    0    0  0.00000000000E+00  0.00000000000E+00  0.10066671327E+04  0.11073545907E+04  0.46136262680E+03 0.  0.
      99925    2    3    3    0    0  0.10593249504E+03 -0.52351269047E+02  0.66421548964E+03  0.72410143046E+03  0.26301771049E+03 0.  0.
         25    1    3    3    0    0 -0.10593249504E+03  0.52351269047E+02  0.34245164305E+03  0.38325316020E+03  0.12509000000E+03 0.  0.
         25    1    4    4    0    0  0.48835833498E+02  0.97915492459E+01  0.26327270175E+03  0.29570396794E+03  0.12509000000E+03 0.  0.
         25    1    4    4    0    0  0.57096661543E+02 -0.62142818293E+02  0.40094278789E+03  0.42839746251E+03  0.12509000000E+03 0.  0.
<mgrwt>
<rscale>  2 0.46136263E+03</rscale>
<asrwt>0</asrwt>
<pdfrwt beam="1">  1       21 0.15544276E+00 0.46136263E+03</pdfrwt>
<pdfrwt beam="2">  1       21 0.74034902E-02 0.46136263E+03</pdfrwt>
<totfact> 0.33543110E+04</totfact>
</mgrwt>
</event>
<event>
 7    0  0.4831799E-002  0.4553739E+03  0.7546771E-02  0.1026132E+00
         21   -1    0    0  502  501  0.00000000000E+00  0.00000000000E+00  0.14119759799E+04  0.14119759799E+04  0.00000000000E+00 0. -1.
         21   -1    0    0  501  502 -0.00000000000E+00 -0.00000000000E+00 -0.36715453274E+02  0.36715453274E+02  0.00000000000E+00 0. -1.
      99926    2    1    2    0    0  0.00000000000E+00  0.00000000000E+00  0.13752605267E+04  0.14486914332E+04  0.45537386010E+03 0.  0.
      99925    2    3    3    0    0 -0.94796221186E+02  0.34708625391E+02  0.10301012634E+04  0.10679376580E+04  0.26304223285E+03 0.  0.
         25    1    3    3    0    0  0.94796221186E+02 -0.34708625391E+02  0.34515926322E+03  0.38075377518E+03  0.12509000000E+03 0.  0.
         25    1    4    4    0    0 -0.12893258123E+02  0.46512420208E+01  0.38454397420E+03  0.40461024004E+03  0.12509000000E+03 0.  0.
         25    1    4    4    0    0 -0.81902963062E+02  0.30057383371E+02  0.64555728924E+03  0.66332741798E+03  0.12509000000E+03 0.  0.
<mgrwt>
<rscale>  2 0.45537386E+03</rscale>
<asrwt>0</asrwt>
<pdfrwt beam="1">  1       21 0.20764349E+00 0.45537386E+03</pdfrwt>
<pdfrwt beam="2">  1       21 0.53993323E-02 0.45537386E+03</pdfrwt>
<totfact> 0.24990179E+04</totfact>
</mgrwt>
</event>
<event>
 7    0  0.4831799E-002  0.4496555E+03  0.7546771E-02  0.1027825E+00
         21   -1    0    0  502  501  0.00000000000E+00  0.00000000000E+00  0.57372373476E+03  0.57372373476E+03  0.00000000000E+00 0. -1.
         21   -1    0    0  501  502 -0.00000000000E+00 -0.00000000000E+00 -0.88104269453E+02  0.88104269453E+02  0.00000000000E+00 0. -1.
      99926    2    1    2    0    0  0.00000000000E+00  0.00000000000E+00  0.48561946531E+03  0.66182800422E+03  0.44965547042E+03 0.  0.
      99925    2    3    3    0    0 -0.31771102821E+02  0.41969061997E+02  0.16803920725E+03  0.31646510298E+03  0.26294900854E+03 0.  0.
         25    1    4    4    0    0 -0.32388989273E+02  0.38223739504E+02  0.12589935901E+03  0.18441327931E+03  0.12509000000E+03 0.  0.
         25    1    4    4    0    0  0.61788645150E+00  0.37453224934E+01  0.42139848236E+02  0.13205182367E+03  0.12509000000E+03 0.  0.
         25    1    3    3    0    0  0.31771102821E+02 -0.41969061997E+02  0.31758025806E+03  0.34536290123E+03  0.12509000000E+03 0.  0.
<mgrwt>
<rscale>  2 0.44965547E+03</rscale>
<asrwt>0</asrwt>
<pdfrwt beam="1">  1       21 0.84371135E-01 0.44965547E+03</pdfrwt>
<pdfrwt beam="2">  1       21 0.12956511E-01 0.44965547E+03</pdfrwt>
<totfact> 0.57405651E+04</totfact>
</mgrwt>
</event>
<event>
 7    0  0.4831799E-002  0.4425368E+03  0.7546771E-02  0.1029971E+00
         21   -1    0    0  502  501  0.00000000000E+00  0.00000000000E+00  0.41014541412E+03  0.41014541412E+03  0.00000000000E+00 0.  1.
         21   -1    0    0  501  502 -0.00000000000E+00 -0.00000000000E+00 -0.11937155971E+03  0.11937155971E+03  0.00000000000E+00 0.  1.
      99926    2    1    2    0    0  0.71054273576E-14  0.00000000000E+00  0.29077385441E+03  0.52951697384E+03  0.44253676816E+03 0.  0.
      99925    2    3    3    0    0  0.41097365138E+02  0.21444393087E+02  0.78210822500E+02  0.27855999336E+03  0.26330568116E+03 0.  0.
         25    1    3    3    0    0 -0.41097365138E+02 -0.21444393087E+02  0.21256303191E+03  0.25095698047E+03  0.12509000000E+03 0.  0.
         25    1    4    4    0    0  0.59971102458E+02  0.12919210010E+02  0.27550266402E+02  0.14202099984E+03  0.12509000000E+03 0.  0.
         25    1    4    4    0    0 -0.18873737319E+02  0.85251830774E+01  0.50660556097E+02  0.13653899352E+03  0.12509000000E+03 0.  0.
<mgrwt>
<rscale>  2 0.44253677E+03</rscale>
<asrwt>0</asrwt>
<pdfrwt beam="1">  1       21 0.60315501E-01 0.44253677E+03</pdfrwt>
<pdfrwt beam="2">  1       21 0.17554641E-01 0.44253677E+03</pdfrwt>
<totfact> 0.69884298E+04</totfact>
</mgrwt>
</event>
<event>
 7    0  0.4831799E-002  0.4547165E+03  0.7546771E-02  0.1026325E+00
         21   -1    0    0  502  501  0.00000000000E+00  0.00000000000E+00  0.29806155473E+03  0.29806155473E+03  0.00000000000E+00 0.  1.
         21   -1    0    0  501  502 -0.00000000000E+00 -0.00000000000E+00 -0.17342646747E+03  0.17342646747E+03  0.00000000000E+00 0.  1.
      99926    2    1    2    0    0  0.00000000000E+00 -0.17763568394E-14  0.12463508726E+03  0.47148802219E+03  0.45471645021E+03 0.  0.
      99925    2    3    3    0    0 -0.20672228685E+02  0.48733378601E+01  0.19345611475E+03  0.32714491572E+03  0.26295900267E+03 0.  0.
         25    1    4    4    0    0 -0.39303681331E+02 -0.10316441396E+02  0.66806353379E+02  0.14751883026E+03  0.12509000000E+03 0.  0.
         25    1    3    3    0    0  0.20672228685E+02 -0.48733378601E+01 -0.68821027493E+02  0.14434310647E+03  0.12509000000E+03 0.  0.
         25    1    4    4    0    0  0.18631452647E+02  0.15189779256E+02  0.12664976138E+03  0.17962608546E+03  0.12509000000E+03 0.  0.
<mgrwt>
<rscale>  2 0.45471645E+03</rscale>
<asrwt>0</asrwt>
<pdfrwt beam="1">  1       21 0.43832582E-01 0.45471645E+03</pdfrwt>
<pdfrwt beam="2">  1       21 0.25503892E-01 0.45471645E+03</pdfrwt>
<totfact> 0.67476885E+04</totfact>
</mgrwt>
</event>
<event>
 7    0  0.4831799E-002  0.4196262E+03  0.7546771E-02  0.1037188E+00
         21   -1    0    0  502  501  0.00000000000E+00  0.00000000000E+00  0.39612236930E+03  0.39612236930E+03  0.00000000000E+00 0. -1.
         21   -1    0    0  501  502 -0.00000000000E+00 -0.00000000000E+00 -0.11113115318E+03  0.11113115318E+03  0.00000000000E+00 0. -1.
      99926    2    1    2    0    0  0.00000000000E+00  0.00000000000E+00  0.28499121613E+03  0.50725352248E+03  0.41962619413E+03 0.  0.
      99925    2    3    3    0    0 -0.67464813208E+02  0.19654230370E+01  0.22652252027E+03  0.35356077573E+03  0.26293992856E+03 0.  0.
         25    1    3    3    0    0  0.67464813208E+02 -0.19654230370E+01  0.58468695855E+02  0.15369274675E+03  0.12509000000E+03 0.  0.
         25    1    4    4    0    0 -0.22541524883E+02  0.24388286917E+01  0.60218957819E+02  0.14066946794E+03  0.12509000000E+03 0.  0.
         25    1    4    4    0    0 -0.44923288325E+02 -0.47340565468E+00  0.16630356245E+03  0.21289130779E+03  0.12509000000E+03 0.  0.
<mgrwt>
<rscale>  2 0.41962619E+03</rscale>
<asrwt>0</asrwt>
<pdfrwt beam="1">  1       21 0.58253289E-01 0.41962619E+03</pdfrwt>
<pdfrwt beam="2">  1       21 0.16342817E-01 0.41962619E+03</pdfrwt>
<totfact> 0.86618186E+04</totfact>
</mgrwt>
</event>
<event>
 7    0  0.4831799E-002  0.4673783E+03  0.7546771E-02  0.1022663E+00
         21   -1    0    0  502  501  0.00000000000E+00  0.00000000000E+00  0.73812979210E+02  0.73812979210E+02  0.00000000000E+00 0.  1.
         21   -1    0    0  501  502 -0.00000000000E+00 -0.00000000000E+00 -0.73985117060E+03  0.73985117060E+03  0.00000000000E+00 0.  1.
      99926    2    1    2    0    0 -0.14210854715E-13  0.00000000000E+00 -0.66603819139E+03  0.81366414981E+03  0.46737830105E+03 0.  0.
      99925    2    3    3    0    0 -0.85151558292E+02  0.78292368435E+02 -0.33498485129E+03  0.44134129942E+03  0.26303385550E+03 0.  0.
         25    1    4    4    0    0 -0.18767453793E+01  0.40536708345E+02 -0.13654340467E+03  0.18957414474E+03  0.12509000000E+03 0.  0.
         25    1    4    4    0    0 -0.83274812912E+02  0.37755660091E+02 -0.19844144662E+03  0.25176715467E+03  0.12509000000E+03 0.  0.
         25    1    3    3    0    0  0.85151558292E+02 -0.78292368435E+02 -0.33105334009E+03  0.37232285039E+03  0.12509000000E+03 0.  0.
<mgrwt>
<rscale>  2 0.46737830E+03</rscale>
<asrwt>0</asrwt>
<pdfrwt beam="1">  1       21 0.10854851E-01 0.46737830E+03</pdfrwt>
<pdfrwt beam="2">  1       21 0.10880163E+00 0.46737830E+03</pdfrwt>
<totfact> 0.42799797E+04</totfact>
</mgrwt>
</event>
<event>
 7    0  0.4831799E-002  0.4778691E+03  0.7546771E-02  0.1019722E+00
         21   -1    0    0  502  501  0.00000000000E+00  0.00000000000E+00  0.31221493599E+03  0.31221493599E+03  0.00000000000E+00 0. -1.
         21   -1    0    0  501  502 -0.00000000000E+00 -0.00000000000E+00 -0.18285392062E+03  0.18285392062E+03  0.00000000000E+00 0. -1.
      99926    2    1    2    0    0  0.00000000000E+00  0.35527136788E-14  0.12936101537E+03  0.49506885660E+03  0.47786912485E+03 0.  0.
      99925    2    3    3    0    0 -0.75265058991E+02 -0.28454829170E+02  0.19007973190E+03  0.33441775314E+03  0.26311674733E+03 0.  0.
         25    1    3    3    0    0  0.75265058991E+02  0.28454829170E+02 -0.60718716532E+02  0.16065110347E+03  0.12509000000E+03 0.  0.
         25    1    4    4    0    0 -0.15346185469E+02 -0.36564117748E+02  0.12409106215E+03  0.18060603512E+03  0.12509000000E+03 0.  0.
         25    1    4    4    0    0 -0.59918873522E+02  0.81092885787E+01  0.65988669750E+02  0.15381171802E+03  0.12509000000E+03 0.  0.
<mgrwt>
<rscale>  2 0.47786912E+03</rscale>
<asrwt>0</asrwt>
<pdfrwt beam="1">  1       21 0.45913961E-01 0.47786912E+03</pdfrwt>
<pdfrwt beam="2">  1       21 0.26890282E-01 0.47786912E+03</pdfrwt>
<totfact> 0.54946376E+04</totfact>
</mgrwt>
</event>
<event>
 7    0  0.4831799E-002  0.4561461E+03  0.7546771E-02  0.1025905E+00
         21   -1    0    0  502  501  0.00000000000E+00  0.00000000000E+00  0.26610398825E+03  0.26610398825E+03  0.00000000000E+00 0.  1.
         21   -1    0    0  501  502 -0.00000000000E+00 -0.00000000000E+00 -0.19547741170E+03  0.19547741170E+03  0.00000000000E+00 0.  1.
      99926    2    1    2    0    0 -0.71054273576E-14  0.00000000000E+00  0.70626576546E+02  0.46158139995E+03  0.45614611197E+03 0.  0.
      99925    2    3    3    0    0  0.39628074355E+02  0.10420632930E+03  0.69536300255E+02  0.29401636737E+03  0.26302278206E+03 0.  0.
         25    1    4    4    0    0  0.51434593685E+02  0.31513490707E+02  0.49741436446E+02  0.14751385062E+03  0.12509000000E+03 0.  0.
         25    1    3    3    0    0 -0.39628074355E+02 -0.10420632930E+03  0.10902762917E+01  0.16756503258E+03  0.12509000000E+03 0.  0.
         25    1    4    4    0    0 -0.11806519331E+02  0.72692838589E+02  0.19794863809E+02  0.14650251675E+03  0.12509000000E+03 0.  0.
<mgrwt>
<rscale>  2 0.45614611E+03</rscale>
<asrwt>0</asrwt>
<pdfrwt beam="1">  1       21 0.39132939E-01 0.45614611E+03</pdfrwt>
<pdfrwt beam="2">  1       21 0.28746678E-01 0.45614611E+03</pdfrwt>
<totfact> 0.67446898E+04</totfact>
</mgrwt>
</event>
<event>
 7    0  0.4831799E-002  0.4366051E+03  0.7546771E-02  0.1031794E+00
         21   -1    0    0  502  501  0.00000000000E+00  0.00000000000E+00  0.12934170513E+03  0.12934170513E+03  0.00000000000E+00 0.  1.
         21   -1    0    0  501  502 -0.00000000000E+00 -0.00000000000E+00 -0.36845043827E+03  0.36845043827E+03  0.00000000000E+00 0.  1.
      99926    2    1    2    0    0  0.00000000000E+00  0.35527136788E-14 -0.23910873313E+03  0.49779214340E+03  0.43660512110E+03 0.  0.
      99925    2    3    3    0    0 -0.54878361912E+01 -0.29782882849E+02 -0.25565659261E+03  0.36802898911E+03  0.26299792209E+03 0.  0.
         25    1    4    4    0    0  0.14832635083E+02  0.19221883501E+01 -0.80433299452E+02  0.14946814253E+03  0.12509000000E+03 0.  0.
         25    1    4    4    0    0 -0.20320471274E+02 -0.31705071200E+02 -0.17522329316E+03  0.21856084658E+03  0.12509000000E+03 0.  0.
         25    1    3    3    0    0  0.54878361912E+01  0.29782882849E+02  0.16547859477E+02  0.12976315429E+03  0.12509000000E+03 0.  0.
<mgrwt>
<rscale>  2 0.43660512E+03</rscale>
<asrwt>0</asrwt>
<pdfrwt beam="1">  1       21 0.19020839E-01 0.43660512E+03</pdfrwt>
<pdfrwt beam="2">  1       21 0.54183888E-01 0.43660512E+03</pdfrwt>
<totfact> 0.75918683E+04</totfact>
</mgrwt>
</event>
<event>
 7    0  0.4831799E-002  0.4436380E+03  0.7546771E-02  0.1029636E+00
         21   -1    0    0  502  501  0.00000000000E+00  0.00000000000E+00  0.91812854108E+03  0.91812854108E+03  0.00000000000E+00 0. -1.
         21   -1    0    0  501  502 -0.00000000000E+00 -0.00000000000E+00 -0.53591259583E+02  0.53591259583E+02  0.00000000000E+00 0. -1.
      99926    2    1    2    0    0 -0.71054273576E-14  0.35527136788E-14  0.86453728149E+03  0.97171980066E+03  0.44363798293E+03 0.  0.
      99925    2    3    3    0    0 -0.61447944052E+02  0.27430293516E+02  0.71811200351E+03  0.76771945516E+03  0.26302099045E+03 0.  0.
         25    1    4    4    0    0  0.80428535076E+01  0.62993069458E+00  0.30780481118E+03  0.33234980697E+03  0.12509000000E+03 0.  0.
         25    1    3    3    0    0  0.61447944052E+02 -0.27430293516E+02  0.14642527799E+03  0.20400034550E+03  0.12509000000E+03 0.  0.
         25    1    4    4    0    0 -0.69490797560E+02  0.26800362821E+02  0.41030719233E+03  0.43536964819E+03  0.12509000000E+03 0.  0.
<mgrwt>
<rscale>  2 0.44363798E+03</rscale>
<asrwt>0</asrwt>
<pdfrwt beam="1">  1       21 0.13501889E+00 0.44363798E+03</pdfrwt>
<pdfrwt beam="2">  1       21 0.78810682E-02 0.44363798E+03</pdfrwt>
<totfact> 0.44058838E+04</totfact>
</mgrwt>
</event>
<event>
 7    0  0.4831799E-002  0.4523114E+03  0.7546771E-02  0.1027035E+00
         21   -1    0    0  502  501  0.00000000000E+00  0.00000000000E+00  0.90746576275E+03  0.90746576275E+03  0.00000000000E+00 0.  1.
         21   -1    0    0  501  502 -0.00000000000E+00 -0.00000000000E+00 -0.56361791048E+02  0.56361791048E+02  0.00000000000E+00 0.  1.
      99926    2    1    2    0    0  0.00000000000E+00 -0.71054273576E-14  0.85110397170E+03  0.96382755380E+03  0.45231137816E+03 0.  0.
      99925    2    3    3    0    0  0.77736066221E+02 -0.42191524001E+02  0.67853352909E+03  0.73306558455E+03  0.26297220473E+03 0.  0.
         25    1    4    4    0    0 -0.78001775329E-01 -0.35431960455E+01  0.30818273846E+03  0.33262090840E+03  0.12509000000E+03 0.  0.
         25    1    3    3    0    0 -0.77736066221E+02  0.42191524001E+02  0.17257044261E+03  0.23076196925E+03  0.12509000000E+03 0.  0.
         25    1    4    4    0    0  0.77814067996E+02 -0.38648327955E+02  0.37035079063E+03  0.40044467615E+03  0.12509000000E+03 0.  0.
<mgrwt>
<rscale>  2 0.45231138E+03</rscale>
<asrwt>0</asrwt>
<pdfrwt beam="1">  1       21 0.13345084E+00 0.45231138E+03</pdfrwt>
<pdfrwt beam="2">  1       21 0.82884992E-02 0.45231138E+03</pdfrwt>
<totfact> 0.41450429E+04</totfact>
</mgrwt>
</event>
<event>
 7    0  0.4831799E-002  0.4628733E+03  0.7546771E-02  0.1023951E+00
         21   -1    0    0  502  501  0.00000000000E+00  0.00000000000E+00  0.59692056194E+03  0.59692056194E+03  0.00000000000E+00 0. -1.
         21   -1    0    0  501  502 -0.00000000000E+00 -0.00000000000E+00 -0.89732090880E+02  0.89732090880E+02  0.00000000000E+00 0. -1.
      99926    2    1    2    0    0  0.00000000000E+00  0.00000000000E+00  0.50718847106E+03  0.68665265282E+03  0.46287333089E+03 0.  0.
      99925    2    3    3    0    0 -0.70641429783E+02  0.96305475371E+02  0.33705252441E+03  0.44404452305E+03  0.26326066559E+03 0.  0.
         25    1    4    4    0    0 -0.27648146384E+02  0.34086190627E+02  0.10207788343E+03  0.16731315183E+03  0.12509000000E+03 0.  0.
         25    1    4    4    0    0 -0.42993283399E+02  0.62219284744E+02  0.23497464098E+03  0.27673137122E+03  0.12509000000E+03 0.  0.
         25    1    3    3    0    0  0.70641429783E+02 -0.96305475371E+02  0.17013594665E+03  0.24260812977E+03  0.12509000000E+03 0.  0.
<mgrwt>
<rscale>  2 0.46287333E+03</rscale>
<asrwt>0</asrwt>
<pdfrwt beam="1">  1       21 0.87782434E-01 0.46287333E+03</pdfrwt>
<pdfrwt beam="2">  1       21 0.13195896E-01 0.46287333E+03</pdfrwt>
<totfact> 0.50432755E+04</totfact>
</mgrwt>
</event>
<event>
 7    0  0.4831799E-002  0.4520224E+03  0.7546771E-02  0.1027121E+00
         21   -1    0    0  502  501  0.00000000000E+00  0.00000000000E+00  0.10604986706E+03  0.10604986706E+03  0.00000000000E+00 0.  1.
         21   -1    0    0  501  502 -0.00000000000E+00 -0.00000000000E+00 -0.48167015985E+03  0.48167015985E+03  0.00000000000E+00 0.  1.
      99926    2    1    2    0    0  0.00000000000E+00 -0.17763568394E-14 -0.37562029278E+03  0.58772002691E+03  0.45202237299E+03 0.  0.
      99925    2    3    3    0    0  0.10968182537E+03  0.72654296573E+01 -0.24985093751E+03  0.37903766515E+03  0.26298511620E+03 0.  0.
         25    1    4    4    0    0  0.72858528476E+02 -0.26372555699E+02 -0.15872563491E+03  0.21643754790E+03  0.12509000000E+03 0.  0.
         25    1    3    3    0    0 -0.10968182537E+03 -0.72654296573E+01 -0.12576935527E+03  0.20868236176E+03  0.12509000000E+03 0.  0.
         25    1    4    4    0    0  0.36823296897E+02  0.33637985356E+02 -0.91125302603E+02  0.16260011724E+03  0.12509000000E+03 0.  0.
<mgrwt>
<rscale>  2 0.45202237E+03</rscale>
<asrwt>0</asrwt>
<pdfrwt beam="1">  1       21 0.15595569E-01 0.45202237E+03</pdfrwt>
<pdfrwt beam="2">  1       21 0.70833846E-01 0.45202237E+03</pdfrwt>
<totfact> 0.60860316E+04</totfact>
</mgrwt>
</event>
<event>
 7    0  0.4831799E-002  0.4243482E+03  0.7546771E-02  0.1035660E+00
         21   -1    0    0  502  501  0.00000000000E+00  0.00000000000E+00  0.36430335481E+03  0.36430335481E+03  0.00000000000E+00 0.  1.
         21   -1    0    0  501  502 -0.00000000000E+00 -0.00000000000E+00 -0.12357244404E+03  0.12357244404E+03  0.00000000000E+00 0.  1.
      99926    2    1    2    0    0  0.71054273576E-14  0.00000000000E+00  0.24073091078E+03  0.48787579885E+03  0.42434823400E+03 0.  0.
      99925    2    3    3    0    0 -0.52364944300E+02  0.61241659240E+02  0.14553057292E+03  0.31123140849E+03  0.26304602973E+03 0.  0.
         25    1    3    3    0    0  0.52364944300E+02 -0.61241659240E+02  0.95200337854E+02  0.17664439036E+03  0.12509000000E+03 0.  0.
         25    1    4    4    0    0  0.39963830082E-01  0.32659151218E+02  0.10577317481E+03  0.16703920008E+03  0.12509000000E+03 0.  0.
         25    1    4    4    0    0 -0.52404908130E+02  0.28582508023E+02  0.39757398116E+02  0.14419220841E+03  0.12509000000E+03 0.  0.
<mgrwt>
<rscale>  2 0.42434823E+03</rscale>
<asrwt>0</asrwt>
<pdfrwt beam="1">  1       21 0.53574022E-01 0.42434823E+03</pdfrwt>
<pdfrwt beam="2">  1       21 0.18172418E-01 0.42434823E+03</pdfrwt>
<totfact> 0.84999681E+04</totfact>
</mgrwt>
</event>
<event>
 7    0  0.4831799E-002  0.4747860E+03  0.7546771E-02  0.1020578E+00
         21   -1    0    0  502  501  0.00000000000E+00  0.00000000000E+00  0.16490266649E+04  0.16490266649E+04  0.00000000000E+00 0. -1.
         21   -1    0    0  501  502 -0.00000000000E+00 -0.00000000000E+00 -0.34174963286E+02  0.34174963286E+02  0.00000000000E+00 0. -1.
      99926    2    1    2    0    0  0.00000000000E+00  0.00000000000E+00  0.16148517016E+04  0.16832016282E+04  0.47478595485E+03 0.  0.
      99925    2    3    3    0    0  0.20032299279E+02 -0.73599807917E+02  0.62291816637E+03  0.68050632493E+03  0.26314177078E+03 0.  0.
         25    1    4    4    0    0  0.25436878416E+02 -0.16630040579E+02  0.38169575193E+03  0.40281850525E+03  0.12509000000E+03 0.  0.
         25    1    3    3    0    0 -0.20032299279E+02  0.73599807917E+02  0.99193353521E+03  0.10026953032E+04  0.12509000000E+03 0.  0.
         25    1    4    4    0    0 -0.54045791367E+01 -0.56969767338E+02  0.24122241444E+03  0.27768781968E+03  0.12509000000E+03 0.  0.
<mgrwt>
<rscale>  2 0.47478595E+03</rscale>
<asrwt>0</asrwt>
<pdfrwt beam="1">  1       21 0.24250387E+00 0.47478595E+03</pdfrwt>
<pdfrwt beam="2">  1       21 0.50257310E-02 0.47478595E+03</pdfrwt>
<totfact> 0.16869310E+04</totfact>
</mgrwt>
</event>
<event>
 7    0  0.4831799E-002  0.4537390E+03  0.7546771E-02  0.1026613E+00
         21   -1    0    0  502  501  0.00000000000E+00  0.00000000000E+00  0.53880715896E+03  0.53880715896E+03  0.00000000000E+00 0. -1.
         21   -1    0    0  501  502 -0.00000000000E+00 -0.00000000000E+00 -0.95525419523E+02  0.95525419523E+02  0.00000000000E+00 0. -1.
      99926    2    1    2    0    0  0.00000000000E+00  0.00000000000E+00  0.44328173944E+03  0.63433257849E+03  0.45373904351E+03 0.  0.
      99925    2    3    3    0    0 -0.48340789625E+02 -0.91514078205E+02  0.33903086224E+03  0.44138851419E+03  0.26300235066E+03 0.  0.
         25    1    3    3    0    0  0.48340789625E+02  0.91514078205E+02  0.10425087720E+03  0.19294406430E+03  0.12509000000E+03 0.  0.
         25    1    4    4    0    0 -0.48752613178E+02 -0.81674562520E+02  0.19036964398E+03  0.24685149565E+03  0.12509000000E+03 0.  0.
         25    1    4    4    0    0  0.41182355315E+00 -0.98395156857E+01  0.14866121826E+03  0.19453701854E+03  0.12509000000E+03 0.  0.
<mgrwt>
<rscale>  2 0.45373904E+03</rscale>
<asrwt>0</asrwt>
<pdfrwt beam="1">  1       21 0.79236345E-01 0.45373904E+03</pdfrwt>
<pdfrwt beam="2">  1       21 0.14047856E-01 0.45373904E+03</pdfrwt>
<totfact> 0.57180210E+04</totfact>
</mgrwt>
</event>
<event>
 7    0  0.4831799E-002  0.4722866E+03  0.7546771E-02  0.1021277E+00
         21   -1    0    0  502  501  0.00000000000E+00  0.00000000000E+00  0.33781317121E+03  0.33781317121E+03  0.00000000000E+00 0. -1.
         21   -1    0    0  501  502 -0.00000000000E+00 -0.00000000000E+00 -0.16507246965E+03  0.16507246965E+03  0.00000000000E+00 0. -1.
      99926    2    1    2    0    0  0.00000000000E+00  0.35527136788E-14  0.17274070157E+03  0.50288564086E+03  0.47228658440E+03 0.  0.
      99925    2    3    3    0    0 -0.10627254191E+03 -0.18459884238E+02  0.32331747348E+02  0.28609818040E+03  0.26300609584E+03 0.  0.
         25    1    4    4    0    0 -0.66319974365E+02 -0.47149954802E+02  0.26471210514E+02  0.15155754789E+03  0.12509000000E+03 0.  0.
         25    1    4    4    0    0 -0.39952567546E+02  0.28690070564E+02  0.58605368334E+01  0.13454063250E+03  0.12509000000E+03 0.  0.
         25    1    3    3    0    0  0.10627254191E+03  0.18459884238E+02  0.14040895422E+03  0.21678746047E+03  0.12509000000E+03 0.  0.
<mgrwt>
<rscale>  2 0.47228658E+03</rscale>
<asrwt>0</asrwt>
<pdfrwt beam="1">  1       21 0.49678408E-01 0.47228658E+03</pdfrwt>
<pdfrwt beam="2">  1       21 0.24275363E-01 0.47228658E+03</pdfrwt>
<totfact> 0.56856265E+04</totfact>
</mgrwt>
</event>
<event>
 7    0  0.4831799E-002  0.4539730E+03  0.7546771E-02  0.1026544E+00
         21   -1    0    0  502  501  0.00000000000E+00  0.00000000000E+00  0.26271994692E+03  0.26271994692E+03  0.00000000000E+00 0. -1.
         21   -1    0    0  501  502 -0.00000000000E+00 -0.00000000000E+00 -0.19611325641E+03  0.19611325641E+03  0.00000000000E+00 0. -1.
      99926    2    1    2    0    0  0.00000000000E+00  0.00000000000E+00  0.66606690513E+02  0.45883320334E+03  0.45397296975E+03 0.  0.
      99925    2    3    3    0    0 -0.19711529527E+02  0.10974148765E+03  0.47329613210E+02  0.29015939886E+03  0.26366768090E+03 0.  0.
         25    1    4    4    0    0 -0.18948455856E+02  0.45614663369E+02 -0.17015740928E+02  0.13556100115E+03  0.12509000000E+03 0.  0.
         25    1    3    3    0    0  0.19711529527E+02 -0.10974148765E+03  0.19277077303E+02  0.16867380448E+03  0.12509000000E+03 0.  0.
         25    1    4    4    0    0 -0.76307367067E+00  0.64126824283E+02  0.64345354138E+02  0.15459839771E+03  0.12509000000E+03 0.  0.
<mgrwt>
<rscale>  2 0.45397297E+03</rscale>
<asrwt>0</asrwt>
<pdfrwt beam="1">  1       21 0.38635286E-01 0.45397297E+03</pdfrwt>
<pdfrwt beam="2">  1       21 0.28840185E-01 0.45397297E+03</pdfrwt>
<totfact> 0.68827681E+04</totfact>
</mgrwt>
</event>
<event>
 7    0  0.4831799E-002  0.4551579E+03  0.7546771E-02  0.1026195E+00
         21   -1    0    0  502  501  0.00000000000E+00  0.00000000000E+00  0.78128547023E+02  0.78128547023E+02  0.00000000000E+00 0. -1.
         21   -1    0    0  501  502 -0.00000000000E+00 -0.00000000000E+00 -0.66290990090E+03  0.66290990090E+03  0.00000000000E+00 0. -1.
      99926    2    1    2    0    0  0.00000000000E+00  0.00000000000E+00 -0.58478135388E+03  0.74103844792E+03  0.45515793902E+03 0.  0.
      99925    2    3    3    0    0 -0.16362055824E+02 -0.10788331899E+03 -0.41757374914E+03  0.50542771267E+03  0.26302625225E+03 0.  0.
         25    1    3    3    0    0  0.16362055824E+02  0.10788331899E+03 -0.16720760473E+03  0.23561073525E+03  0.12509000000E+03 0.  0.
         25    1    4    4    0    0  0.18313625899E+02 -0.24200339138E+02 -0.16339231650E+03  0.20800385213E+03  0.12509000000E+03 0.  0.
         25    1    4    4    0    0 -0.34675681722E+02 -0.83682979848E+02 -0.25418143264E+03  0.29742386054E+03  0.12509000000E+03 0.  0.
<mgrwt>
<rscale>  2 0.45515794E+03</rscale>
<asrwt>0</asrwt>
<pdfrwt beam="1">  1       21 0.11489493E-01 0.45515794E+03</pdfrwt>
<pdfrwt beam="2">  1       21 0.97486747E-01 0.45515794E+03</pdfrwt>
<totfact> 0.50667887E+04</totfact>
</mgrwt>
</event>
<event>
 7    0  0.4831799E-002  0.4530122E+03  0.7546771E-02  0.1026828E+00
         21   -1    0    0  502  501  0.00000000000E+00  0.00000000000E+00  0.19572431798E+03  0.19572431798E+03  0.00000000000E+00 0.  1.
         21   -1    0    0  501  502 -0.00000000000E+00 -0.00000000000E+00 -0.26212897889E+03  0.26212897889E+03  0.00000000000E+00 0.  1.
      99926    2    1    2    0    0  0.00000000000E+00 -0.14210854715E-13 -0.66404660913E+02  0.45785329687E+03  0.45301221006E+03 0.  0.
      99925    2    3    3    0    0 -0.44418110463E+02  0.10205321680E+03 -0.40140289535E+02  0.28836833323E+03  0.26297761344E+03 0.  0.
         25    1    4    4    0    0 -0.81861747763E+01  0.78454484657E+02  0.65314272903E+01  0.14802799486E+03  0.12509000000E+03 0.  0.
         25    1    4    4    0    0 -0.36231935686E+02  0.23598732138E+02 -0.46671716825E+02  0.14034033837E+03  0.12509000000E+03 0.  0.
         25    1    3    3    0    0  0.44418110463E+02 -0.10205321680E+03 -0.26264371378E+02  0.16948496364E+03  0.12509000000E+03 0.  0.
<mgrwt>
<rscale>  2 0.45301221E+03</rscale>
<asrwt>0</asrwt>
<pdfrwt beam="1">  1       21 0.28782988E-01 0.45301221E+03</pdfrwt>
<pdfrwt beam="2">  1       21 0.38548379E-01 0.45301221E+03</pdfrwt>
<totfact> 0.69431419E+04</totfact>
</mgrwt>
</event>
<event>
 7    0  0.4831799E-002  0.4679512E+03  0.7546771E-02  0.1022500E+00
         21   -1    0    0  502  501  0.00000000000E+00  0.00000000000E+00  0.22434555955E+03  0.22434555955E+03  0.00000000000E+00 0.  1.
         21   -1    0    0  501  502 -0.00000000000E+00 -0.00000000000E+00 -0.24401903121E+03  0.24401903121E+03  0.00000000000E+00 0.  1.
      99926    2    1    2    0    0  0.00000000000E+00 -0.14210854715E-13 -0.19673471652E+02  0.46836459076E+03  0.46795122010E+03 0.  0.
      99925    2    3    3    0    0  0.10485823650E+03 -0.66402250388E+02  0.19359151855E+01  0.29082872870E+03  0.26300778135E+03 0.  0.
         25    1    4    4    0    0  0.93303063205E+01 -0.31063405366E+02 -0.55087390861E+01  0.12934389849E+03  0.12509000000E+03 0.  0.
         25    1    4    4    0    0  0.95527930179E+02 -0.35338845022E+02  0.74446542715E+01  0.16148483021E+03  0.12509000000E+03 0.  0.
         25    1    3    3    0    0 -0.10485823650E+03  0.66402250388E+02 -0.21609386838E+02  0.17753586206E+03  0.12509000000E+03 0.  0.
<mgrwt>
<rscale>  2 0.46795122E+03</rscale>
<asrwt>0</asrwt>
<pdfrwt beam="1">  1       21 0.32991994E-01 0.46795122E+03</pdfrwt>
<pdfrwt beam="2">  1       21 0.35885152E-01 0.46795122E+03</pdfrwt>
<totfact> 0.61023632E+04</totfact>
</mgrwt>
</event>
<event>
 7    0  0.4831799E-002  0.4403569E+03  0.7546771E-02  0.1030637E+00
         21   -1    0    0  502  501  0.00000000000E+00  0.00000000000E+00  0.11972224061E+03  0.11972224061E+03  0.00000000000E+00 0.  1.
         21   -1    0    0  501  502 -0.00000000000E+00 -0.00000000000E+00 -0.40492512614E+03  0.40492512614E+03  0.00000000000E+00 0.  1.
      99926    2    1    2    0    0 -0.71054273576E-14  0.00000000000E+00 -0.28520288553E+03  0.52464736674E+03  0.44035687064E+03 0.  0.
      99925    2    3    3    0    0  0.40614657528E+02 -0.85760876050E+02 -0.21770008002E+03  0.35374208561E+03  0.26217486536E+03 0.  0.
         25    1    4    4    0    0 -0.26490748444E+01 -0.75282647228E+02 -0.11634800027E+03  0.18670527534E+03  0.12509000000E+03 0.  0.
         25    1    3    3    0    0 -0.40614657528E+02  0.85760876050E+02 -0.67502805507E+02  0.17090528113E+03  0.12509000000E+03 0.  0.
         25    1    4    4    0    0  0.43263732372E+02 -0.10478228822E+02 -0.10135207975E+03  0.16703681028E+03  0.12509000000E+03 0.  0.
<mgrwt>
<rscale>  2 0.44035687E+03</rscale>
<asrwt>0</asrwt>
<pdfrwt beam="1">  1       21 0.17606212E-01 0.44035687E+03</pdfrwt>
<pdfrwt beam="2">  1       21 0.59547812E-01 0.44035687E+03</pdfrwt>
<totfact> 0.71509954E+04</totfact>
</mgrwt>
</event>
<event>
 7    0  0.4831799E-002  0.4430347E+03  0.7546771E-02  0.1029820E+00
         21   -1    0    0  502  501  0.00000000000E+00  0.00000000000E+00  0.88353367481E+03  0.88353367481E+03  0.00000000000E+00 0. -1.
         21   -1    0    0  501  502 -0.00000000000E+00 -0.00000000000E+00 -0.55538274795E+02  0.55538274795E+02  0.00000000000E+00 0. -1.
      99926    2    1    2    0    0  0.00000000000E+00  0.00000000000E+00  0.82799540002E+03  0.93907194961E+03  0.44303469852E+03 0.  0.
      99925    2    3    3    0    0  0.58006791090E+02  0.76153210538E+02  0.45481872165E+03  0.53401338512E+03  0.26295651092E+03 0.  0.
         25    1    3    3    0    0 -0.58006791090E+02 -0.76153210538E+02  0.37317667837E+03  0.40505856449E+03  0.12509000000E+03 0.  0.
         25    1    4    4    0    0  0.43144280061E+02  0.17461658881E+01  0.19140473722E+03  0.23269671147E+03  0.12509000000E+03 0.  0.
         25    1    4    4    0    0  0.14862511029E+02  0.74407044650E+02  0.26341398442E+03  0.30131667365E+03  0.12509000000E+03 0.  0.
<mgrwt>
<rscale>  2 0.44303470E+03</rscale>
<asrwt>0</asrwt>
<pdfrwt beam="1">  1       21 0.12993141E+00 0.44303470E+03</pdfrwt>
<pdfrwt beam="2">  1       21 0.81673939E-02 0.44303470E+03</pdfrwt>
<totfact> 0.45716918E+04</totfact>
</mgrwt>
</event>
<event>
 7    0  0.4831799E-002  0.4490879E+03  0.7546771E-02  0.1027994E+00
         21   -1    0    0  502  501  0.00000000000E+00  0.00000000000E+00  0.21702269116E+03  0.21702269116E+03  0.00000000000E+00 0.  1.
         21   -1    0    0  501  502 -0.00000000000E+00 -0.00000000000E+00 -0.23232582640E+03  0.23232582640E+03  0.00000000000E+00 0.  1.
      99926    2    1    2    0    0 -0.71054273576E-14 -0.14210854715E-13 -0.15303135243E+02  0.44934851757E+03  0.44908785810E+03 0.  0.
      99925    2    3    3    0    0 -0.35657396246E+02 -0.97084603961E+02 -0.39359788005E+02  0.28526591375E+03  0.26292694499E+03 0.  0.
         25    1    4    4    0    0 -0.42969903268E+02 -0.81358968506E+02 -0.33419790220E+02  0.15883980868E+03  0.12509000000E+03 0.  0.
         25    1    3    3    0    0  0.35657396246E+02  0.97084603961E+02  0.24056652762E+02  0.16408260382E+03  0.12509000000E+03 0.  0.
         25    1    4    4    0    0  0.73125070211E+01 -0.15725635455E+02 -0.59399977846E+01  0.12642610507E+03  0.12509000000E+03 0.  0.
<mgrwt>
<rscale>  2 0.44908786E+03</rscale>
<asrwt>0</asrwt>
<pdfrwt beam="1">  1       21 0.31915102E-01 0.44908786E+03</pdfrwt>
<pdfrwt beam="2">  1       21 0.34165562E-01 0.44908786E+03</pdfrwt>
<totfact> 0.72313293E+04</totfact>
</mgrwt>
</event>
<event>
 7    0  0.4831799E-002  0.4535404E+03  0.7546771E-02  0.1026671E+00
         21   -1    0    0  502  501  0.00000000000E+00  0.00000000000E+00  0.95447883935E+03  0.95447883935E+03  0.00000000000E+00 0. -1.
         21   -1    0    0  501  502 -0.00000000000E+00 -0.00000000000E+00 -0.53877288121E+02  0.53877288121E+02  0.00000000000E+00 0. -1.
      99926    2    1    2    0    0  0.00000000000E+00  0.00000000000E+00  0.90060155123E+03  0.10083561275E+04  0.45354043451E+03 0.  0.
      99925    2    3    3    0    0 -0.17863749765E+02 -0.71346862878E+02  0.38020965271E+03  0.46811106775E+03  0.26298118440E+03 0.  0.
         25    1    4    4    0    0  0.91948434672E+00 -0.62798941025E+02  0.14906968857E+03  0.20448430892E+03  0.12509000000E+03 0.  0.
         25    1    4    4    0    0 -0.18783234112E+02 -0.85479218530E+01  0.23113996414E+03  0.26362675883E+03  0.12509000000E+03 0.  0.
         25    1    3    3    0    0  0.17863749765E+02  0.71346862878E+02  0.52039189852E+03  0.54024505972E+03  0.12509000000E+03 0.  0.
<mgrwt>
<rscale>  2 0.45354043E+03</rscale>
<asrwt>0</asrwt>
<pdfrwt beam="1">  1       21 0.14036452E+00 0.45354043E+03</pdfrwt>
<pdfrwt beam="2">  1       21 0.79231312E-02 0.45354043E+03</pdfrwt>
<totfact> 0.39289234E+04</totfact>
</mgrwt>
</event>
<event>
 7    0  0.4831799E-002  0.4569796E+03  0.7546771E-02  0.1025661E+00
         21   -1    0    0  502  501  0.00000000000E+00  0.00000000000E+00  0.70673633181E+03  0.70673633181E+03  0.00000000000E+00 0.  1.
         21   -1    0    0  501  502 -0.00000000000E+00 -0.00000000000E+00 -0.73871395397E+02  0.73871395397E+02  0.00000000000E+00 0.  1.
      99926    2    1    2    0    0  0.14210854715E-13  0.00000000000E+00  0.63286493641E+03  0.78060772720E+03  0.45697964510E+03 0.  0.
      99925    2    3    3    0    0  0.10396334486E+03  0.18998848886E+02  0.47385928082E+03  0.55235427171E+03  0.26340708063E+03 0.  0.
         25    1    4    4    0    0  0.24538376450E+02 -0.22122186120E+02  0.23541481993E+03  0.26862458670E+03  0.12509000000E+03 0.  0.
         25    1    4    4    0    0  0.79424968413E+02  0.41121035005E+02  0.23844446089E+03  0.28372968501E+03  0.12509000000E+03 0.  0.
         25    1    3    3    0    0 -0.10396334486E+03 -0.18998848886E+02  0.15900565559E+03  0.22825345549E+03  0.12509000000E+03 0.  0.
<mgrwt>
<rscale>  2 0.45697965E+03</rscale>
<asrwt>0</asrwt>
<pdfrwt beam="1">  1       21 0.10393181E+00 0.45697965E+03</pdfrwt>
<pdfrwt beam="2">  1       21 0.10863441E-01 0.45697965E+03</pdfrwt>
<totfact> 0.47967439E+04</totfact>
</mgrwt>
</event>
<event>
 7    0  0.4831799E-002  0.4441600E+03  0.7546771E-02  0.1029478E+00
         21   -1    0    0  502  501  0.00000000000E+00  0.00000000000E+00  0.13064573888E+03  0.13064573888E+03  0.00000000000E+00 0.  1.
         21   -1    0    0  501  502 -0.00000000000E+00 -0.00000000000E+00 -0.37750578783E+03  0.37750578783E+03  0.00000000000E+00 0.  1.
      99926    2    1    2    0    0  0.00000000000E+00  0.88817841970E-15 -0.24686004896E+03  0.50815152671E+03  0.44415998281E+03 0.  0.
      99925    2    3    3    0    0 -0.90938275744E+02 -0.41688616021E+01 -0.10304077934E+03  0.29692027946E+03  0.26316743861E+03 0.  0.
         25    1    4    4    0    0 -0.12035993968E+02  0.20347603584E+02 -0.61358228058E+02  0.14131960364E+03  0.12509000000E+03 0.  0.
         25    1    3    3    0    0  0.90938275744E+02  0.41688616021E+01 -0.14381926962E+03  0.21123124725E+03  0.12509000000E+03 0.  0.
         25    1    4    4    0    0 -0.78902281775E+02 -0.24516465187E+02 -0.41682551284E+02  0.15560067582E+03  0.12509000000E+03 0.  0.
<mgrwt>
<rscale>  2 0.44415998E+03</rscale>
<asrwt>0</asrwt>
<pdfrwt beam="1">  1       21 0.19212609E-01 0.44415998E+03</pdfrwt>
<pdfrwt beam="2">  1       21 0.55515556E-01 0.44415998E+03</pdfrwt>
<totfact> 0.70580239E+04</totfact>
</mgrwt>
</event>
<event>
 7    0  0.4831799E-002  0.4584035E+03  0.7546771E-02  0.1025245E+00
         21   -1    0    0  502  501  0.00000000000E+00  0.00000000000E+00  0.61598590239E+03  0.61598590239E+03  0.00000000000E+00 0.  1.
         21   -1    0    0  501  502 -0.00000000000E+00 -0.00000000000E+00 -0.85283530895E+02  0.85283530895E+02  0.00000000000E+00 0.  1.
      99926    2    1    2    0    0  0.00000000000E+00  0.00000000000E+00  0.53070237149E+03  0.70126943328E+03  0.45840354596E+03 0.  0.
      99925    2    3    3    0    0 -0.19134195042E+02 -0.93405241390E+02  0.23075682872E+03  0.36258743898E+03  0.26292637822E+03 0.  0.
         25    1    4    4    0    0  0.12816294679E+02 -0.69561742918E+02  0.15343483835E+03  0.21022095806E+03  0.12509000000E+03 0.  0.
         25    1    4    4    0    0 -0.31950489721E+02 -0.23843498473E+02  0.77321990372E+02  0.15236648092E+03  0.12509000000E+03 0.  0.
         25    1    3    3    0    0  0.19134195042E+02  0.93405241390E+02  0.29994554277E+03  0.33868199431E+03  0.12509000000E+03 0.  0.
<mgrwt>
<rscale>  2 0.45840355E+03</rscale>
<asrwt>0</asrwt>
<pdfrwt beam="1">  1       21 0.90586160E-01 0.45840355E+03</pdfrwt>
<pdfrwt beam="2">  1       21 0.12541696E-01 0.45840355E+03</pdfrwt>
<totfact> 0.51442317E+04</totfact>
</mgrwt>
</event>
<event>
 7    0  0.4831799E-002  0.4551303E+03  0.7546771E-02  0.1026203E+00
         21   -1    0    0  502  501  0.00000000000E+00  0.00000000000E+00  0.66515060992E+03  0.66515060992E+03  0.00000000000E+00 0.  1.
         21   -1    0    0  501  502 -0.00000000000E+00 -0.00000000000E+00 -0.77855897889E+02  0.77855897889E+02  0.00000000000E+00 0.  1.
      99926    2    1    2    0    0  0.14210854715E-13  0.00000000000E+00  0.58729471203E+03  0.74300650781E+03  0.45513030208E+03 0.  0.
      99925    2    3    3    0    0 -0.10421371617E+03 -0.14136246731E+02  0.43837145709E+03  0.52190477540E+03  0.26297286569E+03 0.  0.
         25    1    4    4    0    0 -0.88335635484E+02  0.13994518693E+02  0.24921689195E+03  0.29284056820E+03  0.12509000000E+03 0.  0.
         25    1    4    4    0    0 -0.15878080690E+02 -0.28130765425E+02  0.18915456513E+03  0.22906420720E+03  0.12509000000E+03 0.  0.
         25    1    3    3    0    0  0.10421371617E+03  0.14136246731E+02  0.14892325495E+03  0.22110173241E+03  0.12509000000E+03 0.  0.
<mgrwt>
<rscale>  2 0.45513030E+03</rscale>
<asrwt>0</asrwt>
<pdfrwt beam="1">  1       21 0.97816263E-01 0.45513030E+03</pdfrwt>
<pdfrwt beam="2">  1       21 0.11449397E-01 0.45513030E+03</pdfrwt>
<totfact> 0.50577571E+04</totfact>
</mgrwt>
</event>
<event>
 7    0  0.4831799E-002  0.4579219E+03  0.7546771E-02  0.1025386E+00
         21   -1    0    0  502  501  0.00000000000E+00  0.00000000000E+00  0.13295453360E+03  0.13295453360E+03  0.00000000000E+00 0.  1.
         21   -1    0    0  501  502 -0.00000000000E+00 -0.00000000000E+00 -0.39429357441E+03  0.39429357441E+03  0.00000000000E+00 0.  1.
      99926    2    1    2    0    0  0.00000000000E+00 -0.35527136788E-14 -0.26133904081E+03  0.52724810801E+03  0.45792190726E+03 0.  0.
      99925    2    3    3    0    0 -0.35310904606E+02  0.23492576030E+02 -0.28824743621E+03  0.39245073802E+03  0.26293009752E+03 0.  0.
         25    1    4    4    0    0 -0.95597220275E+01  0.50972682628E+02 -0.13774400504E+03  0.19315931684E+03  0.12509000000E+03 0.  0.
         25    1    4    4    0    0 -0.25751182579E+02 -0.27480106599E+02 -0.15050343117E+03  0.19929142118E+03  0.12509000000E+03 0.  0.
         25    1    3    3    0    0  0.35310904606E+02 -0.23492576030E+02  0.26908395396E+02  0.13479736999E+03  0.12509000000E+03 0.  0.
<mgrwt>
<rscale>  2 0.45792191E+03</rscale>
<asrwt>0</asrwt>
<pdfrwt beam="1">  1       21 0.19552137E-01 0.45792191E+03</pdfrwt>
<pdfrwt beam="2">  1       21 0.57984349E-01 0.45792191E+03</pdfrwt>
<totfact> 0.61945906E+04</totfact>
</mgrwt>
</event>
<event>
 7    0  0.4831799E-002  0.4536570E+03  0.7546771E-02  0.1026637E+00
         21   -1    0    0  502  501  0.00000000000E+00  0.00000000000E+00  0.20370235637E+03  0.20370235637E+03  0.00000000000E+00 0. -1.
         21   -1    0    0  501  502 -0.00000000000E+00 -0.00000000000E+00 -0.25258011625E+03  0.25258011625E+03  0.00000000000E+00 0. -1.
      99926    2    1    2    0    0  0.00000000000E+00  0.00000000000E+00 -0.48877759879E+02  0.45628247262E+03  0.45365698430E+03 0.  0.
      99925    2    3    3    0    0 -0.39790789729E+02 -0.79691470323E+02  0.37318283152E+02  0.28018220764E+03  0.26301212488E+03 0.  0.
         25    1    3    3    0    0  0.39790789729E+02  0.79691470323E+02 -0.86196043031E+02  0.17610026497E+03  0.12509000000E+03 0.  0.
         25    1    4    4    0    0  0.11023531308E+02 -0.17282271657E+02 -0.28808914916E+00  0.12675877189E+03  0.12509000000E+03 0.  0.
         25    1    4    4    0    0 -0.50814321037E+02 -0.62409198666E+02  0.37606372301E+02  0.15342343575E+03  0.12509000000E+03 0.  0.
<mgrwt>
<rscale>  2 0.45365698E+03</rscale>
<asrwt>0</asrwt>
<pdfrwt beam="1">  1       21 0.29956229E-01 0.45365698E+03</pdfrwt>
<pdfrwt beam="2">  1       21 0.37144135E-01 0.45365698E+03</pdfrwt>
<totfact> 0.69190324E+04</totfact>
</mgrwt>
</event>
<event>
 7    0  0.4831799E-002  0.4263466E+03  0.7546771E-02  0.1035020E+00
         21   -1    0    0  502  501  0.00000000000E+00  0.00000000000E+00  0.13609011473E+03  0.13609011473E+03  0.00000000000E+00 0.  1.
         21   -1    0    0  501  502 -0.00000000000E+00 -0.00000000000E+00 -0.33391746601E+03  0.33391746601E+03  0.00000000000E+00 0.  1.
      99926    2    1    2    0    0  0.00000000000E+00  0.00000000000E+00 -0.19782735128E+03  0.47000758074E+03  0.42634664892E+03 0.  0.
      99925    2    3    3    0    0  0.79325824163E+02  0.24048027821E+02 -0.14017362227E+03  0.30925200669E+03  0.26290162654E+03 0.  0.
         25    1    4    4    0    0  0.52284897960E+02 -0.22791826476E+02 -0.52275342112E+02  0.14708296095E+03  0.12509000000E+03 0.  0.
         25    1    3    3    0    0 -0.79325824163E+02 -0.24048027821E+02 -0.57653729005E+02  0.16075557405E+03  0.12509000000E+03 0.  0.
         25    1    4    4    0    0  0.27040926203E+02  0.46839854297E+02 -0.87898280163E+02  0.16216904574E+03  0.12509000000E+03 0.  0.
<mgrwt>
<rscale>  2 0.42634665E+03</rscale>
<asrwt>0</asrwt>
<pdfrwt beam="1">  1       21 0.20013252E-01 0.42634665E+03</pdfrwt>
<pdfrwt beam="2">  1       21 0.49105509E-01 0.42634665E+03</pdfrwt>
<totfact> 0.85233000E+04</totfact>
</mgrwt>
</event>
<event>
 7    0  0.4831799E-002  0.4547981E+03  0.7546771E-02  0.1026301E+00
         21   -1    0    0  502  501  0.00000000000E+00  0.00000000000E+00  0.10343658861E+03  0.10343658861E+03  0.00000000000E+00 0. -1.
         21   -1    0    0  501  502 -0.00000000000E+00 -0.00000000000E+00 -0.49992298054E+03  0.49992298054E+03  0.00000000000E+00 0. -1.
      99926    2    1    2    0    0  0.00000000000E+00  0.00000000000E+00 -0.39648639193E+03  0.60335956915E+03  0.45479809883E+03 0.  0.
      99925    2    3    3    0    0 -0.82896474236E+02  0.65812576623E+02 -0.19684388645E+03  0.34508111713E+03  0.26292649370E+03 0.  0.
         25    1    3    3    0    0  0.82896474236E+02 -0.65812576623E+02 -0.19964250548E+03  0.25827845202E+03  0.12509000000E+03 0.  0.
         25    1    4    4    0    0 -0.68075253862E+02  0.11480520594E+02 -0.73842357075E+02  0.16082986147E+03  0.12509000000E+03 0.  0.
         25    1    4    4    0    0 -0.14821220373E+02  0.54332056029E+02 -0.12300152938E+03  0.18425125567E+03  0.12509000000E+03 0.  0.
<mgrwt>
<rscale>  2 0.45479810E+03</rscale>
<asrwt>0</asrwt>
<pdfrwt beam="1">  1       21 0.15211263E-01 0.45479810E+03</pdfrwt>
<pdfrwt beam="2">  1       21 0.73518086E-01 0.45479810E+03</pdfrwt>
<totfact> 0.58565315E+04</totfact>
</mgrwt>
</event>
<event>
 7    0  0.4831799E-002  0.4508087E+03  0.7546771E-02  0.1027481E+00
         21   -1    0    0  502  501  0.00000000000E+00  0.00000000000E+00  0.26157518156E+03  0.26157518156E+03  0.00000000000E+00 0.  1.
         21   -1    0    0  501  502 -0.00000000000E+00 -0.00000000000E+00 -0.19423521377E+03  0.19423521377E+03  0.00000000000E+00 0.  1.
      99926    2    1    2    0    0  0.00000000000E+00  0.00000000000E+00  0.67339967795E+02  0.45581039533E+03  0.45080865700E+03 0.  0.
      99925    2    3    3    0    0  0.67620658705E+02  0.39036493666E+02 -0.34500941905E+02  0.27660247054E+03  0.26310114100E+03 0.  0.
         25    1    4    4    0    0  0.15313632777E+02 -0.67705602767E+01 -0.42752024105E+02  0.13325010882E+03  0.12509000000E+03 0.  0.
         25    1    4    4    0    0  0.52307025927E+02  0.45807053943E+02  0.82510822008E+01  0.14335236172E+03  0.12509000000E+03 0.  0.
         25    1    3    3    0    0 -0.67620658705E+02 -0.39036493666E+02  0.10184090970E+03  0.17920792480E+03  0.12509000000E+03 0.  0.
<mgrwt>
<rscale>  2 0.45080866E+03</rscale>
<asrwt>0</asrwt>
<pdfrwt beam="1">  1       21 0.38466939E-01 0.45080866E+03</pdfrwt>
<pdfrwt beam="2">  1       21 0.28564002E-01 0.45080866E+03</pdfrwt>
<totfact> 0.70824824E+04</totfact>
</mgrwt>
</event>
<event>
 7    0  0.4831799E-002  0.4540697E+03  0.7546771E-02  0.1026515E+00
         21   -1    0    0  502  501  0.00000000000E+00  0.00000000000E+00  0.11833172282E+04  0.11833172282E+04  0.00000000000E+00 0.  1.
         21   -1    0    0  501  502 -0.00000000000E+00 -0.00000000000E+00 -0.43559600797E+02  0.43559600797E+02  0.00000000000E+00 0.  1.
      99926    2    1    2    0    0  0.00000000000E+00  0.00000000000E+00  0.11397576274E+04  0.12268768290E+04  0.45406971304E+03 0.  0.
      99925    2    3    3    0    0  0.85552835126E+02 -0.42767821375E+02  0.55877365767E+03  0.62493143668E+03  0.26298845203E+03 0.  0.
         25    1    4    4    0    0  0.37485496364E+02 -0.61308064558E+02  0.30270873382E+03  0.33532659729E+03  0.12509000000E+03 0.  0.
         25    1    4    4    0    0  0.48067338763E+02  0.18540243183E+02  0.25606492385E+03  0.28960483939E+03  0.12509000000E+03 0.  0.
         25    1    3    3    0    0 -0.85552835126E+02  0.42767821375E+02  0.58098396971E+03  0.60194539230E+03  0.12509000000E+03 0.  0.
<mgrwt>
<rscale>  2 0.45406971E+03</rscale>
<asrwt>0</asrwt>
<pdfrwt beam="1">  1       21 0.17401722E+00 0.45406971E+03</pdfrwt>
<pdfrwt beam="2">  1       21 0.64058244E-02 0.45406971E+03</pdfrwt>
<totfact> 0.31542322E+04</totfact>
</mgrwt>
</event>
<event>
 7    0  0.4831799E-002  0.4577900E+03  0.7546771E-02  0.1025424E+00
         21   -1    0    0  502  501  0.00000000000E+00  0.00000000000E+00  0.27335028244E+04  0.27335028244E+04  0.00000000000E+00 0.  1.
         21   -1    0    0  501  502 -0.00000000000E+00 -0.00000000000E+00 -0.19166951320E+02  0.19166951320E+02  0.00000000000E+00 0.  1.
      99926    2    1    2    0    0 -0.14210854715E-13  0.00000000000E+00  0.27143358731E+04  0.27526697757E+04  0.45778997616E+03 0.  0.
      99925    2    3    3    0    0 -0.72633906455E+02  0.83674431232E+02  0.19049552062E+04  0.19262185268E+04  0.26303304085E+03 0.  0.
         25    1    3    3    0    0  0.72633906455E+02 -0.83674431232E+02  0.80938066691E+03  0.82645124894E+03  0.12509000000E+03 0.  0.
         25    1    4    4    0    0 -0.43762445884E+02  0.25924215334E+02  0.11817784356E+04  0.11894683668E+04  0.12509000000E+03 0.  0.
         25    1    4    4    0    0 -0.28871460571E+02  0.57750215898E+02  0.72317677058E+03  0.73675016001E+03  0.12509000000E+03 0.  0.
<mgrwt>
<rscale>  2 0.45778998E+03</rscale>
<asrwt>0</asrwt>
<pdfrwt beam="1">  1       21 0.40198544E+00 0.45778998E+03</pdfrwt>
<pdfrwt beam="2">  1       21 0.28186712E-02 0.45778998E+03</pdfrwt>
<totfact> 0.47724554E+03</totfact>
</mgrwt>
</event>
<event>
 7    0  0.4831799E-002  0.4551586E+03  0.7546771E-02  0.1026195E+00
         21   -1    0    0  502  501  0.00000000000E+00  0.00000000000E+00  0.23787070243E+03  0.23787070243E+03  0.00000000000E+00 0.  1.
         21   -1    0    0  501  502 -0.00000000000E+00 -0.00000000000E+00 -0.21773315579E+03  0.21773315579E+03  0.00000000000E+00 0.  1.
      99926    2    1    2    0    0 -0.88817841970E-15  0.00000000000E+00  0.20137546641E+02  0.45560385822E+03  0.45515860405E+03 0.  0.
      99925    2    3    3    0    0  0.10567090396E+01 -0.11327460654E+03  0.10600152404E+02  0.28657509407E+03  0.26302218194E+03 0.  0.
         25    1    4    4    0    0 -0.14307271311E+02 -0.16804012770E+02  0.14252500210E+02  0.12781907025E+03  0.12509000000E+03 0.  0.
         25    1    3    3    0    0 -0.10567090396E+01  0.11327460654E+03  0.95373942374E+01  0.16902876415E+03  0.12509000000E+03 0.  0.
         25    1    4    4    0    0  0.15363980351E+02 -0.96470593772E+02 -0.36523478067E+01  0.15875602382E+03  0.12509000000E+03 0.  0.
<mgrwt>
<rscale>  2 0.45515860E+03</rscale>
<asrwt>0</asrwt>
<pdfrwt beam="1">  1       21 0.34980986E-01 0.45515860E+03</pdfrwt>
<pdfrwt beam="2">  1       21 0.32019582E-01 0.45515860E+03</pdfrwt>
<totfact> 0.68414980E+04</totfact>
</mgrwt>
</event>
<event>
 7    0  0.4831799E-002  0.4517919E+03  0.7546771E-02  0.1027189E+00
         21   -1    0    0  502  501  0.00000000000E+00  0.00000000000E+00  0.11958111955E+03  0.11958111955E+03  0.00000000000E+00 0. -1.
         21   -1    0    0  501  502 -0.00000000000E+00 -0.00000000000E+00 -0.42673109683E+03  0.42673109683E+03  0.00000000000E+00 0. -1.
      99926    2    1    2    0    0  0.00000000000E+00  0.14210854715E-13 -0.30714997728E+03  0.54631221638E+03  0.45179190921E+03 0.  0.
      99925    2    3    3    0    0 -0.42640210930E+02 -0.96609100674E+02 -0.15493011959E+03  0.32277273643E+03  0.26273064440E+03 0.  0.
         25    1    4    4    0    0 -0.31100306728E+02 -0.52602255464E+02 -0.12327801895E+03  0.18595484510E+03  0.12509000000E+03 0.  0.
         25    1    3    3    0    0  0.42640210930E+02  0.96609100674E+02 -0.15221985769E+03  0.22353947995E+03  0.12509000000E+03 0.  0.
         25    1    4    4    0    0 -0.11539904202E+02 -0.44006845211E+02 -0.31652100634E+02  0.13681789133E+03  0.12509000000E+03 0.  0.
<mgrwt>
<rscale>  2 0.45179191E+03</rscale>
<asrwt>0</asrwt>
<pdfrwt beam="1">  1       21 0.17585458E-01 0.45179191E+03</pdfrwt>
<pdfrwt beam="2">  1       21 0.62754574E-01 0.45179191E+03</pdfrwt>
<totfact> 0.63712833E+04</totfact>
</mgrwt>
</event>
<event>
 7    0  0.4831799E-002  0.4541733E+03  0.7546771E-02  0.1026485E+00
         21   -1    0    0  502  501  0.00000000000E+00  0.00000000000E+00  0.12509735813E+04  0.12509735813E+04  0.00000000000E+00 0. -1.
         21   -1    0    0  501  502 -0.00000000000E+00 -0.00000000000E+00 -0.41222578219E+02  0.41222578219E+02  0.00000000000E+00 0. -1.
      99926    2    1    2    0    0  0.00000000000E+00  0.00000000000E+00  0.12097510030E+04  0.12921961595E+04  0.45417334269E+03 0.  0.
      99925    2    3    3    0    0  0.75867535937E+02  0.55556974493E+02  0.58608354704E+03  0.64919455435E+03  0.26290147368E+03 0.  0.
         25    1    4    4    0    0  0.57211958143E+02  0.57024278764E+02  0.26287159202E+03  0.30211580315E+03  0.12509000000E+03 0.  0.
         25    1    4    4    0    0  0.18655577795E+02 -0.14673042704E+01  0.32321195502E+03  0.34707875120E+03  0.12509000000E+03 0.  0.
         25    1    3    3    0    0 -0.75867535937E+02 -0.55556974493E+02  0.62366745600E+03  0.64300160513E+03  0.12509000000E+03 0.  0.
<mgrwt>
<rscale>  2 0.45417334E+03</rscale>
<asrwt>0</asrwt>
<pdfrwt beam="1">  1       21 0.18396668E+00 0.45417334E+03</pdfrwt>
<pdfrwt beam="2">  1       21 0.60621446E-02 0.45417334E+03</pdfrwt>
<totfact> 0.29531621E+04</totfact>
</mgrwt>
</event>
<event>
 7    0  0.4831799E-002  0.4504386E+03  0.7546771E-02  0.1027591E+00
         21   -1    0    0  502  501  0.00000000000E+00  0.00000000000E+00  0.21408554853E+03  0.21408554853E+03  0.00000000000E+00 0.  1.
         21   -1    0    0  501  502 -0.00000000000E+00 -0.00000000000E+00 -0.23693211906E+03  0.23693211906E+03  0.00000000000E+00 0.  1.
      99926    2    1    2    0    0  0.00000000000E+00  0.00000000000E+00 -0.22846570524E+02  0.45101766759E+03  0.45043864254E+03 0.  0.
      99925    2    3    3    0    0 -0.53494137202E+02 -0.72570151020E+02  0.46530822389E+02  0.28193549738E+03  0.26304839425E+03 0.  0.
         25    1    3    3    0    0  0.53494137202E+02  0.72570151020E+02 -0.69377392913E+02  0.16908217021E+03  0.12509000000E+03 0.  0.
         25    1    4    4    0    0 -0.83458126948E+01 -0.14070021339E+02 -0.88185249787E+01  0.12646300871E+03  0.12509000000E+03 0.  0.
         25    1    4    4    0    0 -0.45148324508E+02 -0.58500129681E+02  0.55349347367E+02  0.15547248867E+03  0.12509000000E+03 0.  0.
<mgrwt>
<rscale>  2 0.45043864E+03</rscale>
<asrwt>0</asrwt>
<pdfrwt beam="1">  1       21 0.31483169E-01 0.45043864E+03</pdfrwt>
<pdfrwt beam="2">  1       21 0.34842958E-01 0.45043864E+03</pdfrwt>
<totfact> 0.71402017E+04</totfact>
</mgrwt>
</event>
<event>
 7    0  0.4831799E-002  0.4554568E+03  0.7546771E-02  0.1026107E+00
         21   -1    0    0  502  501  0.00000000000E+00  0.00000000000E+00  0.14112370535E+03  0.14112370535E+03  0.00000000000E+00 0. -1.
         21   -1    0    0  501  502 -0.00000000000E+00 -0.00000000000E+00 -0.36748066905E+03  0.36748066905E+03  0.00000000000E+00 0. -1.
      99926    2    1    2    0    0  0.00000000000E+00  0.00000000000E+00 -0.22635696370E+03  0.50860437440E+03  0.45545684169E+03 0.  0.
      99925    2    3    3    0    0  0.68240602440E+02 -0.75649108365E+02 -0.86336519084E+02  0.29498602212E+03  0.26302697828E+03 0.  0.
         25    1    4    4    0    0  0.65871639611E+02 -0.57987476724E+02 -0.26130374185E+02  0.15502233683E+03  0.12509000000E+03 0.  0.
         25    1    3    3    0    0 -0.68240602440E+02  0.75649108365E+02 -0.14002044462E+03  0.21361835227E+03  0.12509000000E+03 0.  0.
         25    1    4    4    0    0  0.23689628295E+01 -0.17661631641E+02 -0.60206144899E+02  0.13996368529E+03  0.12509000000E+03 0.  0.
<mgrwt>
<rscale>  2 0.45545684E+03</rscale>
<asrwt>0</asrwt>
<pdfrwt beam="1">  1       21 0.20753486E-01 0.45545684E+03</pdfrwt>
<pdfrwt beam="2">  1       21 0.54041274E-01 0.45545684E+03</pdfrwt>
<totfact> 0.64436357E+04</totfact>
</mgrwt>
</event>
<event>
 7    0  0.4831799E-002  0.4443988E+03  0.7546771E-02  0.1029406E+00
         21   -1    0    0  502  501  0.00000000000E+00  0.00000000000E+00  0.78054441308E+03  0.78054441308E+03  0.00000000000E+00 0. -1.
         21   -1    0    0  501  502 -0.00000000000E+00 -0.00000000000E+00 -0.63254023388E+02  0.63254023388E+02  0.00000000000E+00 0. -1.
      99926    2    1    2    0    0  0.00000000000E+00 -0.71054273576E-14  0.71729038969E+03  0.84379843647E+03  0.44439880540E+03 0.  0.
      99925    2    3    3    0    0  0.83334433179E+02 -0.49647391067E+02  0.52282201295E+03  0.59304966011E+03  0.26259388976E+03 0.  0.
         25    1    4    4    0    0  0.32282807033E+02 -0.63232499683E+02  0.28300365228E+03  0.31745724744E+03  0.12509000000E+03 0.  0.
         25    1    3    3    0    0 -0.83334433179E+02  0.49647391067E+02  0.19446837675E+03  0.25074877636E+03  0.12509000000E+03 0.  0.
         25    1    4    4    0    0  0.51051626147E+02  0.13585108615E+02  0.23981836067E+03  0.27559241267E+03  0.12509000000E+03 0.  0.
<mgrwt>
<rscale>  2 0.44439881E+03</rscale>
<asrwt>0</asrwt>
<pdfrwt beam="1">  1       21 0.11478594E+00 0.44439881E+03</pdfrwt>
<pdfrwt beam="2">  1       21 0.93020628E-02 0.44439881E+03</pdfrwt>
<totfact> 0.49726393E+04</totfact>
</mgrwt>
</event>
<event>
 7    0  0.4831799E-002  0.4529811E+03  0.7546771E-02  0.1026837E+00
         21   -1    0    0  502  501  0.00000000000E+00  0.00000000000E+00  0.31806950659E+03  0.31806950659E+03  0.00000000000E+00 0. -1.
         21   -1    0    0  501  502 -0.00000000000E+00 -0.00000000000E+00 -0.16127914302E+03  0.16127914302E+03  0.00000000000E+00 0. -1.
      99926    2    1    2    0    0  0.00000000000E+00  0.00000000000E+00  0.15679036357E+03  0.47934864960E+03  0.45298113622E+03 0.  0.
      99925    2    3    3    0    0 -0.80291222411E+02  0.76134278272E+02  0.11093595633E+03  0.30616307432E+03  0.26303218994E+03 0.  0.
         25    1    4    4    0    0 -0.65195457467E+02  0.61356172287E+02  0.33165185616E+02  0.15736093921E+03  0.12509000000E+03 0.  0.
         25    1    3    3    0    0  0.80291222411E+02 -0.76134278272E+02  0.45854407243E+02  0.17318557529E+03  0.12509000000E+03 0.  0.
         25    1    4    4    0    0 -0.15095764943E+02  0.14778105985E+02  0.77770770709E+02  0.14880213511E+03  0.12509000000E+03 0.  0.
<mgrwt>
<rscale>  2 0.45298114E+03</rscale>
<asrwt>0</asrwt>
<pdfrwt beam="1">  1       21 0.46774927E-01 0.45298114E+03</pdfrwt>
<pdfrwt beam="2">  1       21 0.23717521E-01 0.45298114E+03</pdfrwt>
<totfact> 0.67827976E+04</totfact>
</mgrwt>
</event>
<event>
 7    0  0.4831799E-002  0.4570371E+03  0.7546771E-02  0.1025644E+00
         21   -1    0    0  502  501  0.00000000000E+00  0.00000000000E+00  0.53505088409E+03  0.53505088409E+03  0.00000000000E+00 0.  1.
         21   -1    0    0  501  502 -0.00000000000E+00 -0.00000000000E+00 -0.97599542243E+02  0.97599542243E+02  0.00000000000E+00 0.  1.
      99926    2    1    2    0    0  0.00000000000E+00  0.35527136788E-14  0.43745134185E+03  0.63265042634E+03  0.45703707230E+03 0.  0.
      99925    2    3    3    0    0 -0.10715187674E+03 -0.29927634687E+02  0.23370636933E+03  0.36895228464E+03  0.26292571816E+03 0.  0.
         25    1    3    3    0    0  0.10715187674E+03  0.29927634687E+02  0.20374497252E+03  0.26369814169E+03  0.12509000000E+03 0.  0.
         25    1    4    4    0    0 -0.56491548728E+02  0.25471642756E+02  0.11278561240E+03  0.17946643733E+03  0.12509000000E+03 0.  0.
         25    1    4    4    0    0 -0.50660328013E+02 -0.55399277443E+02  0.12092075693E+03  0.18948584732E+03  0.12509000000E+03 0.  0.
<mgrwt>
<rscale>  2 0.45703707E+03</rscale>
<asrwt>0</asrwt>
<pdfrwt beam="1">  1       21 0.78683953E-01 0.45703707E+03</pdfrwt>
<pdfrwt beam="2">  1       21 0.14352874E-01 0.45703707E+03</pdfrwt>
<totfact> 0.55809412E+04</totfact>
</mgrwt>
</event>
<event>
 7    0  0.4831799E-002  0.4550321E+03  0.7546771E-02  0.1026232E+00
         21   -1    0    0  502  501  0.00000000000E+00  0.00000000000E+00  0.10384630621E+03  0.10384630621E+03  0.00000000000E+00 0.  1.
         21   -1    0    0  501  502 -0.00000000000E+00 -0.00000000000E+00 -0.49846305739E+03  0.49846305739E+03  0.00000000000E+00 0.  1.
      99926    2    1    2    0    0  0.00000000000E+00  0.00000000000E+00 -0.39461675119E+03  0.60230936360E+03  0.45503207487E+03 0.  0.
      99925    2    3    3    0    0  0.70548054511E+02 -0.35912002421E+02 -0.35530667507E+03  0.44914445216E+03  0.26309923154E+03 0.  0.
         25    1    3    3    0    0 -0.70548054511E+02  0.35912002421E+02 -0.39310076113E+02  0.15316491144E+03  0.12509000000E+03 0.  0.
         25    1    4    4    0    0  0.41352809536E+02  0.18404534957E+02 -0.14479254060E+03  0.19662443815E+03  0.12509000000E+03 0.  0.
         25    1    4    4    0    0  0.29195244975E+02 -0.54316537378E+02 -0.21051413447E+03  0.25252001401E+03  0.12509000000E+03 0.  0.
<mgrwt>
<rscale>  2 0.45503207E+03</rscale>
<asrwt>0</asrwt>
<pdfrwt beam="1">  1       21 0.15271516E-01 0.45503207E+03</pdfrwt>
<pdfrwt beam="2">  1       21 0.73303390E-01 0.45503207E+03</pdfrwt>
<totfact> 0.58521514E+04</totfact>
</mgrwt>
</event>
<event>
 7    0  0.4831799E-002  0.4408627E+03  0.7546771E-02  0.1030482E+00
         21   -1    0    0  502  501  0.00000000000E+00  0.00000000000E+00  0.67706874722E+02  0.67706874722E+02  0.00000000000E+00 0. -1.
         21   -1    0    0  501  502 -0.00000000000E+00 -0.00000000000E+00 -0.71765212580E+03  0.71765212580E+03  0.00000000000E+00 0. -1.
      99926    2    1    2    0    0  0.00000000000E+00  0.00000000000E+00 -0.64994525108E+03  0.78535900052E+03  0.44086271140E+03 0.  0.
      99925    2    3    3    0    0 -0.61752104730E+02 -0.36406843319E+02 -0.29215333676E+03  0.39961122965E+03  0.26305281220E+03 0.  0.
         25    1    4    4    0    0 -0.17145205823E+02 -0.15260989927E+02 -0.86190055200E+02  0.15363297046E+03  0.12509000000E+03 0.  0.
         25    1    3    3    0    0  0.61752104730E+02  0.36406843319E+02 -0.35779191432E+03  0.38574777087E+03  0.12509000000E+03 0.  0.
         25    1    4    4    0    0 -0.44606898907E+02 -0.21145853392E+02 -0.20596328156E+03  0.24597825919E+03  0.12509000000E+03 0.  0.
<mgrwt>
<rscale>  2 0.44086271E+03</rscale>
<asrwt>0</asrwt>
<pdfrwt beam="1">  1       21 0.99568936E-02 0.44086271E+03</pdfrwt>
<pdfrwt beam="2">  1       21 0.10553707E+00 0.44086271E+03</pdfrwt>
<totfact> 0.54255652E+04</totfact>
</mgrwt>
</event>
<event>
 7    0  0.4831799E-002  0.4541288E+03  0.7546771E-02  0.1026498E+00
         21   -1    0    0  502  501  0.00000000000E+00  0.00000000000E+00  0.19820254169E+03  0.19820254169E+03  0.00000000000E+00 0. -1.
         21   -1    0    0  501  502 -0.00000000000E+00 -0.00000000000E+00 -0.26012906052E+03  0.26012906052E+03  0.00000000000E+00 0. -1.
      99926    2    1    2    0    0  0.00000000000E+00  0.00000000000E+00 -0.61926518829E+02  0.45833160222E+03  0.45412879655E+03 0.  0.
      99925    2    3    3    0    0 -0.48961902300E+02 -0.97022296507E+02 -0.67784845801E+02  0.29252321283E+03  0.26299135124E+03 0.  0.
         25    1    4    4    0    0 -0.52284114467E+02 -0.61673151400E+02 -0.73301776388E+01  0.14912560422E+03  0.12509000000E+03 0.  0.
         25    1    4    4    0    0  0.33222121667E+01 -0.35349145107E+02 -0.60454668162E+02  0.14339760861E+03  0.12509000000E+03 0.  0.
         25    1    3    3    0    0  0.48961902300E+02  0.97022296507E+02  0.58583269715E+01  0.16580838939E+03  0.12509000000E+03 0.  0.
<mgrwt>
<rscale>  2 0.45412880E+03</rscale>
<asrwt>0</asrwt>
<pdfrwt beam="1">  1       21 0.29147433E-01 0.45412880E+03</pdfrwt>
<pdfrwt beam="2">  1       21 0.38254273E-01 0.45412880E+03</pdfrwt>
<totfact> 0.68778941E+04</totfact>
</mgrwt>
</event>
<event>
 7    0  0.4831799E-002  0.4468133E+03  0.7546771E-02  0.1028677E+00
         21   -1    0    0  502  501  0.00000000000E+00  0.00000000000E+00  0.39047816153E+03  0.39047816153E+03  0.00000000000E+00 0.  1.
         21   -1    0    0  501  502 -0.00000000000E+00 -0.00000000000E+00 -0.12781900646E+03  0.12781900646E+03  0.00000000000E+00 0.  1.
      99926    2    1    2    0    0  0.00000000000E+00  0.00000000000E+00  0.26265915507E+03  0.51829716799E+03  0.44681329726E+03 0.  0.
      99925    2    3    3    0    0  0.69344036595E+02  0.75622919505E+02  0.19404505006E+03  0.34256206941E+03  0.26299784901E+03 0.  0.
         25    1    3    3    0    0 -0.69344036595E+02 -0.75622919505E+02  0.68614105009E+02  0.17573509858E+03  0.12509000000E+03 0.  0.
         25    1    4    4    0    0  0.66880424558E+02  0.13138536602E+02  0.98090353714E+02  0.17295906430E+03  0.12509000000E+03 0.  0.
         25    1    4    4    0    0  0.24636120370E+01  0.62484382903E+02  0.95954696349E+02  0.16960300511E+03  0.12509000000E+03 0.  0.
<mgrwt>
<rscale>  2 0.44681330E+03</rscale>
<asrwt>0</asrwt>
<pdfrwt beam="1">  1       21 0.57423259E-01 0.44681330E+03</pdfrwt>
<pdfrwt beam="2">  1       21 0.18796913E-01 0.44681330E+03</pdfrwt>
<totfact> 0.68334135E+04</totfact>
</mgrwt>
</event>
<event>
 7    0  0.4831799E-002  0.4580387E+03  0.7546771E-02  0.1025352E+00
         21   -1    0    0  502  501  0.00000000000E+00  0.00000000000E+00  0.22989310670E+04  0.22989310670E+04  0.00000000000E+00 0. -1.
         21   -1    0    0  501  502 -0.00000000000E+00 -0.00000000000E+00 -0.22814891543E+02  0.22814891543E+02  0.00000000000E+00 0. -1.
      99926    2    1    2    0    0  0.71054273576E-14  0.00000000000E+00  0.22761161755E+04  0.23217459586E+04  0.45803870124E+03 0.  0.
      99925    2    3    3    0    0  0.42637005050E+02  0.10004396495E+03  0.12226182574E+04  0.12552882329E+04  0.26291906591E+03 0.  0.
         25    1    3    3    0    0 -0.42637005050E+02 -0.10004396495E+03  0.10534979181E+04  0.10664577257E+04  0.12509000000E+03 0.  0.
         25    1    4    4    0    0  0.27993623131E+02  0.78322944029E+02  0.52538528596E+03  0.54643877361E+03  0.12509000000E+03 0.  0.
         25    1    4    4    0    0  0.14643381920E+02  0.21721020919E+02  0.69723297140E+03  0.70884945926E+03  0.12509000000E+03 0.  0.
<mgrwt>
<rscale>  2 0.45803870E+03</rscale>
<asrwt>0</asrwt>
<pdfrwt beam="1">  1       21 0.33807794E+00 0.45803870E+03</pdfrwt>
<pdfrwt beam="2">  1       21 0.33551327E-02 0.45803870E+03</pdfrwt>
<totfact> 0.89197387E+03</totfact>
</mgrwt>
</event>
<event>
 7    0  0.4831799E-002  0.4268131E+03  0.7546771E-02  0.1034871E+00
         21   -1    0    0  502  501  0.00000000000E+00  0.00000000000E+00  0.33669565924E+03  0.33669565924E+03  0.00000000000E+00 0.  1.
         21   -1    0    0  501  502 -0.00000000000E+00 -0.00000000000E+00 -0.13526268137E+03  0.13526268137E+03  0.00000000000E+00 0.  1.
      99926    2    1    2    0    0  0.00000000000E+00 -0.71054273576E-14  0.20143297786E+03  0.47195834061E+03  0.42681310980E+03 0.  0.
      99925    2    3    3    0    0 -0.16325149296E+02  0.55578495836E+02  0.62687015110E+02  0.27637349974E+03  0.26286340520E+03 0.  0.
         25    1    3    3    0    0  0.16325149296E+02 -0.55578495836E+02  0.13874596275E+03  0.19558484087E+03  0.12509000000E+03 0.  0.
         25    1    4    4    0    0  0.12825038999E+02  0.88485141993E+01  0.12347843916E+00  0.12605673792E+03  0.12509000000E+03 0.  0.
         25    1    4    4    0    0 -0.29150188295E+02  0.46729981637E+02  0.62563536671E+02  0.15031676181E+03  0.12509000000E+03 0.  0.
<mgrwt>
<rscale>  2 0.42681311E+03</rscale>
<asrwt>0</asrwt>
<pdfrwt beam="1">  1       21 0.49514067E-01 0.42681311E+03</pdfrwt>
<pdfrwt beam="2">  1       21 0.19891571E-01 0.42681311E+03</pdfrwt>
<totfact> 0.84717288E+04</totfact>
</mgrwt>
</event>
<event>
 7    0  0.4831799E-002  0.4535012E+03  0.7546771E-02  0.1026683E+00
         21   -1    0    0  502  501  0.00000000000E+00  0.00000000000E+00  0.65325697273E+03  0.65325697273E+03  0.00000000000E+00 0. -1.
         21   -1    0    0  501  502 -0.00000000000E+00 -0.00000000000E+00 -0.78706895623E+02  0.78706895623E+02  0.00000000000E+00 0. -1.
      99926    2    1    2    0    0  0.00000000000E+00  0.88817841970E-15  0.57455007711E+03  0.73196386835E+03  0.45350117251E+03 0.  0.
      99925    2    3    3    0    0 -0.96382302314E+02  0.63699771839E+01  0.45335831285E+03  0.53280293686E+03  0.26270722276E+03 0.  0.
         25    1    4    4    0    0 -0.48508623789E+02 -0.36108587633E+02  0.21032380349E+03  0.25207246398E+03  0.12509000000E+03 0.  0.
         25    1    3    3    0    0  0.96382302314E+02 -0.63699771839E+01  0.12119176426E+03  0.19916093149E+03  0.12509000000E+03 0.  0.
         25    1    4    4    0    0 -0.47873678525E+02  0.42478564817E+02  0.24303450936E+03  0.28073047288E+03  0.12509000000E+03 0.  0.
<mgrwt>
<rscale>  2 0.45350117E+03</rscale>
<asrwt>0</asrwt>
<pdfrwt beam="1">  1       21 0.96067199E-01 0.45350117E+03</pdfrwt>
<pdfrwt beam="2">  1       21 0.11574544E-01 0.45350117E+03</pdfrwt>
<totfact> 0.51809583E+04</totfact>
</mgrwt>
</event>
<event>
 7    0  0.4831799E-002  0.4524294E+03  0.7546771E-02  0.1027000E+00
         21   -1    0    0  502  501  0.00000000000E+00  0.00000000000E+00  0.11347835735E+03  0.11347835735E+03  0.00000000000E+00 0.  1.
         21   -1    0    0  501  502 -0.00000000000E+00 -0.00000000000E+00 -0.45095021172E+03  0.45095021172E+03  0.00000000000E+00 0.  1.
      99926    2    1    2    0    0  0.14210854715E-13  0.00000000000E+00 -0.33747185437E+03  0.56442856907E+03  0.45242939459E+03 0.  0.
      99925    2    3    3    0    0 -0.10544412695E+03  0.32798908894E+02 -0.22556400855E+03  0.36351787650E+03  0.26281531966E+03 0.  0.
         25    1    4    4    0    0 -0.31778617432E+02  0.44523858045E+02 -0.83354557152E+02  0.15996169779E+03  0.12509000000E+03 0.  0.
         25    1    3    3    0    0  0.10544412695E+03 -0.32798908894E+02 -0.11190784582E+03  0.20091069257E+03  0.12509000000E+03 0.  0.
         25    1    4    4    0    0 -0.73665509521E+02 -0.11724949151E+02 -0.14220945140E+03  0.20355617871E+03  0.12509000000E+03 0.  0.
<mgrwt>
<rscale>  2 0.45242939E+03</rscale>
<asrwt>0</asrwt>
<pdfrwt beam="1">  1       21 0.16687994E-01 0.45242939E+03</pdfrwt>
<pdfrwt beam="2">  1       21 0.66316208E-01 0.45242939E+03</pdfrwt>
<totfact> 0.62177515E+04</totfact>
</mgrwt>
</event>
<event>
 7    0  0.4831799E-002  0.4464620E+03  0.7546771E-02  0.1028782E+00
         21   -1    0    0  502  501  0.00000000000E+00  0.00000000000E+00  0.20779048615E+03  0.20779048615E+03  0.00000000000E+00 0.  1.
         21   -1    0    0  501  502 -0.00000000000E+00 -0.00000000000E+00 -0.23981890831E+03  0.23981890831E+03  0.00000000000E+00 0.  1.
      99926    2    1    2    0    0 -0.35527136788E-14  0.44408920985E-15 -0.32028422162E+02  0.44760939446E+03  0.44646203667E+03 0.  0.
      99925    2    3    3    0    0  0.28100539145E+02  0.35372764593E+01 -0.12112869753E+03  0.29144115250E+03  0.26355954049E+03 0.  0.
         25    1    4    4    0    0 -0.32086575221E+01  0.92363961544E+01 -0.10043530006E+03  0.16071827555E+03  0.12509000000E+03 0.  0.
         25    1    4    4    0    0  0.31309196667E+02 -0.56991196951E+01 -0.20693397473E+02  0.13072287696E+03  0.12509000000E+03 0.  0.
         25    1    3    3    0    0 -0.28100539145E+02 -0.35372764593E+01  0.89100275369E+02  0.15616824196E+03  0.12509000000E+03 0.  0.
<mgrwt>
<rscale>  2 0.44646204E+03</rscale>
<asrwt>0</asrwt>
<pdfrwt beam="1">  1       21 0.30557425E-01 0.44646204E+03</pdfrwt>
<pdfrwt beam="2">  1       21 0.35267486E-01 0.44646204E+03</pdfrwt>
<totfact> 0.74005039E+04</totfact>
</mgrwt>
</event>
<event>
 7    0  0.4831799E-002  0.4411933E+03  0.7546771E-02  0.1030381E+00
         21   -1    0    0  502  501  0.00000000000E+00  0.00000000000E+00  0.13108497745E+03  0.13108497745E+03  0.00000000000E+00 0.  1.
         21   -1    0    0  501  502 -0.00000000000E+00 -0.00000000000E+00 -0.37123149157E+03  0.37123149157E+03  0.00000000000E+00 0.  1.
      99926    2    1    2    0    0  0.00000000000E+00  0.00000000000E+00 -0.24014651412E+03  0.50231646903E+03  0.44119325336E+03 0.  0.
      99925    2    3    3    0    0 -0.57196550308E+02  0.46385706774E+02 -0.76991481529E+02  0.28393571914E+03  0.26318952338E+03 0.  0.
         25    1    4    4    0    0 -0.19270061563E+02  0.49100825315E+02 -0.70652300088E+02  0.15304078517E+03  0.12509000000E+03 0.  0.
         25    1    4    4    0    0 -0.37926488744E+02 -0.27151185409E+01 -0.63391814418E+01  0.13089493397E+03  0.12509000000E+03 0.  0.
         25    1    3    3    0    0  0.57196550308E+02 -0.46385706774E+02 -0.16315503259E+03  0.21838074988E+03  0.12509000000E+03 0.  0.
<mgrwt>
<rscale>  2 0.44119325E+03</rscale>
<asrwt>0</asrwt>
<pdfrwt beam="1">  1       21 0.19277203E-01 0.44119325E+03</pdfrwt>
<pdfrwt beam="2">  1       21 0.54592866E-01 0.44119325E+03</pdfrwt>
<totfact> 0.72759778E+04</totfact>
</mgrwt>
</event>
<event>
 7    0  0.4831799E-002  0.4850595E+03  0.7546771E-02  0.1017754E+00
         21   -1    0    0  502  501  0.00000000000E+00  0.00000000000E+00  0.28628937784E+03  0.28628937784E+03  0.00000000000E+00 0.  1.
         21   -1    0    0  501  502 -0.00000000000E+00 -0.00000000000E+00 -0.20545879072E+03  0.20545879072E+03  0.00000000000E+00 0.  1.
      99926    2    1    2    0    0  0.00000000000E+00  0.00000000000E+00  0.80830587122E+02  0.49174816857E+03  0.48505945767E+03 0.  0.
      99925    2    3    3    0    0 -0.11226504537E+03 -0.56188611863E+02 -0.12848434060E+02  0.29128902654E+03  0.26253307260E+03 0.  0.
         25    1    4    4    0    0 -0.90645779070E+02 -0.48252056740E+02  0.96243627240E+01  0.16212666252E+03  0.12509000000E+03 0.  0.
         25    1    4    4    0    0 -0.21619266296E+02 -0.79365551232E+01 -0.22472796784E+02  0.12916236401E+03  0.12509000000E+03 0.  0.
         25    1    3    3    0    0  0.11226504537E+03  0.56188611863E+02  0.93679021182E+02  0.20045914203E+03  0.12509000000E+03 0.  0.
<mgrwt>
<rscale>  2 0.48505946E+03</rscale>
<asrwt>0</asrwt>
<pdfrwt beam="1">  1       21 0.42101379E-01 0.48505946E+03</pdfrwt>
<pdfrwt beam="2">  1       21 0.30214528E-01 0.48505946E+03</pdfrwt>
<totfact> 0.52228369E+04</totfact>
</mgrwt>
</event>
<event>
 7    0  0.4831799E-002  0.4500875E+03  0.7546771E-02  0.1027696E+00
         21   -1    0    0  502  501  0.00000000000E+00  0.00000000000E+00  0.14157546558E+03  0.14157546558E+03  0.00000000000E+00 0. -1.
         21   -1    0    0  501  502 -0.00000000000E+00 -0.00000000000E+00 -0.35772224408E+03  0.35772224408E+03  0.00000000000E+00 0. -1.
      99926    2    1    2    0    0  0.00000000000E+00  0.00000000000E+00 -0.21614677851E+03  0.49929770966E+03  0.45008751706E+03 0.  0.
      99925    2    3    3    0    0  0.90695778792E+02  0.59465116446E+02 -0.13463567099E+03  0.31476209490E+03  0.26303343536E+03 0.  0.
         25    1    3    3    0    0 -0.90695778792E+02 -0.59465116446E+02 -0.81511107515E+02  0.18453561475E+03  0.12509000000E+03 0.  0.
         25    1    4    4    0    0  0.22452667922E+02 -0.60913641195E+01 -0.68905775972E+02  0.14469533882E+03  0.12509000000E+03 0.  0.
         25    1    4    4    0    0  0.68243110870E+02  0.65556480565E+02 -0.65729895018E+02  0.17006675608E+03  0.12509000000E+03 0.  0.
<mgrwt>
<rscale>  2 0.45008752E+03</rscale>
<asrwt>0</asrwt>
<pdfrwt beam="1">  1       21 0.20819922E-01 0.45008752E+03</pdfrwt>
<pdfrwt beam="2">  1       21 0.52606211E-01 0.45008752E+03</pdfrwt>
<totfact> 0.67930521E+04</totfact>
</mgrwt>
</event>
<event>
 7    0  0.4831799E-002  0.4645149E+03  0.7546771E-02  0.1023480E+00
         21   -1    0    0  502  501  0.00000000000E+00  0.00000000000E+00  0.10318565932E+03  0.10318565932E+03  0.00000000000E+00 0. -1.
         21   -1    0    0  501  502 -0.00000000000E+00 -0.00000000000E+00 -0.52278123179E+03  0.52278123179E+03  0.00000000000E+00 0. -1.
      99926    2    1    2    0    0 -0.14210854715E-13  0.00000000000E+00 -0.41959557247E+03  0.62596689111E+03  0.46451491293E+03 0.  0.
      99925    2    3    3    0    0 -0.92301375893E+02  0.79607431734E+02 -0.25997019107E+03  0.38935611860E+03  0.26297680444E+03 0.  0.
         25    1    4    4    0    0 -0.71672071798E+02  0.83359368223E+01 -0.13036741613E+03  0.19454959524E+03  0.12509000000E+03 0.  0.
         25    1    4    4    0    0 -0.20629304095E+02  0.71271494911E+02 -0.12960277494E+03  0.19480652337E+03  0.12509000000E+03 0.  0.
         25    1    3    3    0    0  0.92301375893E+02 -0.79607431734E+02 -0.15962538140E+03  0.23661077251E+03  0.12509000000E+03 0.  0.
<mgrwt>
<rscale>  2 0.46451491E+03</rscale>
<asrwt>0</asrwt>
<pdfrwt beam="1">  1       21 0.15174362E-01 0.46451491E+03</pdfrwt>
<pdfrwt beam="2">  1       21 0.76879593E-01 0.46451491E+03</pdfrwt>
<totfact> 0.53011538E+04</totfact>
</mgrwt>
</event>
<event>
 7    0  0.4831799E-002  0.4495335E+03  0.7546771E-02  0.1027861E+00
         21   -1    0    0  502  501  0.00000000000E+00  0.00000000000E+00  0.13391170129E+03  0.13391170129E+03  0.00000000000E+00 0. -1.
         21   -1    0    0  501  502 -0.00000000000E+00 -0.00000000000E+00 -0.37726424901E+03  0.37726424901E+03  0.00000000000E+00 0. -1.
      99926    2    1    2    0    0  0.88817841970E-15  0.00000000000E+00 -0.24335254772E+03  0.51117595029E+03  0.44953352453E+03 0.  0.
      99925    2    3    3    0    0 -0.54493611312E+01 -0.35991532702E+02 -0.26946136261E+03  0.37830659988E+03  0.26302351912E+03 0.  0.
         25    1    4    4    0    0 -0.34642653047E+02 -0.43022350651E+02 -0.13260671792E+03  0.19048119541E+03  0.12509000000E+03 0.  0.
         25    1    3    3    0    0  0.54493611312E+01  0.35991532702E+02  0.26108814889E+02  0.13286935041E+03  0.12509000000E+03 0.  0.
         25    1    4    4    0    0  0.29193291916E+02  0.70308179487E+01 -0.13685464469E+03  0.18782540448E+03  0.12509000000E+03 0.  0.
<mgrwt>
<rscale>  2 0.44953352E+03</rscale>
<asrwt>0</asrwt>
<pdfrwt beam="1">  1       21 0.19692897E-01 0.44953352E+03</pdfrwt>
<pdfrwt beam="2">  1       21 0.55480036E-01 0.44953352E+03</pdfrwt>
<totfact> 0.67367608E+04</totfact>
</mgrwt>
</event>
<event>
 7    0  0.4831799E-002  0.4340075E+03  0.7546771E-02  0.1032601E+00
         21   -1    0    0  502  501  0.00000000000E+00  0.00000000000E+00  0.21617729131E+03  0.21617729131E+03  0.00000000000E+00 0. -1.
         21   -1    0    0  501  502 -0.00000000000E+00 -0.00000000000E+00 -0.21783338325E+03  0.21783338325E+03  0.00000000000E+00 0. -1.
      99926    2    1    2    0    0  0.11102230246E-15  0.00000000000E+00 -0.16560919427E+01  0.43401067455E+03  0.43400751490E+03 0.  0.
      99925    2    3    3    0    0 -0.65422483111E+00  0.78411861461E+01 -0.92848759803E+02  0.27900898753E+03  0.26298899352E+03 0.  0.
         25    1    3    3    0    0  0.65422483111E+00 -0.78411861461E+01  0.91192667861E+02  0.15500168703E+03  0.12509000000E+03 0.  0.
         25    1    4    4    0    0  0.30321727607E+02  0.97556252633E+01 -0.19011973870E+02  0.13047429877E+03  0.12509000000E+03 0.  0.
         25    1    4    4    0    0 -0.30975952438E+02 -0.19144391172E+01 -0.73836785933E+02  0.14853468875E+03  0.12509000000E+03 0.  0.
<mgrwt>
<rscale>  2 0.43400751E+03</rscale>
<asrwt>0</asrwt>
<pdfrwt beam="1">  1       21 0.31790778E-01 0.43400751E+03</pdfrwt>
<pdfrwt beam="2">  1       21 0.32034321E-01 0.43400751E+03</pdfrwt>
<totfact> 0.83198023E+04</totfact>
</mgrwt>
</event>
<event>
 7    0  0.4831799E-002  0.4547464E+03  0.7546771E-02  0.1026316E+00
         21   -1    0    0  502  501  0.00000000000E+00  0.00000000000E+00  0.36042937721E+03  0.36042937721E+03  0.00000000000E+00 0.  1.
         21   -1    0    0  501  502 -0.00000000000E+00 -0.00000000000E+00 -0.14343604555E+03  0.14343604555E+03  0.00000000000E+00 0.  1.
      99926    2    1    2    0    0  0.00000000000E+00  0.00000000000E+00  0.21699333165E+03  0.50386542276E+03  0.45474636697E+03 0.  0.
      99925    2    3    3    0    0 -0.63186698232E+02  0.85834149522E+02  0.17841200558E+03  0.33505758266E+03  0.26281681815E+03 0.  0.
         25    1    4    4    0    0 -0.32689283633E+02  0.62678404159E+01  0.10583137132E+03  0.16719946873E+03  0.12509000000E+03 0.  0.
         25    1    4    4    0    0 -0.30497414599E+02  0.79566309106E+02  0.72580634259E+02  0.16785811393E+03  0.12509000000E+03 0.  0.
         25    1    3    3    0    0  0.63186698232E+02 -0.85834149522E+02  0.38581326070E+02  0.16880784010E+03  0.12509000000E+03 0.  0.
<mgrwt>
<rscale>  2 0.45474637E+03</rscale>
<asrwt>0</asrwt>
<pdfrwt beam="1">  1       21 0.53004320E-01 0.45474637E+03</pdfrwt>
<pdfrwt beam="2">  1       21 0.21093536E-01 0.45474637E+03</pdfrwt>
<totfact> 0.65130972E+04</totfact>
</mgrwt>
</event>
<event>
 7    0  0.4831799E-002  0.4536718E+03  0.7546771E-02  0.1026633E+00
         21   -1    0    0  502  501  0.00000000000E+00  0.00000000000E+00  0.62597339496E+02  0.62597339496E+02  0.00000000000E+00 0.  1.
         21   -1    0    0  501  502 -0.00000000000E+00 -0.00000000000E+00 -0.82199231330E+03  0.82199231330E+03  0.00000000000E+00 0.  1.
      99926    2    1    2    0    0  0.00000000000E+00 -0.14210854715E-13 -0.75939497381E+03  0.88458965280E+03  0.45367182808E+03 0.  0.
      99925    2    3    3    0    0  0.73459622788E+02  0.83753682233E+02 -0.50179313942E+03  0.57731581948E+03  0.26284254826E+03 0.  0.
         25    1    4    4    0    0  0.73323184584E+02  0.61744309237E+02 -0.25529582982E+03  0.30002019589E+03  0.12509000000E+03 0.  0.
         25    1    4    4    0    0  0.13643820437E+00  0.22009372996E+02 -0.24649730961E+03  0.27729562358E+03  0.12509000000E+03 0.  0.
         25    1    3    3    0    0 -0.73459622788E+02 -0.83753682233E+02 -0.25760183438E+03  0.30727383332E+03  0.12509000000E+03 0.  0.
<mgrwt>
<rscale>  2 0.45367183E+03</rscale>
<asrwt>0</asrwt>
<pdfrwt beam="1">  1       21 0.92054911E-02 0.45367183E+03</pdfrwt>
<pdfrwt beam="2">  1       21 0.12088122E+00 0.45367183E+03</pdfrwt>
<totfact> 0.44366374E+04</totfact>
</mgrwt>
</event>
<event>
 7    0  0.4831799E-002  0.4560178E+03  0.7546771E-02  0.1025943E+00
         21   -1    0    0  502  501  0.00000000000E+00  0.00000000000E+00  0.35445604865E+03  0.35445604865E+03  0.00000000000E+00 0.  1.
         21   -1    0    0  501  502 -0.00000000000E+00 -0.00000000000E+00 -0.14666997257E+03  0.14666997257E+03  0.00000000000E+00 0.  1.
      99926    2    1    2    0    0  0.17763568394E-14  0.14210854715E-13  0.20778607608E+03  0.50112602122E+03  0.45601780199E+03 0.  0.
      99925    2    3    3    0    0 -0.75854158356E+01 -0.10714710074E+03  0.88532311756E+02  0.29763890091E+03  0.26308345706E+03 0.  0.
         25    1    4    4    0    0 -0.34249629914E+02 -0.82313707480E+02  0.54336304636E+02  0.16293718326E+03  0.12509000000E+03 0.  0.
         25    1    3    3    0    0  0.75854158356E+01  0.10714710074E+03  0.11925376432E+03  0.20348712032E+03  0.12509000000E+03 0.  0.
         25    1    4    4    0    0  0.26664214078E+02 -0.24833393257E+02  0.34196007120E+02  0.13470171764E+03  0.12509000000E+03 0.  0.
<mgrwt>
<rscale>  2 0.45601780E+03</rscale>
<asrwt>0</asrwt>
<pdfrwt beam="1">  1       21 0.52125889E-01 0.45601780E+03</pdfrwt>
<pdfrwt beam="2">  1       21 0.21569114E-01 0.45601780E+03</pdfrwt>
<totfact> 0.64667578E+04</totfact>
</mgrwt>
</event>
<event>
 7    0  0.4831799E-002  0.4189887E+03  0.7546771E-02  0.1037396E+00
         21   -1    0    0  502  501  0.00000000000E+00  0.00000000000E+00  0.38052640880E+03  0.38052640880E+03  0.00000000000E+00 0.  1.
         21   -1    0    0  501  502 -0.00000000000E+00 -0.00000000000E+00 -0.11533468384E+03  0.11533468384E+03  0.00000000000E+00 0.  1.
      99926    2    1    2    0    0  0.00000000000E+00  0.00000000000E+00  0.26519172496E+03  0.49586109265E+03  0.41898874951E+03 0.  0.
      99925    2    3    3    0    0 -0.58352440383E+02 -0.48857690938E+01  0.12293941103E+03  0.29758828322E+03  0.26460500655E+03 0.  0.
         25    1    3    3    0    0  0.58352440383E+02  0.48857690938E+01  0.14225231393E+03  0.19827280942E+03  0.12509000000E+03 0.  0.
         25    1    4    4    0    0  0.42250714886E+01  0.17765165609E+02  0.36369601086E+02  0.13154356055E+03  0.12509000000E+03 0.  0.
         25    1    4    4    0    0 -0.62577511872E+02 -0.22650934703E+02  0.86569809942E+02  0.16604472268E+03  0.12509000000E+03 0.  0.
<mgrwt>
<rscale>  2 0.41898875E+03</rscale>
<asrwt>0</asrwt>
<pdfrwt beam="1">  1       21 0.55959766E-01 0.41898875E+03</pdfrwt>
<pdfrwt beam="2">  1       21 0.16960983E-01 0.41898875E+03</pdfrwt>
<totfact> 0.88182019E+04</totfact>
</mgrwt>
</event>
<event>
 7    0  0.4831799E-002  0.4506467E+03  0.7546771E-02  0.1027529E+00
         21   -1    0    0  502  501  0.00000000000E+00  0.00000000000E+00  0.12354268858E+03  0.12354268858E+03  0.00000000000E+00 0. -1.
         21   -1    0    0  501  502 -0.00000000000E+00 -0.00000000000E+00 -0.41095607704E+03  0.41095607704E+03  0.00000000000E+00 0. -1.
      99926    2    1    2    0    0  0.71054273576E-14  0.00000000000E+00 -0.28741338847E+03  0.53449876562E+03  0.45064672924E+03 0.  0.
      99925    2    3    3    0    0  0.49398974060E+02 -0.85265422565E+02 -0.23707117522E+03  0.36748889328E+03  0.26293515102E+03 0.  0.
         25    1    4    4    0    0  0.48300755789E+02 -0.10650887421E+02 -0.12606763848E+03  0.18435553147E+03  0.12509000000E+03 0.  0.
         25    1    4    4    0    0  0.10982182716E+01 -0.74614535145E+02 -0.11100353674E+03  0.18313336181E+03  0.12509000000E+03 0.  0.
         25    1    3    3    0    0 -0.49398974060E+02  0.85265422565E+02 -0.50342213245E+02  0.16700987234E+03  0.12509000000E+03 0.  0.
<mgrwt>
<rscale>  2 0.45064673E+03</rscale>
<asrwt>0</asrwt>
<pdfrwt beam="1">  1       21 0.18168043E-01 0.45064673E+03</pdfrwt>
<pdfrwt beam="2">  1       21 0.60434717E-01 0.45064673E+03</pdfrwt>
<totfact> 0.65117464E+04</totfact>
</mgrwt>
</event>
<event>
 7    0  0.4831799E-002  0.4635608E+03  0.7546771E-02  0.1023754E+00
         21   -1    0    0  502  501  0.00000000000E+00  0.00000000000E+00  0.10582797368E+04  0.10582797368E+04  0.00000000000E+00 0.  1.
         21   -1    0    0  501  502 -0.00000000000E+00 -0.00000000000E+00 -0.50763652097E+02  0.50763652097E+02  0.00000000000E+00 0.  1.
      99926    2    1    2    0    0  0.00000000000E+00 -0.14210854715E-13  0.10075160847E+04  0.11090433889E+04  0.46356075926E+03 0.  0.
      99925    2    3    3    0    0 -0.23284721506E+02 -0.10674373722E+03  0.75387755987E+03  0.80586619142E+03  0.26296870443E+03 0.  0.
         25    1    4    4    0    0 -0.11536510242E+01 -0.25927838472E+02  0.43241018861E+03  0.45088763904E+03  0.12509000000E+03 0.  0.
         25    1    4    4    0    0 -0.22131070482E+02 -0.80815898750E+02  0.32146737125E+03  0.35497855238E+03  0.12509000000E+03 0.  0.
         25    1    3    3    0    0  0.23284721506E+02  0.10674373722E+03  0.25363852485E+03  0.30317719749E+03  0.12509000000E+03 0.  0.
<mgrwt>
<rscale>  2 0.46356076E+03</rscale>
<asrwt>0</asrwt>
<pdfrwt beam="1">  1       21 0.15562936E+00 0.46356076E+03</pdfrwt>
<pdfrwt beam="2">  1       21 0.74652436E-02 0.46356076E+03</pdfrwt>
<totfact> 0.32926163E+04</totfact>
</mgrwt>
</event>
<event>
 7    0  0.4831799E-002  0.4505909E+03  0.7546771E-02  0.1027546E+00
         21   -1    0    0  502  501  0.00000000000E+00  0.00000000000E+00  0.31578458373E+04  0.31578458373E+04  0.00000000000E+00 0. -1.
         21   -1    0    0  501  502 -0.00000000000E+00 -0.00000000000E+00 -0.16073629866E+02  0.16073629866E+02  0.00000000000E+00 0. -1.
      99926    2    1    2    0    0 -0.71054273576E-14  0.71054273576E-14  0.31417722075E+04  0.31739194672E+04  0.45059092385E+03 0.  0.
      99925    2    3    3    0    0  0.32513300982E+02 -0.36494918070E+02  0.26715408838E+04  0.26848857264E+04  0.26285295547E+03 0.  0.
         25    1    3    3    0    0 -0.32513300982E+02  0.36494918070E+02  0.47023132362E+03  0.48903374075E+03  0.12509000000E+03 0.  0.
         25    1    4    4    0    0  0.38843289329E+01 -0.50276032761E+02  0.11502772452E+04  0.11581571640E+04  0.12509000000E+03 0.  0.
         25    1    4    4    0    0  0.28628972049E+02  0.13781114691E+02  0.15212636386E+04  0.15267285624E+04  0.12509000000E+03 0.  0.
<mgrwt>
<rscale>  2 0.45059092E+03</rscale>
<asrwt>0</asrwt>
<pdfrwt beam="1">  1       21 0.46438866E+00 0.45059092E+03</pdfrwt>
<pdfrwt beam="2">  1       21 0.23637713E-02 0.45059092E+03</pdfrwt>
<totfact> 0.24739656E+03</totfact>
</mgrwt>
</event>
<event>
 7    0  0.4831799E-002  0.4543966E+03  0.7546771E-02  0.1026419E+00
         21   -1    0    0  502  501  0.00000000000E+00  0.00000000000E+00  0.35944111312E+03  0.35944111312E+03  0.00000000000E+00 0.  1.
         21   -1    0    0  501  502 -0.00000000000E+00 -0.00000000000E+00 -0.14360921929E+03  0.14360921929E+03  0.00000000000E+00 0.  1.
      99926    2    1    2    0    0  0.00000000000E+00  0.00000000000E+00  0.21583189383E+03  0.50305033240E+03  0.45439655648E+03 0.  0.
      99925    2    3    3    0    0 -0.41754291429E+02 -0.25622305831E+02  0.24786054165E+03  0.36494433764E+03  0.26334311850E+03 0.  0.
         25    1    4    4    0    0 -0.21037382711E+02 -0.15379219864E+02  0.18007962961E+03  0.22080596227E+03  0.12509000000E+03 0.  0.
         25    1    4    4    0    0 -0.20716908718E+02 -0.10243085967E+02  0.67780912040E+02  0.14413837537E+03  0.12509000000E+03 0.  0.
         25    1    3    3    0    0  0.41754291429E+02  0.25622305831E+02 -0.32028647818E+02  0.13810599476E+03  0.12509000000E+03 0.  0.
<mgrwt>
<rscale>  2 0.45439656E+03</rscale>
<asrwt>0</asrwt>
<pdfrwt beam="1">  1       21 0.52858987E-01 0.45439656E+03</pdfrwt>
<pdfrwt beam="2">  1       21 0.21119003E-01 0.45439656E+03</pdfrwt>
<totfact> 0.65369445E+04</totfact>
</mgrwt>
</event>
<event>
 7    0  0.4831799E-002  0.4644918E+03  0.7546771E-02  0.1023486E+00
         21   -1    0    0  502  501  0.00000000000E+00  0.00000000000E+00  0.49092543938E+02  0.49092543938E+02  0.00000000000E+00 0. -1.
         21   -1    0    0  501  502 -0.00000000000E+00 -0.00000000000E+00 -0.10987037219E+04  0.10987037219E+04  0.00000000000E+00 0. -1.
      99926    2    1    2    0    0  0.00000000000E+00  0.00000000000E+00 -0.10496111780E+04  0.11477962659E+04  0.46449181152E+03 0.  0.
      99925    2    3    3    0    0  0.44840809082E+02 -0.25507039748E+02 -0.92775810020E+03  0.96570566231E+03  0.26304187214E+03 0.  0.
         25    1    4    4    0    0  0.24513854268E+02 -0.20519058255E+01 -0.32056510707E+03  0.34498497842E+03  0.12509000000E+03 0.  0.
         25    1    3    3    0    0 -0.44840809082E+02  0.25507039748E+02 -0.12185307780E+03  0.18209060356E+03  0.12509000000E+03 0.  0.
         25    1    4    4    0    0  0.20326954814E+02 -0.23455133923E+02 -0.60719299313E+03  0.62072068389E+03  0.12509000000E+03 0.  0.
<mgrwt>
<rscale>  2 0.46449181E+03</rscale>
<asrwt>0</asrwt>
<pdfrwt beam="1">  1       21 0.72194924E-02 0.46449181E+03</pdfrwt>
<pdfrwt beam="2">  1       21 0.16157406E+00 0.46449181E+03</pdfrwt>
<totfact> 0.31463199E+04</totfact>
</mgrwt>
</event>
<event>
 7    0  0.4831799E-002  0.4541535E+03  0.7546771E-02  0.1026491E+00
         21   -1    0    0  502  501  0.00000000000E+00  0.00000000000E+00  0.16253669049E+03  0.16253669049E+03  0.00000000000E+00 0.  1.
         21   -1    0    0  501  502 -0.00000000000E+00 -0.00000000000E+00 -0.31724442031E+03  0.31724442031E+03  0.00000000000E+00 0.  1.
      99926    2    1    2    0    0  0.00000000000E+00  0.00000000000E+00 -0.15470772982E+03  0.47978111081E+03  0.45415353419E+03 0.  0.
      99925    2    3    3    0    0 -0.61812637446E+02  0.92024592446E+02 -0.11422740671E+03  0.30780584391E+03  0.26345248024E+03 0.  0.
         25    1    3    3    0    0  0.61812637446E+02 -0.92024592446E+02 -0.40480323116E+02  0.17197526689E+03  0.12509000000E+03 0.  0.
         25    1    4    4    0    0 -0.59368417900E+02  0.72033189260E+02 -0.85209044915E+02  0.17782429203E+03  0.12509000000E+03 0.  0.
         25    1    4    4    0    0 -0.24442195467E+01  0.19991403186E+02 -0.29018361791E+02  0.12998155189E+03  0.12509000000E+03 0.  0.
<mgrwt>
<rscale>  2 0.45415353E+03</rscale>
<asrwt>0</asrwt>
<pdfrwt beam="1">  1       21 0.23902455E-01 0.45415353E+03</pdfrwt>
<pdfrwt beam="2">  1       21 0.46653591E-01 0.45415353E+03</pdfrwt>
<totfact> 0.67166179E+04</totfact>
</mgrwt>
</event>
<event>
 7    0  0.4831799E-002  0.4555326E+03  0.7546771E-02  0.1026085E+00
         21   -1    0    0  502  501  0.00000000000E+00  0.00000000000E+00  0.56869652897E+02  0.56869652897E+02  0.00000000000E+00 0.  1.
         21   -1    0    0  501  502 -0.00000000000E+00 -0.00000000000E+00 -0.91221740937E+03  0.91221740937E+03  0.00000000000E+00 0.  1.
      99926    2    1    2    0    0  0.00000000000E+00  0.00000000000E+00 -0.85534775647E+03  0.96908706227E+03  0.45553260010E+03 0.  0.
      99925    2    3    3    0    0 -0.77717211228E+02  0.81626384832E+02 -0.56908742942E+03  0.63697967818E+03  0.26302048678E+03 0.  0.
         25    1    3    3    0    0  0.77717211228E+02 -0.81626384832E+02 -0.28626032705E+03  0.33210738409E+03  0.12509000000E+03 0.  0.
         25    1    4    4    0    0 -0.37155110497E+02  0.52455677649E+02 -0.20352327209E+03  0.24738902711E+03  0.12509000000E+03 0.  0.
         25    1    4    4    0    0 -0.40562100730E+02  0.29170707183E+02 -0.36556415733E+03  0.38959065107E+03  0.12509000000E+03 0.  0.
<mgrwt>
<rscale>  2 0.45553260E+03</rscale>
<asrwt>0</asrwt>
<pdfrwt beam="1">  1       21 0.83631843E-02 0.45553260E+03</pdfrwt>
<pdfrwt beam="2">  1       21 0.13414962E+00 0.45553260E+03</pdfrwt>
<totfact> 0.40209757E+04</totfact>
</mgrwt>
</event>
<event>
 7    0  0.4831799E-002  0.4518877E+03  0.7546771E-02  0.1027161E+00
         21   -1    0    0  502  501  0.00000000000E+00  0.00000000000E+00  0.17118499315E+03  0.17118499315E+03  0.00000000000E+00 0.  1.
         21   -1    0    0  501  502 -0.00000000000E+00 -0.00000000000E+00 -0.29821905156E+03  0.29821905156E+03  0.00000000000E+00 0.  1.
      99926    2    1    2    0    0  0.00000000000E+00  0.00000000000E+00 -0.12703405841E+03  0.46940404471E+03  0.45188771304E+03 0.  0.
      99925    2    3    3    0    0  0.95503580916E+02 -0.54736930933E+02 -0.86049441488E+02  0.29781059350E+03  0.26300109818E+03 0.  0.
         25    1    4    4    0    0  0.41474065252E+02 -0.12305642948E+02 -0.23843298408E+01  0.13238096565E+03  0.12509000000E+03 0.  0.
         25    1    4    4    0    0  0.54029515664E+02 -0.42431287984E+02 -0.83665111647E+02  0.16542962785E+03  0.12509000000E+03 0.  0.
         25    1    3    3    0    0 -0.95503580916E+02  0.54736930933E+02 -0.40984616923E+02  0.17159345122E+03  0.12509000000E+03 0.  0.
<mgrwt>
<rscale>  2 0.45188771E+03</rscale>
<asrwt>0</asrwt>
<pdfrwt beam="1">  1       21 0.25174264E-01 0.45188771E+03</pdfrwt>
<pdfrwt beam="2">  1       21 0.43855742E-01 0.45188771E+03</pdfrwt>
<totfact> 0.69172340E+04</totfact>
</mgrwt>
</event>
<event>
 7    0  0.4831799E-002  0.4503042E+03  0.7546771E-02  0.1027631E+00
         21   -1    0    0  502  501  0.00000000000E+00  0.00000000000E+00  0.53864226289E+02  0.53864226289E+02  0.00000000000E+00 0.  1.
         21   -1    0    0  501  502 -0.00000000000E+00 -0.00000000000E+00 -0.94113417799E+03  0.94113417799E+03  0.00000000000E+00 0.  1.
      99926    2    1    2    0    0  0.00000000000E+00 -0.35527136788E-14 -0.88726995170E+03  0.99499840428E+03  0.45030418311E+03 0.  0.
      99925    2    3    3    0    0 -0.85877824262E+02  0.28846499836E+02 -0.42849367389E+03  0.51092165165E+03  0.26311021324E+03 0.  0.
         25    1    4    4    0    0 -0.80932694542E+02 -0.31732770232E+01 -0.22577198178E+03  0.27051925364E+03  0.12509000000E+03 0.  0.
         25    1    3    3    0    0  0.85877824262E+02 -0.28846499836E+02 -0.45877627781E+03  0.48407675263E+03  0.12509000000E+03 0.  0.
         25    1    4    4    0    0 -0.49451297202E+01  0.32019776859E+02 -0.20272169211E+03  0.24040239801E+03  0.12509000000E+03 0.  0.
<mgrwt>
<rscale>  2 0.45030418E+03</rscale>
<asrwt>0</asrwt>
<pdfrwt beam="1">  1       21 0.79212103E-02 0.45030418E+03</pdfrwt>
<pdfrwt beam="2">  1       21 0.13840207E+00 0.45030418E+03</pdfrwt>
<totfact> 0.40839259E+04</totfact>
</mgrwt>
</event>
<event>
 7    0  0.4831799E-002  0.4477795E+03  0.7546771E-02  0.1028386E+00
         21   -1    0    0  502  501  0.00000000000E+00  0.00000000000E+00  0.17291840297E+03  0.17291840297E+03  0.00000000000E+00 0.  1.
         21   -1    0    0  501  502 -0.00000000000E+00 -0.00000000000E+00 -0.28988595556E+03  0.28988595556E+03  0.00000000000E+00 0.  1.
      99926    2    1    2    0    0  0.00000000000E+00 -0.14210854715E-13 -0.11696755259E+03  0.46280435853E+03  0.44777948358E+03 0.  0.
      99925    2    3    3    0    0 -0.65393836411E+02 -0.75914738403E+02 -0.11036405965E+03  0.30239701591E+03  0.26310516570E+03 0.  0.
         25    1    4    4    0    0 -0.74124149695E+02 -0.34661231429E+02 -0.55611505769E+02  0.15948648283E+03  0.12509000000E+03 0.  0.
         25    1    4    4    0    0  0.87303132840E+01 -0.41253506974E+02 -0.54752553881E+02  0.14291053308E+03  0.12509000000E+03 0.  0.
         25    1    3    3    0    0  0.65393836411E+02  0.75914738403E+02 -0.66034929413E+01  0.16040734262E+03  0.12509000000E+03 0.  0.
<mgrwt>
<rscale>  2 0.44777948E+03</rscale>
<asrwt>0</asrwt>
<pdfrwt beam="1">  1       21 0.25429177E-01 0.44777948E+03</pdfrwt>
<pdfrwt beam="2">  1       21 0.42630287E-01 0.44777948E+03</pdfrwt>
<totfact> 0.72011777E+04</totfact>
</mgrwt>
</event>
<event>
 7    0  0.4831799E-002  0.4439676E+03  0.7546771E-02  0.1029536E+00
         21   -1    0    0  502  501  0.00000000000E+00  0.00000000000E+00  0.25639421791E+03  0.25639421791E+03  0.00000000000E+00 0. -1.
         21   -1    0    0  501  502 -0.00000000000E+00 -0.00000000000E+00 -0.19219159301E+03  0.19219159301E+03  0.00000000000E+00 0. -1.
      99926    2    1    2    0    0 -0.14210854715E-13  0.00000000000E+00  0.64202624900E+02  0.44858581092E+03  0.44396762575E+03 0.  0.
      99925    2    3    3    0    0  0.95515562408E+02 -0.21590727644E+02  0.71176090105E+02  0.28957159929E+03  0.26305188297E+03 0.  0.
         25    1    4    4    0    0  0.18560958029E+02  0.11752435613E+01  0.41398482421E+01  0.12653274993E+03  0.12509000000E+03 0.  0.
         25    1    3    3    0    0 -0.95515562408E+02  0.21590727644E+02 -0.69734652049E+01  0.15901421163E+03  0.12509000000E+03 0.  0.
         25    1    4    4    0    0  0.76954604379E+02 -0.22765971205E+02  0.67036241863E+02  0.16303884937E+03  0.12509000000E+03 0.  0.
<mgrwt>
<rscale>  2 0.44396763E+03</rscale>
<asrwt>0</asrwt>
<pdfrwt beam="1">  1       21 0.37705032E-01 0.44396763E+03</pdfrwt>
<pdfrwt beam="2">  1       21 0.28263469E-01 0.44396763E+03</pdfrwt>
<totfact> 0.75442668E+04</totfact>
</mgrwt>
</event>
<event>
 7    0  0.4831799E-002  0.4457765E+03  0.7546771E-02  0.1028989E+00
         21   -1    0    0  502  501  0.00000000000E+00  0.00000000000E+00  0.13098814054E+03  0.13098814054E+03  0.00000000000E+00 0.  1.
         21   -1    0    0  501  502 -0.00000000000E+00 -0.00000000000E+00 -0.37926459372E+03  0.37926459372E+03  0.00000000000E+00 0.  1.
      99926    2    1    2    0    0  0.00000000000E+00 -0.71054273576E-14 -0.24827645319E+03  0.51025273426E+03  0.44577646372E+03 0.  0.
      99925    2    3    3    0    0 -0.66582902816E+02 -0.38127314895E+02 -0.77526702573E+02  0.28510842382E+03  0.26341877046E+03 0.  0.
         25    1    3    3    0    0  0.66582902816E+02  0.38127314895E+02 -0.17074975061E+03  0.22514431044E+03  0.12509000000E+03 0.  0.
         25    1    4    4    0    0 -0.16290356025E+02 -0.37732431942E+02 -0.72237006115E+02  0.15018257313E+03  0.12509000000E+03 0.  0.
         25    1    4    4    0    0 -0.50292546791E+02 -0.39488295316E+00 -0.52896964580E+01  0.13492585069E+03  0.12509000000E+03 0.  0.
<mgrwt>
<rscale>  2 0.44577646E+03</rscale>
<asrwt>0</asrwt>
<pdfrwt beam="1">  1       21 0.19262962E-01 0.44577646E+03</pdfrwt>
<pdfrwt beam="2">  1       21 0.55774204E-01 0.44577646E+03</pdfrwt>
<totfact> 0.69505567E+04</totfact>
</mgrwt>
</event>
<event>
 7    0  0.4831799E-002  0.4542545E+03  0.7546771E-02  0.1026461E+00
         21   -1    0    0  502  501  0.00000000000E+00  0.00000000000E+00  0.25915463661E+02  0.25915463661E+02  0.00000000000E+00 0.  1.
         21   -1    0    0  501  502 -0.00000000000E+00 -0.00000000000E+00 -0.19905794725E+04  0.19905794725E+04  0.00000000000E+00 0.  1.
      99926    2    1    2    0    0  0.00000000000E+00  0.71054273576E-14 -0.19646640088E+04  0.20164949362E+04  0.45425451009E+03 0.  0.
      99925    2    3    3    0    0  0.32780418437E+02  0.61958299102E+02 -0.84679770489E+03  0.88946966214E+03  0.26301433461E+03 0.  0.
         25    1    3    3    0    0 -0.32780418437E+02 -0.61958299102E+02 -0.11178663040E+04  0.11270252740E+04  0.12509000000E+03 0.  0.
         25    1    4    4    0    0  0.15497734409E+02  0.64624108548E+02 -0.52496593122E+03  0.54374000425E+03  0.12509000000E+03 0.  0.
         25    1    4    4    0    0  0.17282684029E+02 -0.26658094458E+01 -0.32183177366E+03  0.34572965789E+03  0.12509000000E+03 0.  0.
<mgrwt>
<rscale>  2 0.45425451E+03</rscale>
<asrwt>0</asrwt>
<pdfrwt beam="1">  1       21 0.38110975E-02 0.45425451E+03</pdfrwt>
<pdfrwt beam="2">  1       21 0.29273229E+00 0.45425451E+03</pdfrwt>
<totfact> 0.13520266E+04</totfact>
</mgrwt>
</event>
<event>
 7    0  0.4831799E-002  0.4555722E+03  0.7546771E-02  0.1026073E+00
         21   -1    0    0  502  501  0.00000000000E+00  0.00000000000E+00  0.20619061649E+02  0.20619061649E+02  0.00000000000E+00 0. -1.
         21   -1    0    0  501  502 -0.00000000000E+00 -0.00000000000E+00 -0.25164339902E+04  0.25164339902E+04  0.00000000000E+00 0. -1.
      99926    2    1    2    0    0  0.00000000000E+00  0.00000000000E+00 -0.24958149285E+04  0.25370530518E+04  0.45557220099E+03 0.  0.
      99925    2    3    3    0    0 -0.65344778930E+02 -0.75530993048E+02 -0.12657454292E+04  0.12966122623E+04  0.26290111480E+03 0.  0.
         25    1    3    3    0    0  0.65344778930E+02  0.75530993048E+02 -0.12300694993E+04  0.12404407895E+04  0.12509000000E+03 0.  0.
         25    1    4    4    0    0 -0.26949650218E+02 -0.38501857782E+02 -0.44337544627E+03  0.46307447690E+03  0.12509000000E+03 0.  0.
         25    1    4    4    0    0 -0.38395128712E+02 -0.37029135265E+02 -0.82236998295E+03  0.83353778542E+03  0.12509000000E+03 0.  0.
<mgrwt>
<rscale>  2 0.45557220E+03</rscale>
<asrwt>0</asrwt>
<pdfrwt beam="1">  1       21 0.30322128E-02 0.45557220E+03</pdfrwt>
<pdfrwt beam="2">  1       21 0.37006409E+00 0.45557220E+03</pdfrwt>
<totfact> 0.67300644E+03</totfact>
</mgrwt>
</event>
<event>
 7    0  0.4831799E-002  0.4351784E+03  0.7546771E-02  0.1032237E+00
         21   -1    0    0  502  501  0.00000000000E+00  0.00000000000E+00  0.24283333284E+03  0.24283333284E+03  0.00000000000E+00 0.  1.
         21   -1    0    0  501  502 -0.00000000000E+00 -0.00000000000E+00 -0.19496934219E+03  0.19496934219E+03  0.00000000000E+00 0.  1.
      99926    2    1    2    0    0  0.00000000000E+00  0.00000000000E+00  0.47863990656E+02  0.43780267503E+03  0.43517837798E+03 0.  0.
      99925    2    3    3    0    0 -0.73751332182E+02 -0.10077461689E+02 -0.26140332304E+02  0.27450857793E+03  0.26292741993E+03 0.  0.
         25    1    4    4    0    0 -0.31072607604E+02  0.46212756027E+01  0.26174444972E+02  0.13160346804E+03  0.12509000000E+03 0.  0.
         25    1    4    4    0    0 -0.42678724578E+02 -0.14698737292E+02 -0.52314777276E+02  0.14290510988E+03  0.12509000000E+03 0.  0.
         25    1    3    3    0    0  0.73751332182E+02  0.10077461689E+02  0.74004322960E+02  0.16329409711E+03  0.12509000000E+03 0.  0.
<mgrwt>
<rscale>  2 0.43517838E+03</rscale>
<asrwt>0</asrwt>
<pdfrwt beam="1">  1       21 0.35710784E-01 0.43517838E+03</pdfrwt>
<pdfrwt beam="2">  1       21 0.28671962E-01 0.43517838E+03</pdfrwt>
<totfact> 0.82053021E+04</totfact>
</mgrwt>
</event>
<event>
 7    0  0.4831799E-002  0.4821643E+03  0.7546771E-02  0.1018542E+00
         21   -1    0    0  502  501  0.00000000000E+00  0.00000000000E+00  0.61663902656E+02  0.61663902656E+02  0.00000000000E+00 0. -1.
         21   -1    0    0  501  502 -0.00000000000E+00 -0.00000000000E+00 -0.94253855519E+03  0.94253855519E+03  0.00000000000E+00 0. -1.
      99926    2    1    2    0    0  0.00000000000E+00 -0.14210854715E-13 -0.88087465253E+03  0.10042024578E+04  0.48216431107E+03 0.  0.
      99925    2    3    3    0    0  0.11153442828E+03 -0.75134457268E+02 -0.48676065054E+03  0.56939391374E+03  0.26303684671E+03 0.  0.
         25    1    4    4    0    0  0.37306424096E+02 -0.72385365448E+02 -0.22720931414E+03  0.27185104550E+03  0.12509000000E+03 0.  0.
         25    1    4    4    0    0  0.74228004183E+02 -0.27490918202E+01 -0.25955133640E+03  0.29754286824E+03  0.12509000000E+03 0.  0.
         25    1    3    3    0    0 -0.11153442828E+03  0.75134457268E+02 -0.39411400199E+03  0.43480854410E+03  0.12509000000E+03 0.  0.
<mgrwt>
<rscale>  2 0.48216431E+03</rscale>
<asrwt>0</asrwt>
<pdfrwt beam="1">  1       21 0.90682214E-02 0.48216431E+03</pdfrwt>
<pdfrwt beam="2">  1       21 0.13860861E+00 0.48216431E+03</pdfrwt>
<totfact> 0.31719905E+04</totfact>
</mgrwt>
</event>
<event>
 7    0  0.4831799E-002  0.4350363E+03  0.7546771E-02  0.1032281E+00
         21   -1    0    0  502  501  0.00000000000E+00  0.00000000000E+00  0.86315353015E+03  0.86315353015E+03  0.00000000000E+00 0. -1.
         21   -1    0    0  501  502 -0.00000000000E+00 -0.00000000000E+00 -0.54815436612E+02  0.54815436612E+02  0.00000000000E+00 0. -1.
      99926    2    1    2    0    0  0.00000000000E+00  0.00000000000E+00  0.80833809353E+03  0.91796896676E+03  0.43503626340E+03 0.  0.
      99925    2    3    3    0    0  0.82773507562E+02 -0.37547602952E+02  0.56155083578E+03  0.62674270639E+03  0.26306995799E+03 0.  0.
         25    1    4    4    0    0  0.69523084888E+02 -0.50157644207E+02  0.29266286772E+03  0.32961843221E+03  0.12509000000E+03 0.  0.
         25    1    4    4    0    0  0.13250422674E+02  0.12610041255E+02  0.26888796806E+03  0.29712427418E+03  0.12509000000E+03 0.  0.
         25    1    3    3    0    0 -0.82773507562E+02  0.37547602952E+02  0.24678725775E+03  0.29122626037E+03  0.12509000000E+03 0.  0.
<mgrwt>
<rscale>  2 0.43503626E+03</rscale>
<asrwt>0</asrwt>
<pdfrwt beam="1">  1       21 0.12693433E+00 0.43503626E+03</pdfrwt>
<pdfrwt beam="2">  1       21 0.80610942E-02 0.43503626E+03</pdfrwt>
<totfact> 0.49799779E+04</totfact>
</mgrwt>
</event>
<event>
 7    0  0.4831799E-002  0.4546883E+03  0.7546771E-02  0.1026333E+00
         21   -1    0    0  502  501  0.00000000000E+00  0.00000000000E+00  0.85329175246E+03  0.85329175246E+03  0.00000000000E+00 0. -1.
         21   -1    0    0  501  502 -0.00000000000E+00 -0.00000000000E+00 -0.60571735160E+02  0.60571735160E+02  0.00000000000E+00 0. -1.
      99926    2    1    2    0    0  0.00000000000E+00 -0.71054273576E-14  0.79272001730E+03  0.91386348762E+03  0.45468829782E+03 0.  0.
      99925    2    3    3    0    0 -0.83447867636E+02  0.56807060396E+02  0.39775428621E+03  0.48744113178E+03  0.26305854107E+03 0.  0.
         25    1    4    4    0    0 -0.19908721747E+02 -0.19969330300E+01  0.14603852968E+03  0.19332642136E+03  0.12509000000E+03 0.  0.
         25    1    4    4    0    0 -0.63539145890E+02  0.58803993426E+02  0.25171575653E+03  0.29411471043E+03  0.12509000000E+03 0.  0.
         25    1    3    3    0    0  0.83447867636E+02 -0.56807060396E+02  0.39496573109E+03  0.42642235584E+03  0.12509000000E+03 0.  0.
<mgrwt>
<rscale>  2 0.45468830E+03</rscale>
<asrwt>0</asrwt>
<pdfrwt beam="1">  1       21 0.12548407E+00 0.45468830E+03</pdfrwt>
<pdfrwt beam="2">  1       21 0.89076087E-02 0.45468830E+03</pdfrwt>
<totfact> 0.42743997E+04</totfact>
</mgrwt>
</event>
<event>
 7    0  0.4831799E-002  0.4517777E+03  0.7546771E-02  0.1027193E+00
         21   -1    0    0  502  501  0.00000000000E+00  0.00000000000E+00  0.14901641366E+03  0.14901641366E+03  0.00000000000E+00 0. -1.
         21   -1    0    0  501  502 -0.00000000000E+00 -0.00000000000E+00 -0.34241708061E+03  0.34241708061E+03  0.00000000000E+00 0. -1.
      99926    2    1    2    0    0  0.53290705182E-14  0.35527136788E-14 -0.19340066694E+03  0.49143349427E+03  0.45177766802E+03 0.  0.
      99925    2    3    3    0    0 -0.44275242398E+01  0.26854258213E+02 -0.60080118521E+01  0.26448797342E+03  0.26301528039E+03 0.  0.
         25    1    3    3    0    0  0.44275242398E+01 -0.26854258213E+02 -0.18739265509E+03  0.22694552086E+03  0.12509000000E+03 0.  0.
         25    1    4    4    0    0  0.35560927710E+02  0.26541362737E+02 -0.99736774671E+01  0.13310148706E+03  0.12509000000E+03 0.  0.
         25    1    4    4    0    0 -0.39988451950E+02  0.31289547652E+00  0.39656656150E+01  0.13138648635E+03  0.12509000000E+03 0.  0.
<mgrwt>
<rscale>  2 0.45177767E+03</rscale>
<asrwt>0</asrwt>
<pdfrwt beam="1">  1       21 0.21914179E-01 0.45177767E+03</pdfrwt>
<pdfrwt beam="2">  1       21 0.50355453E-01 0.45177767E+03</pdfrwt>
<totfact> 0.67589287E+04</totfact>
</mgrwt>
</event>
<event>
 7    0  0.4831799E-002  0.4929168E+03  0.7546771E-02  0.1015644E+00
         21   -1    0    0  502  501  0.00000000000E+00  0.00000000000E+00  0.11428224673E+03  0.11428224673E+03  0.00000000000E+00 0. -1.
         21   -1    0    0  501  502 -0.00000000000E+00 -0.00000000000E+00 -0.53150634389E+03  0.53150634389E+03  0.00000000000E+00 0. -1.
      99926    2    1    2    0    0  0.14210854715E-13  0.14210854715E-13 -0.41722409716E+03  0.64578859062E+03  0.49291678459E+03 0.  0.
      99925    2    3    3    0    0 -0.10484244797E+03 -0.94733470358E+02 -0.20690743731E+03  0.36321652050E+03  0.26296232401E+03 0.  0.
         25    1    3    3    0    0  0.10484244797E+03  0.94733470358E+02 -0.21031665985E+03  0.28257207012E+03  0.12509000000E+03 0.  0.
         25    1    4    4    0    0 -0.20570435899E+02 -0.70071608943E+02 -0.11433320814E+03  0.18453390961E+03  0.12509000000E+03 0.  0.
         25    1    4    4    0    0 -0.84272012075E+02 -0.24661861415E+02 -0.92574229174E+02  0.17868261089E+03  0.12509000000E+03 0.  0.
<mgrwt>
<rscale>  2 0.49291678E+03</rscale>
<asrwt>0</asrwt>
<pdfrwt beam="1">  1       21 0.16806213E-01 0.49291678E+03</pdfrwt>
<pdfrwt beam="2">  1       21 0.78162696E-01 0.49291678E+03</pdfrwt>
<totfact> 0.41919430E+04</totfact>
</mgrwt>
</event>
<event>
 7    0  0.4831799E-002  0.4599921E+03  0.7546771E-02  0.1024784E+00
         21   -1    0    0  502  501  0.00000000000E+00  0.00000000000E+00  0.24415030691E+03  0.24415030691E+03  0.00000000000E+00 0.  1.
         21   -1    0    0  501  502 -0.00000000000E+00 -0.00000000000E+00 -0.21666237073E+03  0.21666237073E+03  0.00000000000E+00 0.  1.
      99926    2    1    2    0    0  0.00000000000E+00  0.00000000000E+00  0.27487936184E+02  0.46081267764E+03  0.45999210562E+03 0.  0.
      99925    2    3    3    0    0 -0.55451500910E+02  0.68172467907E+02 -0.61421105906E+02  0.28396618997E+03  0.26294845591E+03 0.  0.
         25    1    3    3    0    0  0.55451500910E+02 -0.68172467907E+02  0.88909042090E+02  0.17684648766E+03  0.12509000000E+03 0.  0.
         25    1    4    4    0    0 -0.39714780073E+02  0.37309762168E-02 -0.97258956957E+01  0.13160305816E+03  0.12509000000E+03 0.  0.
         25    1    4    4    0    0 -0.15736720837E+02  0.68168736930E+02 -0.51695210211E+02  0.15236313181E+03  0.12509000000E+03 0.  0.
<mgrwt>
<rscale>  2 0.45999211E+03</rscale>
<asrwt>0</asrwt>
<pdfrwt beam="1">  1       21 0.35904457E-01 0.45999211E+03</pdfrwt>
<pdfrwt beam="2">  1       21 0.31862113E-01 0.45999211E+03</pdfrwt>
<totfact> 0.65475011E+04</totfact>
</mgrwt>
</event>
<event>
 7    0  0.4831799E-002  0.4557778E+03  0.7546771E-02  0.1026013E+00
         21   -1    0    0  502  501  0.00000000000E+00  0.00000000000E+00  0.14824836704E+03  0.14824836704E+03  0.00000000000E+00 0. -1.
         21   -1    0    0  501  502 -0.00000000000E+00 -0.00000000000E+00 -0.35031306634E+03  0.35031306634E+03  0.00000000000E+00 0. -1.
      99926    2    1    2    0    0  0.00000000000E+00  0.00000000000E+00 -0.20206469930E+03  0.49856143338E+03  0.45577775302E+03 0.  0.
      99925    2    3    3    0    0  0.96832250334E+02 -0.47410655272E+02 -0.16592311052E+03  0.32951121162E+03  0.26348226703E+03 0.  0.
         25    1    4    4    0    0  0.25429304976E+02 -0.57651660245E+02 -0.88263345347E+02  0.16555449167E+03  0.12509000000E+03 0.  0.
         25    1    4    4    0    0  0.71402945359E+02  0.10241004973E+02 -0.77659765174E+02  0.16395671995E+03  0.12509000000E+03 0.  0.
         25    1    3    3    0    0 -0.96832250334E+02  0.47410655272E+02 -0.36141588782E+02  0.16905022176E+03  0.12509000000E+03 0.  0.
<mgrwt>
<rscale>  2 0.45577775E+03</rscale>
<asrwt>0</asrwt>
<pdfrwt beam="1">  1       21 0.21801231E-01 0.45577775E+03</pdfrwt>
<pdfrwt beam="2">  1       21 0.51516627E-01 0.45577775E+03</pdfrwt>
<totfact> 0.64969790E+04</totfact>
</mgrwt>
</event>
<event>
 7    0  0.4831799E-002  0.4574745E+03  0.7546771E-02  0.1025516E+00
         21   -1    0    0  502  501  0.00000000000E+00  0.00000000000E+00  0.31912129323E+03  0.31912129323E+03  0.00000000000E+00 0.  1.
         21   -1    0    0  501  502 -0.00000000000E+00 -0.00000000000E+00 -0.16395247677E+03  0.16395247677E+03  0.00000000000E+00 0.  1.
      99926    2    1    2    0    0  0.00000000000E+00  0.00000000000E+00  0.15516881646E+03  0.48307377001E+03  0.45747448636E+03 0.  0.
      99925    2    3    3    0    0 -0.58951289592E+02 -0.99224311710E+02  0.93335745164E+02  0.30198938254E+03  0.26299297949E+03 0.  0.
         25    1    4    4    0    0 -0.24674048338E+02 -0.77942265844E+02  0.80996365113E+02  0.16997565922E+03  0.12509000000E+03 0.  0.
         25    1    4    4    0    0 -0.34277241253E+02 -0.21282045866E+02  0.12339380050E+02  0.13201372332E+03  0.12509000000E+03 0.  0.
         25    1    3    3    0    0  0.58951289592E+02  0.99224311710E+02  0.61833071293E+02  0.18108438747E+03  0.12509000000E+03 0.  0.
<mgrwt>
<rscale>  2 0.45747449E+03</rscale>
<asrwt>0</asrwt>
<pdfrwt beam="1">  1       21 0.46929602E-01 0.45747449E+03</pdfrwt>
<pdfrwt beam="2">  1       21 0.24110658E-01 0.45747449E+03</pdfrwt>
<totfact> 0.65187178E+04</totfact>
</mgrwt>
</event>
<event>
 7    0  0.4831799E-002  0.4412575E+03  0.7546771E-02  0.1030362E+00
         21   -1    0    0  502  501  0.00000000000E+00  0.00000000000E+00  0.55368073259E+03  0.55368073259E+03  0.00000000000E+00 0. -1.
         21   -1    0    0  501  502 -0.00000000000E+00 -0.00000000000E+00 -0.87915384834E+02  0.87915384834E+02  0.00000000000E+00 0. -1.
      99926    2    1    2    0    0  0.35527136788E-14  0.00000000000E+00  0.46576534775E+03  0.64159611742E+03  0.44125754240E+03 0.  0.
      99925    2    3    3    0    0  0.25398911460E+02 -0.77251967796E+02  0.38085170722E+03  0.46992548604E+03  0.26299993973E+03 0.  0.
         25    1    3    3    0    0 -0.25398911460E+02  0.77251967796E+02  0.84913640527E+02  0.17167063138E+03  0.12509000000E+03 0.  0.
         25    1    4    4    0    0  0.48319299738E+02 -0.21371213905E+02  0.20360415822E+03  0.24473178146E+03  0.12509000000E+03 0.  0.
         25    1    4    4    0    0 -0.22920388278E+02 -0.55880753891E+02  0.17724754901E+03  0.22519370458E+03  0.12509000000E+03 0.  0.
<mgrwt>
<rscale>  2 0.44125754E+03</rscale>
<asrwt>0</asrwt>
<pdfrwt beam="1">  1       21 0.81423635E-01 0.44125754E+03</pdfrwt>
<pdfrwt beam="2">  1       21 0.12928733E-01 0.44125754E+03</pdfrwt>
<totfact> 0.62717082E+04</totfact>
</mgrwt>
</event>
<event>
 7    0  0.4831799E-002  0.4580925E+03  0.7546771E-02  0.1025336E+00
         21   -1    0    0  502  501  0.00000000000E+00  0.00000000000E+00  0.56714488321E+02  0.56714488321E+02  0.00000000000E+00 0. -1.
         21   -1    0    0  501  502 -0.00000000000E+00 -0.00000000000E+00 -0.92502248168E+03  0.92502248168E+03  0.00000000000E+00 0. -1.
      99926    2    1    2    0    0  0.14210854715E-13  0.00000000000E+00 -0.86830799336E+03  0.98173697000E+03  0.45809246549E+03 0.  0.
      99925    2    3    3    0    0 -0.10775738605E+03  0.42284905481E+02 -0.52729178932E+03  0.60050314805E+03  0.26299758983E+03 0.  0.
         25    1    3    3    0    0  0.10775738605E+03 -0.42284905481E+02 -0.34101620404E+03  0.38123382195E+03  0.12509000000E+03 0.  0.
         25    1    4    4    0    0 -0.58888013488E+02 -0.19625283015E+00 -0.18998268230E+03  0.23496545346E+03  0.12509000000E+03 0.  0.
         25    1    4    4    0    0 -0.48869372564E+02  0.42481158311E+02 -0.33730910702E+03  0.36553769459E+03  0.12509000000E+03 0.  0.
<mgrwt>
<rscale>  2 0.45809247E+03</rscale>
<asrwt>0</asrwt>
<pdfrwt beam="1">  1       21 0.83403665E-02 0.45809247E+03</pdfrwt>
<pdfrwt beam="2">  1       21 0.13603271E+00 0.45809247E+03</pdfrwt>
<totfact> 0.38931865E+04</totfact>
</mgrwt>
</event>
<event>
 7    0  0.4831799E-002  0.4376135E+03  0.7546771E-02  0.1031482E+00
         21   -1    0    0  502  501  0.00000000000E+00  0.00000000000E+00  0.11677903170E+04  0.11677903170E+04  0.00000000000E+00 0. -1.
         21   -1    0    0  501  502 -0.00000000000E+00 -0.00000000000E+00 -0.40997420467E+02  0.40997420467E+02  0.00000000000E+00 0. -1.
      99926    2    1    2    0    0  0.00000000000E+00 -0.35527136788E-14  0.11267928966E+04  0.12087877375E+04  0.43761348537E+03 0.  0.
      99925    2    3    3    0    0 -0.92815953874E+02  0.23771192694E+02  0.70686916053E+03  0.76027539309E+03  0.26301101183E+03 0.  0.
         25    1    4    4    0    0 -0.20496303614E+02  0.43263630939E+02  0.32479862083E+03  0.35133102968E+03  0.12509000000E+03 0.  0.
         25    1    3    3    0    0  0.92815953874E+02 -0.23771192694E+02  0.41992373603E+03  0.44851234440E+03  0.12509000000E+03 0.  0.
         25    1    4    4    0    0 -0.72319650259E+02 -0.19492438245E+02  0.38207053970E+03  0.40894436342E+03  0.12509000000E+03 0.  0.
<mgrwt>
<rscale>  2 0.43761349E+03</rscale>
<asrwt>0</asrwt>
<pdfrwt beam="1">  1       21 0.17173385E+00 0.43761349E+03</pdfrwt>
<pdfrwt beam="2">  1       21 0.60290332E-02 0.43761349E+03</pdfrwt>
<totfact> 0.36587605E+04</totfact>
</mgrwt>
</event>
<event>
 7    0  0.4831799E-002  0.4558831E+03  0.7546771E-02  0.1025982E+00
         21   -1    0    0  502  501  0.00000000000E+00  0.00000000000E+00  0.14763813050E+03  0.14763813050E+03  0.00000000000E+00 0.  1.
         21   -1    0    0  501  502 -0.00000000000E+00 -0.00000000000E+00 -0.35192372249E+03  0.35192372249E+03  0.00000000000E+00 0.  1.
      99926    2    1    2    0    0  0.35527136788E-14  0.00000000000E+00 -0.20428559199E+03  0.49956185299E+03  0.45588314496E+03 0.  0.
      99925    2    3    3    0    0 -0.23222195212E+02 -0.83362137074E+02 -0.20849831828E+03  0.34739821932E+03  0.26405578542E+03 0.  0.
         25    1    4    4    0    0 -0.39205206097E+02 -0.15488005294E+02 -0.12403929456E+03  0.18113580868E+03  0.12509000000E+03 0.  0.
         25    1    3    3    0    0  0.23222195212E+02  0.83362137074E+02  0.42127262874E+01  0.15216363367E+03  0.12509000000E+03 0.  0.
         25    1    4    4    0    0  0.15983010885E+02 -0.67874131780E+02 -0.84459023720E+02  0.16626241063E+03  0.12509000000E+03 0.  0.
<mgrwt>
<rscale>  2 0.45588314E+03</rscale>
<asrwt>0</asrwt>
<pdfrwt beam="1">  1       21 0.21711490E-01 0.45588314E+03</pdfrwt>
<pdfrwt beam="2">  1       21 0.51753489E-01 0.45588314E+03</pdfrwt>
<totfact> 0.64845655E+04</totfact>
</mgrwt>
</event>
<event>
 7    0  0.4831799E-002  0.4566881E+03  0.7546771E-02  0.1025746E+00
         21   -1    0    0  502  501  0.00000000000E+00  0.00000000000E+00  0.56768126437E+02  0.56768126437E+02  0.00000000000E+00 0. -1.
         21   -1    0    0  501  502 -0.00000000000E+00 -0.00000000000E+00 -0.91849082844E+03  0.91849082844E+03  0.00000000000E+00 0. -1.
      99926    2    1    2    0    0  0.00000000000E+00  0.00000000000E+00 -0.86172270200E+03  0.97525895488E+03  0.45668809260E+03 0.  0.
      99925    2    3    3    0    0 -0.99927407506E+02  0.29657445423E+02 -0.43866146735E+03  0.52194519245E+03  0.26294077307E+03 0.  0.
         25    1    3    3    0    0  0.99927407506E+02 -0.29657445423E+02 -0.42306123466E+03  0.45331376243E+03  0.12509000000E+03 0.  0.
         25    1    4    4    0    0 -0.30319856827E+02  0.35066499928E+02 -0.15759491733E+03  0.20647667956E+03  0.12509000000E+03 0.  0.
         25    1    4    4    0    0 -0.69607550679E+02 -0.54090545051E+01 -0.28106655002E+03  0.31546851288E+03  0.12509000000E+03 0.  0.
<mgrwt>
<rscale>  2 0.45668809E+03</rscale>
<asrwt>0</asrwt>
<pdfrwt beam="1">  1       21 0.83482539E-02 0.45668809E+03</pdfrwt>
<pdfrwt beam="2">  1       21 0.13507218E+00 0.45668809E+03</pdfrwt>
<totfact> 0.39609235E+04</totfact>
</mgrwt>
</event>
<event>
 7    0  0.4831799E-002  0.4245016E+03  0.7546771E-02  0.1035611E+00
         21   -1    0    0  502  501  0.00000000000E+00  0.00000000000E+00  0.49176923105E+02  0.49176923105E+02  0.00000000000E+00 0. -1.
         21   -1    0    0  501  502 -0.00000000000E+00 -0.00000000000E+00 -0.91608829224E+03  0.91608829224E+03  0.00000000000E+00 0. -1.
      99926    2    1    2    0    0  0.00000000000E+00  0.13322676296E-14 -0.86691136914E+03  0.96526521535E+03  0.42450160662E+03 0.  0.
      99925    2    3    3    0    0 -0.44767072798E+02  0.19457498959E+01 -0.71659412036E+03  0.76463954368E+03  0.26298026862E+03 0.  0.
         25    1    4    4    0    0  0.50813715130E+01  0.25014032321E+02 -0.29435811459E+03  0.32085156985E+03  0.12509000000E+03 0.  0.
         25    1    4    4    0    0 -0.49848444311E+02 -0.23068282425E+02 -0.42223600577E+03  0.44378797384E+03  0.12509000000E+03 0.  0.
         25    1    3    3    0    0  0.44767072798E+02 -0.19457498959E+01 -0.15031724878E+03  0.20062567166E+03  0.12509000000E+03 0.  0.
<mgrwt>
<rscale>  2 0.42450161E+03</rscale>
<asrwt>0</asrwt>
<pdfrwt beam="1">  1       21 0.72319014E-02 0.42450161E+03</pdfrwt>
<pdfrwt beam="2">  1       21 0.13471885E+00 0.42450161E+03</pdfrwt>
<totfact> 0.51826465E+04</totfact>
</mgrwt>
</event>
<event>
 7    0  0.4831799E-002  0.4561911E+03  0.7546771E-02  0.1025892E+00
         21   -1    0    0  502  501  0.00000000000E+00  0.00000000000E+00  0.95689479555E+03  0.95689479555E+03  0.00000000000E+00 0. -1.
         21   -1    0    0  501  502 -0.00000000000E+00 -0.00000000000E+00 -0.54371261188E+02  0.54371261188E+02  0.00000000000E+00 0. -1.
      99926    2    1    2    0    0  0.00000000000E+00  0.00000000000E+00  0.90252353437E+03  0.10112660567E+04  0.45619108654E+03 0.  0.
      99925    2    3    3    0    0 -0.46688739723E+02  0.82458236755E+02  0.42475889155E+03  0.50838857539E+03  0.26279198696E+03 0.  0.
         25    1    4    4    0    0  0.16864742452E+02  0.35382840839E+02  0.21072338643E+03  0.24816973759E+03  0.12509000000E+03 0.  0.
         25    1    4    4    0    0 -0.63553482176E+02  0.47075395916E+02  0.21403550512E+03  0.26021883780E+03  0.12509000000E+03 0.  0.
         25    1    3    3    0    0  0.46688739723E+02 -0.82458236755E+02  0.47776464282E+03  0.50287748135E+03  0.12509000000E+03 0.  0.
<mgrwt>
<rscale>  2 0.45619109E+03</rscale>
<asrwt>0</asrwt>
<pdfrwt beam="1">  1       21 0.14071981E+00 0.45619109E+03</pdfrwt>
<pdfrwt beam="2">  1       21 0.79957743E-02 0.45619109E+03</pdfrwt>
<totfact> 0.38373278E+04</totfact>
</mgrwt>
</event>
<event>
 7    0  0.4831799E-002  0.4507409E+03  0.7546771E-02  0.1027501E+00
         21   -1    0    0  502  501  0.00000000000E+00  0.00000000000E+00  0.14045693671E+04  0.14045693671E+04  0.00000000000E+00 0. -1.
         21   -1    0    0  501  502 -0.00000000000E+00 -0.00000000000E+00 -0.36161852568E+02  0.36161852568E+02  0.00000000000E+00 0. -1.
      99926    2    1    2    0    0 -0.14210854715E-13 -0.88817841970E-15  0.13684075146E+04  0.14407312197E+04  0.45074085848E+03 0.  0.
      99925    2    3    3    0    0 -0.10120502287E+03 -0.56386811930E+01  0.73493712690E+03  0.78712086825E+03  0.26296849499E+03 0.  0.
         25    1    4    4    0    0 -0.95619740252E+01 -0.15644937221E+02  0.32630548081E+03  0.34994138126E+03  0.12509000000E+03 0.  0.
         25    1    3    3    0    0  0.10120502287E+03  0.56386811930E+01  0.63347038767E+03  0.65361035146E+03  0.12509000000E+03 0.  0.
         25    1    4    4    0    0 -0.91643048843E+02  0.10006256028E+02  0.40863164609E+03  0.43717948699E+03  0.12509000000E+03 0.  0.
<mgrwt>
<rscale>  2 0.45074086E+03</rscale>
<asrwt>0</asrwt>
<pdfrwt beam="1">  1       21 0.20655428E+00 0.45074086E+03</pdfrwt>
<pdfrwt beam="2">  1       21 0.53179204E-02 0.45074086E+03</pdfrwt>
<totfact> 0.26120301E+04</totfact>
</mgrwt>
</event>
<event>
 7    0  0.4831799E-002  0.4538424E+03  0.7546771E-02  0.1026582E+00
         21   -1    0    0  502  501  0.00000000000E+00  0.00000000000E+00  0.16560531393E+03  0.16560531393E+03  0.00000000000E+00 0. -1.
         21   -1    0    0  501  502 -0.00000000000E+00 -0.00000000000E+00 -0.31093951946E+03  0.31093951946E+03  0.00000000000E+00 0. -1.
      99926    2    1    2    0    0  0.00000000000E+00  0.00000000000E+00 -0.14533420554E+03  0.47654483339E+03  0.45384242522E+03 0.  0.
      99925    2    3    3    0    0  0.56795640623E+02  0.96178678341E+02 -0.10055235165E+03  0.30296774533E+03  0.26306386359E+03 0.  0.
         25    1    4    4    0    0  0.18737388229E+02  0.10551633513E+02 -0.24972399613E+02  0.12935824492E+03  0.12509000000E+03 0.  0.
         25    1    3    3    0    0 -0.56795640623E+02 -0.96178678341E+02 -0.44781853883E+02  0.17357708806E+03  0.12509000000E+03 0.  0.
         25    1    4    4    0    0  0.38058252395E+02  0.85627044828E+02 -0.75579952039E+02  0.17360950041E+03  0.12509000000E+03 0.  0.
<mgrwt>
<rscale>  2 0.45384243E+03</rscale>
<asrwt>0</asrwt>
<pdfrwt beam="1">  1       21 0.24353723E-01 0.45384243E+03</pdfrwt>
<pdfrwt beam="2">  1       21 0.45726400E-01 0.45384243E+03</pdfrwt>
<totfact> 0.67571140E+04</totfact>
</mgrwt>
</event>
<event>
 7    0  0.4831799E-002  0.4454298E+03  0.7546771E-02  0.1029094E+00
         21   -1    0    0  502  501  0.00000000000E+00  0.00000000000E+00  0.13342134110E+04  0.13342134110E+04  0.00000000000E+00 0. -1.
         21   -1    0    0  501  502 -0.00000000000E+00 -0.00000000000E+00 -0.37176908364E+02  0.37176908364E+02  0.00000000000E+00 0. -1.
      99926    2    1    2    0    0 -0.71054273576E-14  0.00000000000E+00  0.12970365027E+04  0.13713903194E+04  0.44542981364E+03 0.  0.
      99925    2    3    3    0    0 -0.50649433585E+02  0.76035009301E+02  0.98067318375E+03  0.10191404856E+04  0.26187926278E+03 0.  0.
         25    1    3    3    0    0  0.50649433585E+02 -0.76035009301E+02  0.31636331893E+03  0.35224983382E+03  0.12509000000E+03 0.  0.
         25    1    4    4    0    0  0.78870046071E+01  0.28472976678E+02  0.53116846619E+03  0.54649827339E+03  0.12509000000E+03 0.  0.
         25    1    4    4    0    0 -0.58536438192E+02  0.47562032624E+02  0.44950471756E+03  0.47264221220E+03  0.12509000000E+03 0.  0.
<mgrwt>
<rscale>  2 0.44542981E+03</rscale>
<asrwt>0</asrwt>
<pdfrwt beam="1">  1       21 0.19620782E+00 0.44542981E+03</pdfrwt>
<pdfrwt beam="2">  1       21 0.54671933E-02 0.44542981E+03</pdfrwt>
<totfact> 0.29218150E+04</totfact>
</mgrwt>
</event>
<event>
 7    0  0.4831799E-002  0.4549811E+03  0.7546771E-02  0.1026247E+00
         21   -1    0    0  502  501  0.00000000000E+00  0.00000000000E+00  0.62872375968E+02  0.62872375968E+02  0.00000000000E+00 0. -1.
         21   -1    0    0  501  502 -0.00000000000E+00 -0.00000000000E+00 -0.82312714865E+03  0.82312714865E+03  0.00000000000E+00 0. -1.
      99926    2    1    2    0    0  0.14210854715E-13 -0.71054273576E-14 -0.76025477268E+03  0.88599952461E+03  0.45498114053E+03 0.  0.
      99925    2    3    3    0    0 -0.88099272597E+02  0.60280511956E+02 -0.55141402160E+03  0.62018532378E+03  0.26301557114E+03 0.  0.
         25    1    4    4    0    0 -0.21922367700E+02  0.21410419443E+02 -0.18444539453E+03  0.22495912502E+03  0.12509000000E+03 0.  0.
         25    1    4    4    0    0 -0.66176904896E+02  0.38870092514E+02 -0.36696862706E+03  0.39522619876E+03  0.12509000000E+03 0.  0.
         25    1    3    3    0    0  0.88099272597E+02 -0.60280511956E+02 -0.20884075108E+03  0.26581420083E+03  0.12509000000E+03 0.  0.
<mgrwt>
<rscale>  2 0.45498114E+03</rscale>
<asrwt>0</asrwt>
<pdfrwt beam="1">  1       21 0.92459375E-02 0.45498114E+03</pdfrwt>
<pdfrwt beam="2">  1       21 0.12104811E+00 0.45498114E+03</pdfrwt>
<totfact> 0.43851045E+04</totfact>
</mgrwt>
</event>
<event>
 7    0  0.4831799E-002  0.4506572E+03  0.7546771E-02  0.1027526E+00
         21   -1    0    0  502  501  0.00000000000E+00  0.00000000000E+00  0.20123012189E+04  0.20123012189E+04  0.00000000000E+00 0. -1.
         21   -1    0    0  501  502 -0.00000000000E+00 -0.00000000000E+00 -0.25231296428E+02  0.25231296428E+02  0.00000000000E+00 0. -1.
      99926    2    1    2    0    0  0.00000000000E+00  0.00000000000E+00  0.19870699224E+04  0.20375325153E+04  0.45065715819E+03 0.  0.
      99925    2    3    3    0    0  0.45832107688E+02  0.72507600676E+02  0.94809874709E+03  0.98754844611E+03  0.26268377361E+03 0.  0.
         25    1    4    4    0    0  0.27865308620E+02  0.77627253181E+02  0.50764516160E+03  0.52929536561E+03  0.12509000000E+03 0.  0.
         25    1    3    3    0    0 -0.45832107688E+02 -0.72507600676E+02  0.10389711753E+04  0.10499840692E+04  0.12509000000E+03 0.  0.
         25    1    4    4    0    0  0.17966799068E+02 -0.51196525049E+01  0.44045358550E+03  0.45825308050E+03  0.12509000000E+03 0.  0.
<mgrwt>
<rscale>  2 0.45065716E+03</rscale>
<asrwt>0</asrwt>
<pdfrwt beam="1">  1       21 0.29592654E+00 0.45065716E+03</pdfrwt>
<pdfrwt beam="2">  1       21 0.37104861E-02 0.45065716E+03</pdfrwt>
<totfact> 0.13557931E+04</totfact>
</mgrwt>
</event>
<event>
 7    0  0.4831799E-002  0.4563959E+03  0.7546771E-02  0.1025832E+00
         21   -1    0    0  502  501  0.00000000000E+00  0.00000000000E+00  0.21251634658E+03  0.21251634658E+03  0.00000000000E+00 0. -1.
         21   -1    0    0  501  502 -0.00000000000E+00 -0.00000000000E+00 -0.24503665890E+03  0.24503665890E+03  0.00000000000E+00 0. -1.
      99926    2    1    2    0    0  0.35527136788E-14 -0.71054273576E-14 -0.32520312323E+02  0.45755300548E+03  0.45639586118E+03 0.  0.
      99925    2    3    3    0    0 -0.24708935561E+02  0.49814909810E+02 -0.12060206374E+03  0.29477106615E+03  0.26315977452E+03 0.  0.
         25    1    4    4    0    0 -0.48039672537E+02  0.27333979683E+02 -0.83900000063E+02  0.16044212257E+03  0.12509000000E+03 0.  0.
         25    1    4    4    0    0  0.23330736976E+02  0.22480930127E+02 -0.36702063680E+02  0.13432894359E+03  0.12509000000E+03 0.  0.
         25    1    3    3    0    0  0.24708935561E+02 -0.49814909810E+02  0.88081751421E+02  0.16278193932E+03  0.12509000000E+03 0.  0.
<mgrwt>
<rscale>  2 0.45639586E+03</rscale>
<asrwt>0</asrwt>
<pdfrwt beam="1">  1       21 0.31252404E-01 0.45639586E+03</pdfrwt>
<pdfrwt beam="2">  1       21 0.36034803E-01 0.45639586E+03</pdfrwt>
<totfact> 0.67603146E+04</totfact>
</mgrwt>
</event>
<event>
 7    0  0.4831799E-002  0.4532925E+03  0.7546771E-02  0.1026745E+00
         21   -1    0    0  502  501  0.00000000000E+00  0.00000000000E+00  0.29149454166E+03  0.29149454166E+03  0.00000000000E+00 0.  1.
         21   -1    0    0  501  502 -0.00000000000E+00 -0.00000000000E+00 -0.17622461378E+03  0.17622461378E+03  0.00000000000E+00 0.  1.
      99926    2    1    2    0    0  0.00000000000E+00  0.88817841970E-15  0.11526992788E+03  0.46771915544E+03  0.45329245757E+03 0.  0.
      99925    2    3    3    0    0  0.10975811031E+03  0.55936578185E+01  0.53352597303E+02  0.29006951229E+03  0.26308875030E+03 0.  0.
         25    1    3    3    0    0 -0.10975811031E+03 -0.55936578185E+01  0.61917330574E+02  0.17764964315E+03  0.12509000000E+03 0.  0.
         25    1    4    4    0    0  0.97083484706E+02  0.13515721736E+02  0.24078659297E+02  0.16073321894E+03  0.12509000000E+03 0.  0.
         25    1    4    4    0    0  0.12674625601E+02 -0.79220639171E+01  0.29273938005E+02  0.12933629335E+03  0.12509000000E+03 0.  0.
<mgrwt>
<rscale>  2 0.45329246E+03</rscale>
<asrwt>0</asrwt>
<pdfrwt beam="1">  1       21 0.42866845E-01 0.45329246E+03</pdfrwt>
<pdfrwt beam="2">  1       21 0.25915384E-01 0.45329246E+03</pdfrwt>
<totfact> 0.68529327E+04</totfact>
</mgrwt>
</event>
<event>
 7    0  0.4831799E-002  0.4550488E+03  0.7546771E-02  0.1026227E+00
         21   -1    0    0  502  501  0.00000000000E+00  0.00000000000E+00  0.18553511125E+04  0.18553511125E+04  0.00000000000E+00 0.  1.
         21   -1    0    0  501  502 -0.00000000000E+00 -0.00000000000E+00 -0.27901641858E+02  0.27901641858E+02  0.00000000000E+00 0.  1.
      99926    2    1    2    0    0  0.44408920985E-15  0.00000000000E+00  0.18274494706E+04  0.18832527543E+04  0.45504875458E+03 0.  0.
      99925    2    3    3    0    0  0.37583375201E+01 -0.11074709911E+03  0.12446844368E+04  0.12770006304E+04  0.26308215011E+03 0.  0.
         25    1    4    4    0    0  0.58657878173E+01 -0.68254907626E+02  0.81756870407E+03  0.82991519679E+03  0.12509000000E+03 0.  0.
         25    1    4    4    0    0 -0.21074502972E+01 -0.42492191483E+02  0.42711573278E+03  0.44708543364E+03  0.12509000000E+03 0.  0.
         25    1    3    3    0    0 -0.37583375201E+01  0.11074709911E+03  0.58276503378E+03  0.60625212392E+03  0.12509000000E+03 0.  0.
<mgrwt>
<rscale>  2 0.45504875E+03</rscale>
<asrwt>0</asrwt>
<pdfrwt beam="1">  1       21 0.27284567E+00 0.45504875E+03</pdfrwt>
<pdfrwt beam="2">  1       21 0.41031839E-02 0.45504875E+03</pdfrwt>
<totfact> 0.15705038E+04</totfact>
</mgrwt>
</event>
<event>
 7    0  0.4831799E-002  0.4516787E+03  0.7546771E-02  0.1027223E+00
         21   -1    0    0  502  501  0.00000000000E+00  0.00000000000E+00  0.81413469821E+03  0.81413469821E+03  0.00000000000E+00 0. -1.
         21   -1    0    0  501  502 -0.00000000000E+00 -0.00000000000E+00 -0.62647382144E+02  0.62647382144E+02  0.00000000000E+00 0. -1.
      99926    2    1    2    0    0 -0.35527136788E-14  0.00000000000E+00  0.75148731606E+03  0.87678208035E+03  0.45167868028E+03 0.  0.
      99925    2    3    3    0    0 -0.31413180791E+02  0.61485549639E+02  0.64056911457E+03  0.69590196462E+03  0.26302755196E+03 0.  0.
         25    1    4    4    0    0 -0.44109816809E+02  0.44572978068E+02  0.26808998918E+03  0.30241060946E+03  0.12509000000E+03 0.  0.
         25    1    4    4    0    0  0.12696636019E+02  0.16912571572E+02  0.37247912539E+03  0.39349135517E+03  0.12509000000E+03 0.  0.
         25    1    3    3    0    0  0.31413180791E+02 -0.61485549639E+02  0.11091820149E+03  0.18088011573E+03  0.12509000000E+03 0.  0.
<mgrwt>
<rscale>  2 0.45167868E+03</rscale>
<asrwt>0</asrwt>
<pdfrwt beam="1">  1       21 0.11972568E+00 0.45167868E+03</pdfrwt>
<pdfrwt beam="2">  1       21 0.92128508E-02 0.45167868E+03</pdfrwt>
<totfact> 0.45422946E+04</totfact>
</mgrwt>
</event>
<event>
 7    0  0.4831799E-002  0.4532873E+03  0.7546771E-02  0.1026746E+00
         21   -1    0    0  502  501  0.00000000000E+00  0.00000000000E+00  0.13544883730E+03  0.13544883730E+03  0.00000000000E+00 0.  1.
         21   -1    0    0  501  502 -0.00000000000E+00 -0.00000000000E+00 -0.37923795821E+03  0.37923795821E+03  0.00000000000E+00 0.  1.
      99926    2    1    2    0    0  0.00000000000E+00  0.00000000000E+00 -0.24378912091E+03  0.51468679551E+03  0.45328728418E+03 0.  0.
      99925    2    3    3    0    0  0.26613583760E+02  0.38907173321E+02 -0.26861302259E+03  0.37872435522E+03  0.26278723400E+03 0.  0.
         25    1    4    4    0    0  0.15119542797E+02  0.13234272458E+02 -0.18987902683E+03  0.22826585262E+03  0.12509000000E+03 0.  0.
         25    1    4    4    0    0  0.11494040964E+02  0.25672900863E+02 -0.78733995753E+02  0.15045850260E+03  0.12509000000E+03 0.  0.
         25    1    3    3    0    0 -0.26613583760E+02 -0.38907173321E+02  0.24823901676E+02  0.13596244029E+03  0.12509000000E+03 0.  0.
<mgrwt>
<rscale>  2 0.45328728E+03</rscale>
<asrwt>0</asrwt>
<pdfrwt beam="1">  1       21 0.19918947E-01 0.45328728E+03</pdfrwt>
<pdfrwt beam="2">  1       21 0.55770288E-01 0.45328728E+03</pdfrwt>
<totfact> 0.65131367E+04</totfact>
</mgrwt>
</event>
<event>
 7    0  0.4831799E-002  0.4665488E+03  0.7546771E-02  0.1022899E+00
         21   -1    0    0  502  501  0.00000000000E+00  0.00000000000E+00  0.69110852208E+02  0.69110852208E+02  0.00000000000E+00 0. -1.
         21   -1    0    0  501  502 -0.00000000000E+00 -0.00000000000E+00 -0.78738654771E+03  0.78738654771E+03  0.00000000000E+00 0. -1.
      99926    2    1    2    0    0  0.00000000000E+00 -0.14210854715E-13 -0.71827569550E+03  0.85649739992E+03  0.46654884130E+03 0.  0.
      99925    2    3    3    0    0  0.41716867232E+02 -0.11394176969E+03 -0.49137678538E+03  0.57039663549E+03  0.26301739995E+03 0.  0.
         25    1    4    4    0    0  0.63146346205E+01 -0.50582172917E+02 -0.16377270451E+03  0.21229092696E+03  0.12509000000E+03 0.  0.
         25    1    4    4    0    0  0.35402232612E+02 -0.63359596777E+02 -0.32760408087E+03  0.35810570853E+03  0.12509000000E+03 0.  0.
         25    1    3    3    0    0 -0.41716867232E+02  0.11394176969E+03 -0.22689891012E+03  0.28610076443E+03  0.12509000000E+03 0.  0.
<mgrwt>
<rscale>  2 0.46654884E+03</rscale>
<asrwt>0</asrwt>
<pdfrwt beam="1">  1       21 0.10163361E-01 0.46654884E+03</pdfrwt>
<pdfrwt beam="2">  1       21 0.11579214E+00 0.46654884E+03</pdfrwt>
<totfact> 0.41281346E+04</totfact>
</mgrwt>
</event>
<event>
 7    0  0.4831799E-002  0.4453090E+03  0.7546771E-02  0.1029130E+00
         21   -1    0    0  502  501  0.00000000000E+00  0.00000000000E+00  0.83635009271E+02  0.83635009271E+02  0.00000000000E+00 0.  1.
         21   -1    0    0  501  502 -0.00000000000E+00 -0.00000000000E+00 -0.59275460077E+03  0.59275460077E+03  0.00000000000E+00 0.  1.
      99926    2    1    2    0    0 -0.17763568394E-14  0.00000000000E+00 -0.50911959150E+03  0.67638961004E+03  0.44530904563E+03 0.  0.
      99925    2    3    3    0    0  0.83842395516E+01 -0.48949799063E+02 -0.18477028657E+03  0.32522532084E+03  0.26299253262E+03 0.  0.
         25    1    3    3    0    0 -0.83842395516E+01  0.48949799063E+02 -0.32434930493E+03  0.35116428920E+03  0.12509000000E+03 0.  0.
         25    1    4    4    0    0  0.38969696199E+02 -0.43144102606E+02 -0.10800688948E+03  0.17519431237E+03  0.12509000000E+03 0.  0.
         25    1    4    4    0    0 -0.30585456648E+02 -0.58056964575E+01 -0.76763397090E+02  0.15003100847E+03  0.12509000000E+03 0.  0.
<mgrwt>
<rscale>  2 0.44530905E+03</rscale>
<asrwt>0</asrwt>
<pdfrwt beam="1">  1       21 0.12299266E-01 0.44530905E+03</pdfrwt>
<pdfrwt beam="2">  1       21 0.87169794E-01 0.44530905E+03</pdfrwt>
<totfact> 0.58545859E+04</totfact>
</mgrwt>
</event>
<event>
 7    0  0.4831799E-002  0.4971249E+03  0.7546771E-02  0.1014532E+00
         21   -1    0    0  502  501  0.00000000000E+00  0.00000000000E+00  0.19030218872E+03  0.19030218872E+03  0.00000000000E+00 0. -1.
         21   -1    0    0  501  502 -0.00000000000E+00 -0.00000000000E+00 -0.32465883645E+03  0.32465883645E+03  0.00000000000E+00 0. -1.
      99926    2    1    2    0    0 -0.14210854715E-13  0.00000000000E+00 -0.13435664773E+03  0.51496102517E+03  0.49712488235E+03 0.  0.
      99925    2    3    3    0    0 -0.94389292586E+02  0.27604484753E+02 -0.19784406765E+03  0.34364404784E+03  0.26320640261E+03 0.  0.
         25    1    4    4    0    0 -0.51992293008E+01  0.27145023728E+01 -0.83285962357E+02  0.15039434874E+03  0.12509000000E+03 0.  0.
         25    1    4    4    0    0 -0.89190063285E+02  0.24889982380E+02 -0.11455810529E+03  0.19324969909E+03  0.12509000000E+03 0.  0.
         25    1    3    3    0    0  0.94389292586E+02 -0.27604484753E+02  0.63487419919E+02  0.17131697733E+03  0.12509000000E+03 0.  0.
<mgrwt>
<rscale>  2 0.49712488E+03</rscale>
<asrwt>0</asrwt>
<pdfrwt beam="1">  1       21 0.27985616E-01 0.49712488E+03</pdfrwt>
<pdfrwt beam="2">  1       21 0.47743946E-01 0.49712488E+03</pdfrwt>
<totfact> 0.46590170E+04</totfact>
</mgrwt>
</event>
<event>
 7    0  0.4831799E-002  0.4530777E+03  0.7546771E-02  0.1026808E+00
         21   -1    0    0  502  501  0.00000000000E+00  0.00000000000E+00  0.85092194654E+02  0.85092194654E+02  0.00000000000E+00 0.  1.
         21   -1    0    0  501  502 -0.00000000000E+00 -0.00000000000E+00 -0.60310865921E+03  0.60310865921E+03  0.00000000000E+00 0.  1.
      99926    2    1    2    0    0  0.71054273576E-14 -0.17763568394E-14 -0.51801646456E+03  0.68820085387E+03  0.45307765086E+03 0.  0.
      99925    2    3    3    0    0 -0.49300539757E+02 -0.87757994601E+01 -0.47762216655E+03  0.54753541643E+03  0.26299152152E+03 0.  0.
         25    1    3    3    0    0  0.49300539757E+02  0.87757994601E+01 -0.40394298007E+02  0.14066543743E+03  0.12509000000E+03 0.  0.
         25    1    4    4    0    0 -0.36722922493E+02 -0.34360095266E+02 -0.19402473620E+03  0.23626742378E+03  0.12509000000E+03 0.  0.
         25    1    4    4    0    0 -0.12577617265E+02  0.25584295805E+02 -0.28359743035E+03  0.31126799265E+03  0.12509000000E+03 0.  0.
<mgrwt>
<rscale>  2 0.45307765E+03</rscale>
<asrwt>0</asrwt>
<pdfrwt beam="1">  1       21 0.12513558E-01 0.45307765E+03</pdfrwt>
<pdfrwt beam="2">  1       21 0.88692452E-01 0.45307765E+03</pdfrwt>
<totfact> 0.54366497E+04</totfact>
</mgrwt>
</event>
<event>
 7    0  0.4831799E-002  0.4496179E+03  0.7546771E-02  0.1027836E+00
         21   -1    0    0  502  501  0.00000000000E+00  0.00000000000E+00  0.49679579720E+03  0.49679579720E+03  0.00000000000E+00 0.  1.
         21   -1    0    0  501  502 -0.00000000000E+00 -0.00000000000E+00 -0.10173005837E+03  0.10173005837E+03  0.00000000000E+00 0.  1.
      99926    2    1    2    0    0 -0.71054273576E-14  0.35527136788E-14  0.39506573883E+03  0.59852585557E+03  0.44961790644E+03 0.  0.
      99925    2    3    3    0    0  0.37141097211E+02 -0.31551706544E+02  0.12152793235E+03  0.29382040606E+03  0.26303311842E+03 0.  0.
         25    1    4    4    0    0  0.40254769149E+02 -0.12565550208E+02  0.99617586145E+02  0.16537687583E+03  0.12509000000E+03 0.  0.
         25    1    3    3    0    0 -0.37141097211E+02  0.31551706544E+02  0.27353780649E+03  0.30470544952E+03  0.12509000000E+03 0.  0.
         25    1    4    4    0    0 -0.31136719375E+01 -0.18986156335E+02  0.21910346205E+02  0.12844353022E+03  0.12509000000E+03 0.  0.
<mgrwt>
<rscale>  2 0.44961791E+03</rscale>
<asrwt>0</asrwt>
<pdfrwt beam="1">  1       21 0.73058204E-01 0.44961791E+03</pdfrwt>
<pdfrwt beam="2">  1       21 0.14960303E-01 0.44961791E+03</pdfrwt>
<totfact> 0.61336161E+04</totfact>
</mgrwt>
</event>
<event>
 7    0  0.4831799E-002  0.4530354E+03  0.7546771E-02  0.1026821E+00
         21   -1    0    0  502  501  0.00000000000E+00  0.00000000000E+00  0.54568574438E+03  0.54568574438E+03  0.00000000000E+00 0.  1.
         21   -1    0    0  501  502 -0.00000000000E+00 -0.00000000000E+00 -0.94028977138E+02  0.94028977138E+02  0.00000000000E+00 0.  1.
      99926    2    1    2    0    0  0.00000000000E+00 -0.44408920985E-15  0.45165676724E+03  0.63971472152E+03  0.45303541752E+03 0.  0.
      99925    2    3    3    0    0 -0.10757299848E+03 -0.33657154717E+01  0.24475058190E+03  0.37506220278E+03  0.26303142506E+03 0.  0.
         25    1    4    4    0    0 -0.87417219543E+02  0.21861555018E+02  0.11872972210E+03  0.19458662048E+03  0.12509000000E+03 0.  0.
         25    1    4    4    0    0 -0.20155778935E+02 -0.25227270489E+02  0.12602085980E+03  0.18047558230E+03  0.12509000000E+03 0.  0.
         25    1    3    3    0    0  0.10757299848E+03  0.33657154717E+01  0.20690618534E+03  0.26465251874E+03  0.12509000000E+03 0.  0.
<mgrwt>
<rscale>  2 0.45303542E+03</rscale>
<asrwt>0</asrwt>
<pdfrwt beam="1">  1       21 0.80247902E-01 0.45303542E+03</pdfrwt>
<pdfrwt beam="2">  1       21 0.13827791E-01 0.45303542E+03</pdfrwt>
<totfact> 0.57179281E+04</totfact>
</mgrwt>
</event>
<event>
 7    0  0.4831799E-002  0.4542474E+03  0.7546771E-02  0.1026463E+00
         21   -1    0    0  502  501  0.00000000000E+00  0.00000000000E+00  0.10047953272E+03  0.10047953272E+03  0.00000000000E+00 0. -1.
         21   -1    0    0  501  502 -0.00000000000E+00 -0.00000000000E+00 -0.51338987297E+03  0.51338987297E+03  0.00000000000E+00 0. -1.
      99926    2    1    2    0    0  0.00000000000E+00  0.00000000000E+00 -0.41291034025E+03  0.61386940569E+03  0.45424739752E+03 0.  0.
      99925    2    3    3    0    0  0.85869202850E+02 -0.23046308508E+02 -0.35316150836E+03  0.44918156963E+03  0.26293797590E+03 0.  0.
         25    1    3    3    0    0 -0.85869202850E+02  0.23046308508E+02 -0.59748831887E+02  0.16468783606E+03  0.12509000000E+03 0.  0.
         25    1    4    4    0    0  0.58089623659E+02 -0.44201839674E+02 -0.21811303091E+03  0.26181865739E+03  0.12509000000E+03 0.  0.
         25    1    4    4    0    0  0.27779579192E+02  0.21155531166E+02 -0.13504847745E+03  0.18736291224E+03  0.12509000000E+03 0.  0.
<mgrwt>
<rscale>  2 0.45424740E+03</rscale>
<asrwt>0</asrwt>
<pdfrwt beam="1">  1       21 0.14776401E-01 0.45424740E+03</pdfrwt>
<pdfrwt beam="2">  1       21 0.75498513E-01 0.45424740E+03</pdfrwt>
<totfact> 0.58177630E+04</totfact>
</mgrwt>
</event>
<event>
 7    0  0.4831799E-002  0.4530406E+03  0.7546771E-02  0.1026819E+00
         21   -1    0    0  502  501  0.00000000000E+00  0.00000000000E+00  0.32972642469E+02  0.32972642469E+02  0.00000000000E+00 0.  1.
         21   -1    0    0  501  502 -0.00000000000E+00 -0.00000000000E+00 -0.15561823941E+04  0.15561823941E+04  0.00000000000E+00 0.  1.
      99926    2    1    2    0    0  0.00000000000E+00 -0.35527136788E-14 -0.15232097516E+04  0.15891550366E+04  0.45304059728E+03 0.  0.
      99925    2    3    3    0    0 -0.27083455377E+02  0.19380443977E+02 -0.13332557746E+04  0.13592873863E+04  0.26264447983E+03 0.  0.
         25    1    4    4    0    0 -0.44653267705E+02  0.33015438968E+02 -0.63741982039E+03  0.65194744348E+03  0.12509000000E+03 0.  0.
         25    1    4    4    0    0  0.17569812327E+02 -0.13634994991E+02 -0.69583595424E+03  0.70733994282E+03  0.12509000000E+03 0.  0.
         25    1    3    3    0    0  0.27083455377E+02 -0.19380443977E+02 -0.18995397699E+03  0.22986765026E+03  0.12509000000E+03 0.  0.
<mgrwt>
<rscale>  2 0.45304060E+03</rscale>
<asrwt>0</asrwt>
<pdfrwt beam="1">  1       21 0.48489187E-02 0.45304060E+03</pdfrwt>
<pdfrwt beam="2">  1       21 0.22885032E+00 0.45304060E+03</pdfrwt>
<totfact> 0.22008916E+04</totfact>
</mgrwt>
</event>
<event>
 7    0  0.4831799E-002  0.4543234E+03  0.7546771E-02  0.1026441E+00
         21   -1    0    0  502  501  0.00000000000E+00  0.00000000000E+00  0.91189563386E+03  0.91189563386E+03  0.00000000000E+00 0.  1.
         21   -1    0    0  501  502 -0.00000000000E+00 -0.00000000000E+00 -0.56588107278E+02  0.56588107278E+02  0.00000000000E+00 0.  1.
      99926    2    1    2    0    0  0.00000000000E+00  0.00000000000E+00  0.85530752658E+03  0.96848374114E+03  0.45432344406E+03 0.  0.
      99925    2    3    3    0    0 -0.92353935000E+02 -0.18154508369E+02  0.40697296548E+03  0.49360457518E+03  0.26298221712E+03 0.  0.
         25    1    4    4    0    0 -0.51046662967E+01 -0.96846933019E+01  0.20455091092E+03  0.24001757052E+03  0.12509000000E+03 0.  0.
         25    1    3    3    0    0  0.92353935000E+02  0.18154508369E+02  0.44833456110E+03  0.47487916596E+03  0.12509000000E+03 0.  0.
         25    1    4    4    0    0 -0.87249268703E+02 -0.84698150674E+01  0.20242205456E+03  0.25358700465E+03  0.12509000000E+03 0.  0.
<mgrwt>
<rscale>  2 0.45432344E+03</rscale>
<asrwt>0</asrwt>
<pdfrwt beam="1">  1       21 0.13410229E+00 0.45432344E+03</pdfrwt>
<pdfrwt beam="2">  1       21 0.83217810E-02 0.45432344E+03</pdfrwt>
<totfact> 0.40615701E+04</totfact>
</mgrwt>
</event>
<event>
 7    0  0.4831799E-002  0.4498683E+03  0.7546771E-02  0.1027761E+00
         21   -1    0    0  502  501  0.00000000000E+00  0.00000000000E+00  0.75255264746E+03  0.75255264746E+03  0.00000000000E+00 0.  1.
         21   -1    0    0  501  502 -0.00000000000E+00 -0.00000000000E+00 -0.67231674509E+02  0.67231674509E+02  0.00000000000E+00 0.  1.
      99926    2    1    2    0    0  0.00000000000E+00  0.00000000000E+00  0.68532097295E+03  0.81978432197E+03  0.44986831249E+03 0.  0.
      99925    2    3    3    0    0 -0.84418549484E+02 -0.53766257437E+02  0.50854073403E+03  0.58121344590E+03  0.26301728002E+03 0.  0.
         25    1    4    4    0    0 -0.42445379760E+01 -0.30284562347E+02  0.19853390831E+03  0.23663979308E+03  0.12509000000E+03 0.  0.
         25    1    3    3    0    0  0.84418549484E+02  0.53766257437E+02  0.17678023892E+03  0.23857087607E+03  0.12509000000E+03 0.  0.
         25    1    4    4    0    0 -0.80174011508E+02 -0.23481695090E+02  0.31000682572E+03  0.34457365282E+03  0.12509000000E+03 0.  0.
<mgrwt>
<rscale>  2 0.44986831E+03</rscale>
<asrwt>0</asrwt>
<pdfrwt beam="1">  1       21 0.11066950E+00 0.44986831E+03</pdfrwt>
<pdfrwt beam="2">  1       21 0.98870114E-02 0.44986831E+03</pdfrwt>
<totfact> 0.48756531E+04</totfact>
</mgrwt>
</event>
<event>
 7    0  0.4831799E-002  0.4555255E+03  0.7546771E-02  0.1026087E+00
         21   -1    0    0  502  501  0.00000000000E+00  0.00000000000E+00  0.12821740121E+04  0.12821740121E+04  0.00000000000E+00 0.  1.
         21   -1    0    0  501  502 -0.00000000000E+00 -0.00000000000E+00 -0.40459308035E+02  0.40459308035E+02  0.00000000000E+00 0.  1.
      99926    2    1    2    0    0  0.71054273576E-14  0.00000000000E+00  0.12417147041E+04  0.13226333202E+04  0.45552551328E+03 0.  0.
      99925    2    3    3    0    0  0.59298662514E+02  0.96787795178E+02  0.79655584189E+03  0.84650505029E+03  0.26303114313E+03 0.  0.
         25    1    4    4    0    0  0.53916551882E+02  0.49772127451E+02  0.51101290015E+03  0.53119295125E+03  0.12509000000E+03 0.  0.
         25    1    4    4    0    0  0.53821106316E+01  0.47015667727E+02  0.28554294174E+03  0.31531209904E+03  0.12509000000E+03 0.  0.
         25    1    3    3    0    0 -0.59298662514E+02 -0.96787795178E+02  0.44515886222E+03  0.47612826989E+03  0.12509000000E+03 0.  0.
<mgrwt>
<rscale>  2 0.45552551E+03</rscale>
<asrwt>0</asrwt>
<pdfrwt beam="1">  1       21 0.18855498E+00 0.45552551E+03</pdfrwt>
<pdfrwt beam="2">  1       21 0.59498991E-02 0.45552551E+03</pdfrwt>
<totfact> 0.28348405E+04</totfact>
</mgrwt>
</event>
<event>
 7    0  0.4831799E-002  0.4546948E+03  0.7546771E-02  0.1026331E+00
         21   -1    0    0  502  501  0.00000000000E+00  0.00000000000E+00  0.46305469333E+02  0.46305469333E+02  0.00000000000E+00 0. -1.
         21   -1    0    0  501  502 -0.00000000000E+00 -0.00000000000E+00 -0.11162145257E+04  0.11162145257E+04  0.00000000000E+00 0. -1.
      99926    2    1    2    0    0  0.00000000000E+00  0.00000000000E+00 -0.10699090564E+04  0.11625199951E+04  0.45469478770E+03 0.  0.
      99925    2    3    3    0    0  0.70622830357E+02 -0.86471491175E+02 -0.63142437944E+03  0.69307220991E+03  0.26303505138E+03 0.  0.
         25    1    4    4    0    0  0.15208564000E+02 -0.86650602108E+01 -0.24044204292E+03  0.27159946206E+03  0.12509000000E+03 0.  0.
         25    1    3    3    0    0 -0.70622830357E+02  0.86471491175E+02 -0.43848467695E+03  0.46944778515E+03  0.12509000000E+03 0.  0.
         25    1    4    4    0    0  0.55414266357E+02 -0.77806430964E+02 -0.39098233652E+03  0.42147274785E+03  0.12509000000E+03 0.  0.
<mgrwt>
<rscale>  2 0.45469479E+03</rscale>
<asrwt>0</asrwt>
<pdfrwt beam="1">  1       21 0.68096285E-02 0.45469479E+03</pdfrwt>
<pdfrwt beam="2">  1       21 0.16414918E+00 0.45469479E+03</pdfrwt>
<totfact> 0.33446572E+04</totfact>
</mgrwt>
</event>
<event>
 7    0  0.4831799E-002  0.4569938E+03  0.7546771E-02  0.1025657E+00
         21   -1    0    0  502  501  0.00000000000E+00  0.00000000000E+00  0.65633544510E+02  0.65633544510E+02  0.00000000000E+00 0.  1.
         21   -1    0    0  501  502 -0.00000000000E+00 -0.00000000000E+00 -0.79549000370E+03  0.79549000370E+03  0.00000000000E+00 0.  1.
      99926    2    1    2    0    0  0.00000000000E+00  0.00000000000E+00 -0.72985645919E+03  0.86112354821E+03  0.45699377924E+03 0.  0.
      99925    2    3    3    0    0  0.13681400234E+02 -0.10037801218E+03 -0.56079562678E+03  0.62768833408E+03  0.26313111501E+03 0.  0.
         25    1    4    4    0    0 -0.31319923676E+02 -0.64912465445E+02 -0.28562050517E+03  0.32003304026E+03  0.12509000000E+03 0.  0.
         25    1    3    3    0    0 -0.13681400234E+02  0.10037801218E+03 -0.16906083241E+03  0.23343521413E+03  0.12509000000E+03 0.  0.
         25    1    4    4    0    0  0.45001323909E+02 -0.35465546730E+02 -0.27517512161E+03  0.30765529382E+03  0.12509000000E+03 0.  0.
<mgrwt>
<rscale>  2 0.45699378E+03</rscale>
<asrwt>0</asrwt>
<pdfrwt beam="1">  1       21 0.96519921E-02 0.45699378E+03</pdfrwt>
<pdfrwt beam="2">  1       21 0.11698382E+00 0.45699378E+03</pdfrwt>
<totfact> 0.44249718E+04</totfact>
</mgrwt>
</event>
<event>
 7    0  0.4831799E-002  0.4552852E+03  0.7546771E-02  0.1026158E+00
         21   -1    0    0  502  501  0.00000000000E+00  0.00000000000E+00  0.62436962450E+03  0.62436962450E+03  0.00000000000E+00 0. -1.
         21   -1    0    0  501  502 -0.00000000000E+00 -0.00000000000E+00 -0.82997544702E+02  0.82997544702E+02  0.00000000000E+00 0. -1.
      99926    2    1    2    0    0  0.00000000000E+00  0.00000000000E+00  0.54137207980E+03  0.70736716920E+03  0.45528516699E+03 0.  0.
      99925    2    3    3    0    0 -0.68066094196E+02 -0.88118141243E+02  0.37421391325E+03  0.47075110732E+03  0.26300713333E+03 0.  0.
         25    1    4    4    0    0 -0.44569113570E+02 -0.55498178718E+02  0.13246773536E+03  0.19560588626E+03  0.12509000000E+03 0.  0.
         25    1    3    3    0    0  0.68066094196E+02  0.88118141243E+02  0.16715816654E+03  0.23661606188E+03  0.12509000000E+03 0.  0.
         25    1    4    4    0    0 -0.23496980626E+02 -0.32619962525E+02  0.24174617789E+03  0.27514522107E+03  0.12509000000E+03 0.  0.
<mgrwt>
<rscale>  2 0.45528517E+03</rscale>
<asrwt>0</asrwt>
<pdfrwt beam="1">  1       21 0.91819060E-01 0.45528517E+03</pdfrwt>
<pdfrwt beam="2">  1       21 0.12205522E-01 0.45528517E+03</pdfrwt>
<totfact> 0.52387152E+04</totfact>
</mgrwt>
</event>
<event>
 7    0  0.4831799E-002  0.4112511E+03  0.7546771E-02  0.1039952E+00
         21   -1    0    0  502  501  0.00000000000E+00  0.00000000000E+00  0.76997811241E+02  0.76997811241E+02  0.00000000000E+00 0. -1.
         21   -1    0    0  501  502 -0.00000000000E+00 -0.00000000000E+00 -0.54913077064E+03  0.54913077064E+03  0.00000000000E+00 0. -1.
      99926    2    1    2    0    0  0.00000000000E+00  0.35527136788E-14 -0.47213295940E+03  0.62612858188E+03  0.41125110297E+03 0.  0.
      99925    2    3    3    0    0  0.52364422347E+02 -0.21913586115E+02 -0.35615145492E+03  0.44634689353E+03  0.26298184831E+03 0.  0.
         25    1    4    4    0    0 -0.64182629301E+01  0.14031465441E+02 -0.17534039262E+03  0.21593943018E+03  0.12509000000E+03 0.  0.
         25    1    3    3    0    0 -0.52364422347E+02  0.21913586115E+02 -0.11598150449E+03  0.17978168835E+03  0.12509000000E+03 0.  0.
         25    1    4    4    0    0  0.58782685278E+02 -0.35945051556E+02 -0.18081106230E+03  0.23040746335E+03  0.12509000000E+03 0.  0.
<mgrwt>
<rscale>  2 0.41125110E+03</rscale>
<asrwt>0</asrwt>
<pdfrwt beam="1">  1       21 0.11323208E-01 0.41125110E+03</pdfrwt>
<pdfrwt beam="2">  1       21 0.80754522E-01 0.41125110E+03</pdfrwt>
<totfact> 0.81919979E+04</totfact>
</mgrwt>
</event>
<event>
 7    0  0.4831799E-002  0.4629711E+03  0.7546771E-02  0.1023923E+00
         21   -1    0    0  502  501  0.00000000000E+00  0.00000000000E+00  0.24354107361E+03  0.24354107361E+03  0.00000000000E+00 0.  1.
         21   -1    0    0  501  502 -0.00000000000E+00 -0.00000000000E+00 -0.22002679382E+03  0.22002679382E+03  0.00000000000E+00 0.  1.
      99926    2    1    2    0    0  0.14210854715E-13  0.35527136788E-14  0.23514279787E+02  0.46356786743E+03  0.46297110748E+03 0.  0.
      99925    2    3    3    0    0 -0.99229470226E+02 -0.74531615104E+01  0.82750277027E+02  0.29310247843E+03  0.26298178100E+03 0.  0.
         25    1    4    4    0    0 -0.47306611388E+02  0.18025271913E+02  0.53738367053E+01  0.13505262726E+03  0.12509000000E+03 0.  0.
         25    1    4    4    0    0 -0.51922858838E+02 -0.25478433424E+02  0.77376440322E+02  0.15804985118E+03  0.12509000000E+03 0.  0.
         25    1    3    3    0    0  0.99229470226E+02  0.74531615104E+01 -0.59235997241E+02  0.17046538900E+03  0.12509000000E+03 0.  0.
<mgrwt>
<rscale>  2 0.46297111E+03</rscale>
<asrwt>0</asrwt>
<pdfrwt beam="1">  1       21 0.35814864E-01 0.46297111E+03</pdfrwt>
<pdfrwt beam="2">  1       21 0.32356881E-01 0.46297111E+03</pdfrwt>
<totfact> 0.63769362E+04</totfact>
</mgrwt>
</event>
<event>
 7    0  0.4831799E-002  0.4717185E+03  0.7546771E-02  0.1021436E+00
         21   -1    0    0  502  501  0.00000000000E+00  0.00000000000E+00  0.28058598838E+03  0.28058598838E+03  0.00000000000E+00 0. -1.
         21   -1    0    0  501  502 -0.00000000000E+00 -0.00000000000E+00 -0.19826213882E+03  0.19826213882E+03  0.00000000000E+00 0. -1.
      99926    2    1    2    0    0 -0.14210854715E-13  0.17763568394E-14  0.82323849555E+02  0.47884812720E+03  0.47171846765E+03 0.  0.
      99925    2    3    3    0    0 -0.12530469164E+03 -0.35425693816E+01  0.23832845509E+02  0.29234740013E+03  0.26303076302E+03 0.  0.
         25    1    4    4    0    0 -0.27646644981E+02  0.23629145367E+02  0.14444143623E+02  0.13106797807E+03  0.12509000000E+03 0.  0.
         25    1    4    4    0    0 -0.97658046655E+02 -0.27171714749E+02  0.93887018864E+01  0.16127942207E+03  0.12509000000E+03 0.  0.
         25    1    3    3    0    0  0.12530469164E+03  0.35425693816E+01  0.58491004046E+02  0.18650072707E+03  0.12509000000E+03 0.  0.
<mgrwt>
<rscale>  2 0.47171847E+03</rscale>
<asrwt>0</asrwt>
<pdfrwt beam="1">  1       21 0.41262645E-01 0.47171847E+03</pdfrwt>
<pdfrwt beam="2">  1       21 0.29156197E-01 0.47171847E+03</pdfrwt>
<totfact> 0.58609225E+04</totfact>
</mgrwt>
</event>
<event>
 7    0  0.4831799E-002  0.4521163E+03  0.7546771E-02  0.1027093E+00
         21   -1    0    0  502  501  0.00000000000E+00  0.00000000000E+00  0.20938474472E+03  0.20938474472E+03  0.00000000000E+00 0. -1.
         21   -1    0    0  501  502 -0.00000000000E+00 -0.00000000000E+00 -0.24405931626E+03  0.24405931626E+03  0.00000000000E+00 0. -1.
      99926    2    1    2    0    0 -0.71054273576E-14  0.00000000000E+00 -0.34674571548E+02  0.45344406098E+03  0.45211634623E+03 0.  0.
      99925    2    3    3    0    0  0.55268543514E+02 -0.64451294131E+02  0.48952085179E+02  0.28067396220E+03  0.26300757631E+03 0.  0.
         25    1    4    4    0    0  0.45905896422E+02 -0.23432950549E+02  0.60480606536E+02  0.14819536553E+03  0.12509000000E+03 0.  0.
         25    1    4    4    0    0  0.93626470921E+01 -0.41018343582E+02 -0.11528521357E+02  0.13247859667E+03  0.12509000000E+03 0.  0.
         25    1    3    3    0    0 -0.55268543514E+02  0.64451294131E+02 -0.83626656727E+02  0.17277009878E+03  0.12509000000E+03 0.  0.
<mgrwt>
<rscale>  2 0.45211635E+03</rscale>
<asrwt>0</asrwt>
<pdfrwt beam="1">  1       21 0.30791874E-01 0.45211635E+03</pdfrwt>
<pdfrwt beam="2">  1       21 0.35891076E-01 0.45211635E+03</pdfrwt>
<totfact> 0.70262697E+04</totfact>
</mgrwt>
</event>
<event>
 7    0  0.4831799E-002  0.4537743E+03  0.7546771E-02  0.1026602E+00
         21   -1    0    0  502  501  0.00000000000E+00  0.00000000000E+00  0.14648128217E+04  0.14648128217E+04  0.00000000000E+00 0.  1.
         21   -1    0    0  501  502 -0.00000000000E+00 -0.00000000000E+00 -0.35142902201E+02  0.35142902201E+02  0.00000000000E+00 0.  1.
      99926    2    1    2    0    0 -0.71054273576E-14  0.00000000000E+00  0.14296699195E+04  0.14999557239E+04  0.45377427753E+03 0.  0.
      99925    2    3    3    0    0 -0.63012286264E+02  0.92429568624E+02  0.89408407845E+03  0.93869511188E+03  0.26315090795E+03 0.  0.
         25    1    4    4    0    0 -0.12655699198E+02  0.21722471833E+02  0.31330160859E+03  0.33828603067E+03  0.12509000000E+03 0.  0.
         25    1    4    4    0    0 -0.50356587065E+02  0.70707096791E+02  0.58078246986E+03  0.60040908121E+03  0.12509000000E+03 0.  0.
         25    1    3    3    0    0  0.63012286264E+02 -0.92429568624E+02  0.53558584109E+03  0.56126061206E+03  0.12509000000E+03 0.  0.
<mgrwt>
<rscale>  2 0.45377428E+03</rscale>
<asrwt>0</asrwt>
<pdfrwt beam="1">  1       21 0.21541361E+00 0.45377428E+03</pdfrwt>
<pdfrwt beam="2">  1       21 0.51680748E-02 0.45377428E+03</pdfrwt>
<totfact> 0.24007969E+04</totfact>
</mgrwt>
</event>
<event>
 7    0  0.4831799E-002  0.4413663E+03  0.7546771E-02  0.1030328E+00
         21   -1    0    0  502  501  0.00000000000E+00  0.00000000000E+00  0.59039190584E+03  0.59039190584E+03  0.00000000000E+00 0. -1.
         21   -1    0    0  501  502 -0.00000000000E+00 -0.00000000000E+00 -0.82489366053E+02  0.82489366053E+02  0.00000000000E+00 0. -1.
      99926    2    1    2    0    0  0.35527136788E-14  0.00000000000E+00  0.50790253979E+03  0.67288127190E+03  0.44136630608E+03 0.  0.
      99925    2    3    3    0    0  0.29231413064E+02  0.91586907249E+02  0.36493128904E+03  0.45997067157E+03  0.26297440160E+03 0.  0.
         25    1    4    4    0    0 -0.25923090825E+01  0.83966708229E+02  0.19891024859E+03  0.24953942224E+03  0.12509000000E+03 0.  0.
         25    1    3    3    0    0 -0.29231413064E+02 -0.91586907249E+02  0.14297125075E+03  0.21291060032E+03  0.12509000000E+03 0.  0.
         25    1    4    4    0    0  0.31823722146E+02  0.76201990200E+01  0.16602104045E+03  0.21043124933E+03  0.12509000000E+03 0.  0.
<mgrwt>
<rscale>  2 0.44136631E+03</rscale>
<asrwt>0</asrwt>
<pdfrwt beam="1">  1       21 0.86822337E-01 0.44136631E+03</pdfrwt>
<pdfrwt beam="2">  1       21 0.12130789E-01 0.44136631E+03</pdfrwt>
<totfact> 0.60656105E+04</totfact>
</mgrwt>
</event>
<event>
 7    0  0.4831799E-002  0.4246008E+03  0.7546771E-02  0.1035579E+00
         21   -1    0    0  502  501  0.00000000000E+00  0.00000000000E+00  0.61305711307E+03  0.61305711307E+03  0.00000000000E+00 0. -1.
         21   -1    0    0  501  502 -0.00000000000E+00 -0.00000000000E+00 -0.73519178888E+02  0.73519178888E+02  0.00000000000E+00 0. -1.
      99926    2    1    2    0    0  0.00000000000E+00  0.00000000000E+00  0.53953793418E+03  0.68657629196E+03  0.42460077986E+03 0.  0.
      99925    2    3    3    0    0  0.72767082263E+02 -0.27484567376E+02  0.31052519433E+03  0.41428087735E+03  0.26296824773E+03 0.  0.
         25    1    4    4    0    0  0.17553715832E+02 -0.39695330323E+02  0.19011111736E+03  0.23167562935E+03  0.12509000000E+03 0.  0.
         25    1    3    3    0    0 -0.72767082263E+02  0.27484567376E+02  0.22901273985E+03  0.27229541461E+03  0.12509000000E+03 0.  0.
         25    1    4    4    0    0  0.55213366431E+02  0.12210762946E+02  0.12041407697E+03  0.18260524800E+03  0.12509000000E+03 0.  0.
<mgrwt>
<rscale>  2 0.42460078E+03</rscale>
<asrwt>0</asrwt>
<pdfrwt beam="1">  1       21 0.90155455E-01 0.42460078E+03</pdfrwt>
<pdfrwt beam="2">  1       21 0.10811644E-01 0.42460078E+03</pdfrwt>
<totfact> 0.68650413E+04</totfact>
</mgrwt>
</event>
<event>
 7    0  0.4831799E-002  0.4376707E+03  0.7546771E-02  0.1031464E+00
         21   -1    0    0  502  501  0.00000000000E+00  0.00000000000E+00  0.13322544299E+03  0.13322544299E+03  0.00000000000E+00 0. -1.
         21   -1    0    0  501  502 -0.00000000000E+00 -0.00000000000E+00 -0.35945775303E+03  0.35945775303E+03  0.00000000000E+00 0. -1.
      99926    2    1    2    0    0  0.00000000000E+00 -0.35527136788E-14 -0.22623231004E+03  0.49268319601E+03  0.43767073643E+03 0.  0.
      99925    2    3    3    0    0  0.93519616462E+02  0.23770052501E+02 -0.14260449064E+03  0.31393182025E+03  0.26249992944E+03 0.  0.
         25    1    4    4    0    0  0.41767875960E+02  0.18015224881E+02 -0.26984610595E+02  0.13581156467E+03  0.12509000000E+03 0.  0.
         25    1    3    3    0    0 -0.93519616462E+02 -0.23770052501E+02 -0.83627819405E+02  0.17875137576E+03  0.12509000000E+03 0.  0.
         25    1    4    4    0    0  0.51751740502E+02  0.57548276197E+01 -0.11561988004E+03  0.17812025558E+03  0.12509000000E+03 0.  0.
<mgrwt>
<rscale>  2 0.43767074E+03</rscale>
<asrwt>0</asrwt>
<pdfrwt beam="1">  1       21 0.19591977E-01 0.43767074E+03</pdfrwt>
<pdfrwt beam="2">  1       21 0.52861433E-01 0.43767074E+03</pdfrwt>
<totfact> 0.75673313E+04</totfact>
</mgrwt>
</event>
<event>
 7    0  0.4831799E-002  0.4533992E+03  0.7546771E-02  0.1026713E+00
         21   -1    0    0  502  501  0.00000000000E+00  0.00000000000E+00  0.61669474467E+02  0.61669474467E+02  0.00000000000E+00 0.  1.
         21   -1    0    0  501  502 -0.00000000000E+00 -0.00000000000E+00 -0.83335730961E+03  0.83335730961E+03  0.00000000000E+00 0.  1.
      99926    2    1    2    0    0  0.00000000000E+00  0.00000000000E+00 -0.77168783514E+03  0.89502678408E+03  0.45339919421E+03 0.  0.
      99925    2    3    3    0    0  0.80408168509E+02  0.55583224380E+02 -0.37951786823E+03  0.47194315234E+03  0.26294782436E+03 0.  0.
         25    1    3    3    0    0 -0.80408168509E+02 -0.55583224380E+02 -0.39216996692E+03  0.42308363174E+03  0.12509000000E+03 0.  0.
         25    1    4    4    0    0  0.43247765129E+02  0.31532783667E+02 -0.25959659135E+03  0.29309142596E+03  0.12509000000E+03 0.  0.
         25    1    4    4    0    0  0.37160403380E+02  0.24050440713E+02 -0.11992127688E+03  0.17885172637E+03  0.12509000000E+03 0.  0.
<mgrwt>
<rscale>  2 0.45339919E+03</rscale>
<asrwt>0</asrwt>
<pdfrwt beam="1">  1       21 0.90690400E-02 0.45339919E+03</pdfrwt>
<pdfrwt beam="2">  1       21 0.12255255E+00 0.45339919E+03</pdfrwt>
<totfact> 0.43998308E+04</totfact>
</mgrwt>
</event>
<event>
 7    0  0.4831799E-002  0.4534999E+03  0.7546771E-02  0.1026683E+00
         21   -1    0    0  502  501  0.00000000000E+00  0.00000000000E+00  0.34100871027E+03  0.34100871027E+03  0.00000000000E+00 0. -1.
         21   -1    0    0  501  502 -0.00000000000E+00 -0.00000000000E+00 -0.15077485666E+03  0.15077485666E+03  0.00000000000E+00 0. -1.
      99926    2    1    2    0    0  0.00000000000E+00  0.35527136788E-14  0.19023385362E+03  0.49178356693E+03  0.45349989817E+03 0.  0.
      99925    2    3    3    0    0  0.76685332629E+02  0.20775447836E+02  0.34657962229E+02  0.27692634560E+03  0.26301096378E+03 0.  0.
         25    1    4    4    0    0  0.32603558132E+02  0.49228563914E+02  0.70997373469E+01  0.13850760946E+03  0.12509000000E+03 0.  0.
         25    1    4    4    0    0  0.44081774496E+02 -0.28453116078E+02  0.27558224882E+02  0.13841873614E+03  0.12509000000E+03 0.  0.
         25    1    3    3    0    0 -0.76685332629E+02 -0.20775447836E+02  0.15557589139E+03  0.21485722132E+03  0.12509000000E+03 0.  0.
<mgrwt>
<rscale>  2 0.45349990E+03</rscale>
<asrwt>0</asrwt>
<pdfrwt beam="1">  1       21 0.50148339E-01 0.45349990E+03</pdfrwt>
<pdfrwt beam="2">  1       21 0.22172773E-01 0.45349990E+03</pdfrwt>
<totfact> 0.66641924E+04</totfact>
</mgrwt>
</event>
<event>
 7    0  0.4831799E-002  0.4553330E+03  0.7546771E-02  0.1026144E+00
         21   -1    0    0  502  501  0.00000000000E+00  0.00000000000E+00  0.51297901665E+02  0.51297901665E+02  0.00000000000E+00 0. -1.
         21   -1    0    0  501  502 -0.00000000000E+00 -0.00000000000E+00 -0.10104123752E+04  0.10104123752E+04  0.00000000000E+00 0. -1.
      99926    2    1    2    0    0  0.00000000000E+00 -0.35527136788E-14 -0.95911447356E+03  0.10617102769E+04  0.45533299755E+03 0.  0.
      99925    2    3    3    0    0 -0.83901808209E+02 -0.29131760519E+02 -0.43801334497E+03  0.51849570859E+03  0.26285725511E+03 0.  0.
         25    1    4    4    0    0 -0.27574769316E+02 -0.33644061662E+02 -0.27617152031E+03  0.30628501027E+03  0.12509000000E+03 0.  0.
         25    1    4    4    0    0 -0.56327038893E+02  0.45123011436E+01 -0.16184182466E+03  0.21221069832E+03  0.12509000000E+03 0.  0.
         25    1    3    3    0    0  0.83901808209E+02  0.29131760519E+02 -0.52110112859E+03  0.54321456830E+03  0.12509000000E+03 0.  0.
<mgrwt>
<rscale>  2 0.45533300E+03</rscale>
<asrwt>0</asrwt>
<pdfrwt beam="1">  1       21 0.75438094E-02 0.45533300E+03</pdfrwt>
<pdfrwt beam="2">  1       21 0.14859005E+00 0.45533300E+03</pdfrwt>
<totfact> 0.36755007E+04</totfact>
</mgrwt>
</event>
<event>
 7    0  0.4831799E-002  0.4669610E+03  0.7546771E-02  0.1022781E+00
         21   -1    0    0  502  501  0.00000000000E+00  0.00000000000E+00  0.23848260604E+03  0.23848260604E+03  0.00000000000E+00 0. -1.
         21   -1    0    0  501  502 -0.00000000000E+00 -0.00000000000E+00 -0.22858330225E+03  0.22858330225E+03  0.00000000000E+00 0. -1.
      99926    2    1    2    0    0  0.00000000000E+00  0.00000000000E+00  0.98993037937E+01  0.46706590829E+03  0.46696099031E+03 0.  0.
      99925    2    3    3    0    0  0.89147684186E+02  0.26306844524E+02 -0.76018206183E+02  0.28910892954E+03  0.26299400336E+03 0.  0.
         25    1    4    4    0    0  0.57796485907E+01  0.73951092839E+01 -0.51616603839E+02  0.13564613474E+03  0.12509000000E+03 0.  0.
         25    1    4    4    0    0  0.83368035595E+02  0.18911735240E+02 -0.24401602344E+02  0.15346279479E+03  0.12509000000E+03 0.  0.
         25    1    3    3    0    0 -0.89147684186E+02 -0.26306844524E+02  0.85917509977E+02  0.17795697875E+03  0.12509000000E+03 0.  0.
<mgrwt>
<rscale>  2 0.46696099E+03</rscale>
<asrwt>0</asrwt>
<pdfrwt beam="1">  1       21 0.35070971E-01 0.46696099E+03</pdfrwt>
<pdfrwt beam="2">  1       21 0.33615192E-01 0.46696099E+03</pdfrwt>
<totfact> 0.61580541E+04</totfact>
</mgrwt>
</event>
<event>
 7    0  0.4831799E-002  0.4478960E+03  0.7546771E-02  0.1028351E+00
         21   -1    0    0  502  501  0.00000000000E+00  0.00000000000E+00  0.79730001911E+02  0.79730001911E+02  0.00000000000E+00 0. -1.
         21   -1    0    0  501  502 -0.00000000000E+00 -0.00000000000E+00 -0.62903170463E+03  0.62903170463E+03  0.00000000000E+00 0. -1.
      99926    2    1    2    0    0  0.00000000000E+00  0.00000000000E+00 -0.54930170272E+03  0.70876170655E+03  0.44789596566E+03 0.  0.
      99925    2    3    3    0    0 -0.64768031010E+02  0.76034029409E+02 -0.40665173681E+03  0.49434950460E+03  0.26275411733E+03 0.  0.
         25    1    4    4    0    0 -0.23325132351E+02  0.37057752740E+02 -0.26883167366E+03  0.29972540049E+03  0.12509000000E+03 0.  0.
         25    1    4    4    0    0 -0.41442898660E+02  0.38976276669E+02 -0.13782006315E+03  0.19462410411E+03  0.12509000000E+03 0.  0.
         25    1    3    3    0    0  0.64768031010E+02 -0.76034029409E+02 -0.14264996591E+03  0.21441220195E+03  0.12509000000E+03 0.  0.
<mgrwt>
<rscale>  2 0.44789597E+03</rscale>
<asrwt>0</asrwt>
<pdfrwt beam="1">  1       21 0.11725000E-01 0.44789597E+03</pdfrwt>
<pdfrwt beam="2">  1       21 0.92504663E-01 0.44789597E+03</pdfrwt>
<totfact> 0.55465588E+04</totfact>
</mgrwt>
</event>
<event>
 7    0  0.4831799E-002  0.4510684E+03  0.7546771E-02  0.1027404E+00
         21   -1    0    0  502  501  0.00000000000E+00  0.00000000000E+00  0.70879072201E+03  0.70879072201E+03  0.00000000000E+00 0. -1.
         21   -1    0    0  501  502 -0.00000000000E+00 -0.00000000000E+00 -0.71764010944E+02  0.71764010944E+02  0.00000000000E+00 0. -1.
      99926    2    1    2    0    0  0.00000000000E+00  0.00000000000E+00  0.63702671107E+03  0.78055473296E+03  0.45106835461E+03 0.  0.
      99925    2    3    3    0    0 -0.85230520861E+02 -0.67444162571E+02  0.37346728648E+03  0.46922848103E+03  0.26245875216E+03 0.  0.
         25    1    4    4    0    0 -0.71229701164E+02 -0.52271981018E+02  0.24357287214E+03  0.28771736561E+03  0.12509000000E+03 0.  0.
         25    1    3    3    0    0  0.85230520861E+02  0.67444162571E+02  0.26355942459E+03  0.31132625193E+03  0.12509000000E+03 0.  0.
         25    1    4    4    0    0 -0.14000819697E+02 -0.15172181553E+02  0.12989441434E+03  0.18151111542E+03  0.12509000000E+03 0.  0.
<mgrwt>
<rscale>  2 0.45106835E+03</rscale>
<asrwt>0</asrwt>
<pdfrwt beam="1">  1       21 0.10423393E+00 0.45106835E+03</pdfrwt>
<pdfrwt beam="2">  1       21 0.10553531E-01 0.45106835E+03</pdfrwt>
<totfact> 0.50252734E+04</totfact>
</mgrwt>
</event>
<event>
 7    0  0.4831799E-002  0.4721488E+03  0.7546771E-02  0.1021315E+00
         21   -1    0    0  502  501  0.00000000000E+00  0.00000000000E+00  0.32267360699E+03  0.32267360699E+03  0.00000000000E+00 0. -1.
         21   -1    0    0  501  502 -0.00000000000E+00 -0.00000000000E+00 -0.17271671760E+03  0.17271671760E+03  0.00000000000E+00 0. -1.
      99926    2    1    2    0    0  0.00000000000E+00  0.00000000000E+00  0.14995688939E+03  0.49539032459E+03  0.47214881660E+03 0.  0.
      99925    2    3    3    0    0 -0.87446222179E+02  0.64911152083E+02  0.20221767320E+02  0.28482202347E+03  0.26240115423E+03 0.  0.
         25    1    3    3    0    0  0.87446222179E+02 -0.64911152083E+02  0.12973512207E+03  0.21056830112E+03  0.12509000000E+03 0.  0.
         25    1    4    4    0    0 -0.72745420313E+02  0.54871235160E+02  0.31628968142E+02  0.15795774229E+03  0.12509000000E+03 0.  0.
         25    1    4    4    0    0 -0.14700801866E+02  0.10039916923E+02 -0.11407200822E+02  0.12686428117E+03  0.12509000000E+03 0.  0.
<mgrwt>
<rscale>  2 0.47214882E+03</rscale>
<asrwt>0</asrwt>
<pdfrwt beam="1">  1       21 0.47452001E-01 0.47214882E+03</pdfrwt>
<pdfrwt beam="2">  1       21 0.25399517E-01 0.47214882E+03</pdfrwt>
<totfact> 0.57377925E+04</totfact>
</mgrwt>
</event>
<event>
 7    0  0.4831799E-002  0.4521890E+03  0.7546771E-02  0.1027071E+00
         21   -1    0    0  502  501  0.00000000000E+00  0.00000000000E+00  0.15137402898E+04  0.15137402898E+04  0.00000000000E+00 0. -1.
         21   -1    0    0  501  502 -0.00000000000E+00 -0.00000000000E+00 -0.33769815518E+02  0.33769815518E+02  0.00000000000E+00 0. -1.
      99926    2    1    2    0    0  0.00000000000E+00 -0.61062266354E-15  0.14799704743E+04  0.15475101053E+04  0.45218903272E+03 0.  0.
      99925    2    3    3    0    0 -0.87749128566E+02 -0.38746229571E+00  0.11633874560E+04  0.11959814788E+04  0.26306133348E+03 0.  0.
         25    1    4    4    0    0 -0.54865498191E+02  0.24963711538E+02  0.46596760052E+03  0.48621674449E+03  0.12509000000E+03 0.  0.
         25    1    4    4    0    0 -0.32883630376E+02 -0.25351173833E+02  0.69741985552E+03  0.70976473435E+03  0.12509000000E+03 0.  0.
         25    1    3    3    0    0  0.87749128566E+02  0.38746229571E+00  0.31658301822E+03  0.35152862646E+03  0.12509000000E+03 0.  0.
<mgrwt>
<rscale>  2 0.45218903E+03</rscale>
<asrwt>0</asrwt>
<pdfrwt beam="1">  1       21 0.22260882E+00 0.45218903E+03</pdfrwt>
<pdfrwt beam="2">  1       21 0.49661504E-02 0.45218903E+03</pdfrwt>
<totfact> 0.23139464E+04</totfact>
</mgrwt>
</event>
<event>
 7    0  0.4831799E-002  0.4165073E+03  0.7546771E-02  0.1038209E+00
         21   -1    0    0  502  501  0.00000000000E+00  0.00000000000E+00  0.20571386245E+03  0.20571386245E+03  0.00000000000E+00 0. -1.
         21   -1    0    0  501  502 -0.00000000000E+00 -0.00000000000E+00 -0.21082483632E+03  0.21082483632E+03  0.00000000000E+00 0. -1.
      99926    2    1    2    0    0  0.00000000000E+00  0.00000000000E+00 -0.51109738677E+01  0.41653869878E+03  0.41650734150E+03 0.  0.
      99925    2    3    3    0    0 -0.59394897862E+02 -0.31670136778E+02  0.20364148855E+02  0.27222223598E+03  0.26298193046E+03 0.  0.
         25    1    4    4    0    0 -0.26658945613E+02  0.18246469843E+02 -0.12434799230E+02  0.12979123767E+03  0.12509000000E+03 0.  0.
         25    1    3    3    0    0  0.59394897862E+02  0.31670136778E+02 -0.25475122722E+02  0.14431646279E+03  0.12509000000E+03 0.  0.
         25    1    4    4    0    0 -0.32735952249E+02 -0.49916606621E+02  0.32798948085E+02  0.14243099832E+03  0.12509000000E+03 0.  0.
<mgrwt>
<rscale>  2 0.41650734E+03</rscale>
<asrwt>0</asrwt>
<pdfrwt beam="1">  1       21 0.30252039E-01 0.41650734E+03</pdfrwt>
<pdfrwt beam="2">  1       21 0.31003652E-01 0.41650734E+03</pdfrwt>
<totfact> 0.98378077E+04</totfact>
</mgrwt>
</event>
<event>
 7    0  0.4831799E-002  0.4504809E+03  0.7546771E-02  0.1027579E+00
         21   -1    0    0  502  501  0.00000000000E+00  0.00000000000E+00  0.44854674928E+03  0.44854674928E+03  0.00000000000E+00 0.  1.
         21   -1    0    0  501  502 -0.00000000000E+00 -0.00000000000E+00 -0.11310586918E+03  0.11310586918E+03  0.00000000000E+00 0.  1.
      99926    2    1    2    0    0 -0.35527136788E-14 -0.26645352591E-14  0.33544088011E+03  0.56165261846E+03  0.45048094274E+03 0.  0.
      99925    2    3    3    0    0  0.30118143641E+02 -0.70785230639E+01  0.34246381367E+03  0.43260209440E+03  0.26249933398E+03 0.  0.
         25    1    4    4    0    0  0.39178997670E+02  0.27728352867E+02  0.16582728133E+03  0.21319017506E+03  0.12509000000E+03 0.  0.
         25    1    3    3    0    0 -0.30118143641E+02  0.70785230639E+01 -0.70229335610E+01  0.12905052406E+03  0.12509000000E+03 0.  0.
         25    1    4    4    0    0 -0.90608540286E+01 -0.34806875931E+02  0.17663653234E+03  0.21941191933E+03  0.12509000000E+03 0.  0.
<mgrwt>
<rscale>  2 0.45048094E+03</rscale>
<asrwt>0</asrwt>
<pdfrwt beam="1">  1       21 0.65962756E-01 0.45048094E+03</pdfrwt>
<pdfrwt beam="2">  1       21 0.16633216E-01 0.45048094E+03</pdfrwt>
<totfact> 0.63336691E+04</totfact>
</mgrwt>
</event>
<event>
 6    0  0.4831799E-002  0.4507868E+03  0.7546771E-02  0.1027488E+00
         21   -1    0    0  502  501  0.00000000000E+00  0.00000000000E+00  0.15451322692E+04  0.15451322692E+04  0.00000000000E+00 0. -1.
         21   -1    0    0  501  502 -0.00000000000E+00 -0.00000000000E+00 -0.32878862130E+02  0.32878862130E+02  0.00000000000E+00 0. -1.
      99926    2    1    2    0    0 -0.71054273576E-14  0.00000000000E+00  0.15122534071E+04  0.15780111313E+04  0.45078682701E+03 0.  0.
         25    1    3    3    0    0 -0.28691748926E+02  0.88892854494E+02  0.50887124007E+03  0.53228056804E+03  0.12509000000E+03 0.  0.
         25    1    3    3    0    0 -0.39258499455E+02 -0.66098442240E+02  0.58748949649E+03  0.60555895702E+03  0.12509000000E+03 0.  0.
         25    1    3    3    0    0  0.67950248380E+02 -0.22794412255E+02  0.41589267053E+03  0.44017160629E+03  0.12509000000E+03 0.  0.
<mgrwt>
<rscale>  2 0.45078683E+03</rscale>
<asrwt>0</asrwt>
<pdfrwt beam="1">  1       21 0.22722529E+00 0.45078683E+03</pdfrwt>
<pdfrwt beam="2">  1       21 0.48351278E-02 0.45078683E+03</pdfrwt>
<totfact> 0.22662797E+04</totfact>
</mgrwt>
</event>
<event>
 7    0  0.4831799E-002  0.4550004E+03  0.7546771E-02  0.1026241E+00
         21   -1    0    0  502  501  0.00000000000E+00  0.00000000000E+00  0.15276859259E+03  0.15276859259E+03  0.00000000000E+00 0.  1.
         21   -1    0    0  501  502 -0.00000000000E+00 -0.00000000000E+00 -0.33878908350E+03  0.33878908350E+03  0.00000000000E+00 0.  1.
      99926    2    1    2    0    0  0.00000000000E+00  0.00000000000E+00 -0.18602049091E+03  0.49155767609E+03  0.45500035811E+03 0.  0.
      99925    2    3    3    0    0  0.48997078849E+02 -0.74603500242E+02 -0.41891000268E+02  0.28087494268E+03  0.26300091547E+03 0.  0.
         25    1    4    4    0    0  0.25506714315E+02 -0.26259036663E+02 -0.60078430753E+02  0.14351674266E+03  0.12509000000E+03 0.  0.
         25    1    4    4    0    0  0.23490364534E+02 -0.48344463579E+02  0.18187430485E+02  0.13735820002E+03  0.12509000000E+03 0.  0.
         25    1    3    3    0    0 -0.48997078849E+02  0.74603500242E+02 -0.14412949064E+03  0.21068273341E+03  0.12509000000E+03 0.  0.
<mgrwt>
<rscale>  2 0.45500036E+03</rscale>
<asrwt>0</asrwt>
<pdfrwt beam="1">  1       21 0.22465970E-01 0.45500036E+03</pdfrwt>
<pdfrwt beam="2">  1       21 0.49821923E-01 0.45500036E+03</pdfrwt>
<totfact> 0.65867734E+04</totfact>
</mgrwt>
</event>
<event>
 7    0  0.4831799E-002  0.4465160E+03  0.7546771E-02  0.1028766E+00
         21   -1    0    0  502  501  0.00000000000E+00  0.00000000000E+00  0.12429887744E+03  0.12429887744E+03  0.00000000000E+00 0. -1.
         21   -1    0    0  501  502 -0.00000000000E+00 -0.00000000000E+00 -0.40100222150E+03  0.40100222150E+03  0.00000000000E+00 0. -1.
      99926    2    1    2    0    0  0.35527136788E-14  0.00000000000E+00 -0.27670334406E+03  0.52530109895E+03  0.44651596157E+03 0.  0.
      99925    2    3    3    0    0  0.22697510564E+02  0.14104245969E+02 -0.55920339828E+02  0.27014085557E+03  0.26293514543E+03 0.  0.
         25    1    4    4    0    0  0.31784494261E+02  0.28446109264E+02 -0.56923116598E+02  0.14389991143E+03  0.12509000000E+03 0.  0.
         25    1    3    3    0    0 -0.22697510564E+02 -0.14104245969E+02 -0.22078300423E+03  0.25516024337E+03  0.12509000000E+03 0.  0.
         25    1    4    4    0    0 -0.90869836973E+01 -0.14341863294E+02  0.10027767697E+01  0.12624094414E+03  0.12509000000E+03 0.  0.
<mgrwt>
<rscale>  2 0.44651596E+03</rscale>
<asrwt>0</asrwt>
<pdfrwt beam="1">  1       21 0.18279247E-01 0.44651596E+03</pdfrwt>
<pdfrwt beam="2">  1       21 0.58970914E-01 0.44651596E+03</pdfrwt>
<totfact> 0.67980989E+04</totfact>
</mgrwt>
</event>
<event>
 7    0  0.4831799E-002  0.4563464E+03  0.7546771E-02  0.1025846E+00
         21   -1    0    0  502  501  0.00000000000E+00  0.00000000000E+00  0.66869131776E+02  0.66869131776E+02  0.00000000000E+00 0. -1.
         21   -1    0    0  501  502 -0.00000000000E+00 -0.00000000000E+00 -0.77858057031E+03  0.77858057031E+03  0.00000000000E+00 0. -1.
      99926    2    1    2    0    0  0.00000000000E+00  0.00000000000E+00 -0.71171143854E+03  0.84544970209E+03  0.45634638929E+03 0.  0.
      99925    2    3    3    0    0 -0.88141112435E+02 -0.23720099633E+02 -0.32049275393E+03  0.42469910362E+03  0.26329114012E+03 0.  0.
         25    1    3    3    0    0  0.88141112435E+02  0.23720099633E+02 -0.39121868461E+03  0.42075059847E+03  0.12509000000E+03 0.  0.
         25    1    4    4    0    0 -0.63544324104E+02 -0.18227300528E+02 -0.22307713775E+03  0.26416099844E+03  0.12509000000E+03 0.  0.
         25    1    4    4    0    0 -0.24596788331E+02 -0.54927991047E+01 -0.97415616178E+02  0.16053810518E+03  0.12509000000E+03 0.  0.
<mgrwt>
<rscale>  2 0.45634639E+03</rscale>
<asrwt>0</asrwt>
<pdfrwt beam="1">  1       21 0.98336965E-02 0.45634639E+03</pdfrwt>
<pdfrwt beam="2">  1       21 0.11449714E+00 0.45634639E+03</pdfrwt>
<totfact> 0.45164681E+04</totfact>
</mgrwt>
</event>
<event>
 7    0  0.4831799E-002  0.4563885E+03  0.7546771E-02  0.1025834E+00
         21   -1    0    0  502  501  0.00000000000E+00  0.00000000000E+00  0.13318412008E+03  0.13318412008E+03  0.00000000000E+00 0. -1.
         21   -1    0    0  501  502 -0.00000000000E+00 -0.00000000000E+00 -0.39098220568E+03  0.39098220568E+03  0.00000000000E+00 0. -1.
      99926    2    1    2    0    0  0.44408920985E-14  0.00000000000E+00 -0.25779808560E+03  0.52416632576E+03  0.45638852322E+03 0.  0.
      99925    2    3    3    0    0  0.55538533319E+01 -0.16497262245E+02 -0.29193710410E+03  0.39333824914E+03  0.26302984724E+03 0.  0.
         25    1    4    4    0    0 -0.33849793110E+02 -0.34426886649E+01 -0.11958146621E+03  0.17636580099E+03  0.12509000000E+03 0.  0.
         25    1    4    4    0    0  0.39403646442E+02 -0.13054573580E+02 -0.17235563789E+03  0.21697244815E+03  0.12509000000E+03 0.  0.
         25    1    3    3    0    0 -0.55538533319E+01  0.16497262245E+02  0.34139018500E+02  0.13082807662E+03  0.12509000000E+03 0.  0.
<mgrwt>
<rscale>  2 0.45638852E+03</rscale>
<asrwt>0</asrwt>
<pdfrwt beam="1">  1       21 0.19585900E-01 0.45638852E+03</pdfrwt>
<pdfrwt beam="2">  1       21 0.57497383E-01 0.45638852E+03</pdfrwt>
<totfact> 0.62907792E+04</totfact>
</mgrwt>
</event>
<event>
 7    0  0.4831799E-002  0.4586741E+03  0.7546771E-02  0.1025166E+00
         21   -1    0    0  502  501  0.00000000000E+00  0.00000000000E+00  0.37642635463E+02  0.37642635463E+02  0.00000000000E+00 0.  1.
         21   -1    0    0  501  502 -0.00000000000E+00 -0.00000000000E+00 -0.13972317180E+04  0.13972317180E+04  0.00000000000E+00 0.  1.
      99926    2    1    2    0    0  0.14210854715E-13  0.14210854715E-13 -0.13595890826E+04  0.14348743535E+04  0.45867410749E+03 0.  0.
      99925    2    3    3    0    0 -0.57930927881E+02 -0.99008873056E+02 -0.78896692005E+03  0.83954594849E+03  0.26307764889E+03 0.  0.
         25    1    4    4    0    0 -0.55040154965E+02 -0.69592697845E+02 -0.50650666314E+03  0.52921552336E+03  0.12509000000E+03 0.  0.
         25    1    4    4    0    0 -0.28907729160E+01 -0.29416175211E+02 -0.28246025690E+03  0.31033042513E+03  0.12509000000E+03 0.  0.
         25    1    3    3    0    0  0.57930927881E+02  0.99008873056E+02 -0.57062216252E+03  0.59532840501E+03  0.12509000000E+03 0.  0.
<mgrwt>
<rscale>  2 0.45867411E+03</rscale>
<asrwt>0</asrwt>
<pdfrwt beam="1">  1       21 0.55356817E-02 0.45867411E+03</pdfrwt>
<pdfrwt beam="2">  1       21 0.20547525E+00 0.45867411E+03</pdfrwt>
<totfact> 0.24704503E+04</totfact>
</mgrwt>
</event>
<event>
 6    0  0.4831799E-002  0.4563999E+03  0.7546771E-02  0.1025831E+00
         21   -1    0    0  502  501  0.00000000000E+00  0.00000000000E+00  0.10019131275E+04  0.10019131275E+04  0.00000000000E+00 0. -1.
         21   -1    0    0  501  502 -0.00000000000E+00 -0.00000000000E+00 -0.51975777090E+02  0.51975777090E+02  0.00000000000E+00 0. -1.
      99926    2    1    2    0    0 -0.35527136788E-14  0.00000000000E+00  0.94993735042E+03  0.10538889046E+04  0.45639988335E+03 0.  0.
         25    1    3    3    0    0  0.23002828431E+02  0.46338375751E+02  0.32875443320E+03  0.35553250292E+03  0.12509000000E+03 0.  0.
         25    1    3    3    0    0  0.70133390073E+02 -0.94850096832E+01  0.18913060773E+03  0.23754273866E+03  0.12509000000E+03 0.  0.
         25    1    3    3    0    0 -0.93136218504E+02 -0.36853366067E+02  0.43205230950E+03  0.46081366303E+03  0.12509000000E+03 0.  0.
<mgrwt>
<rscale>  2 0.45639988E+03</rscale>
<asrwt>0</asrwt>
<pdfrwt beam="1">  1       21 0.14734015E+00 0.45639988E+03</pdfrwt>
<pdfrwt beam="2">  1       21 0.76434972E-02 0.45639988E+03</pdfrwt>
<totfact> 0.36732037E+04</totfact>
</mgrwt>
</event>
<event>
 7    0  0.4831799E-002  0.4529556E+03  0.7546771E-02  0.1026844E+00
         21   -1    0    0  502  501  0.00000000000E+00  0.00000000000E+00  0.21440596780E+03  0.21440596780E+03  0.00000000000E+00 0.  1.
         21   -1    0    0  501  502 -0.00000000000E+00 -0.00000000000E+00 -0.23922934622E+03  0.23922934622E+03  0.00000000000E+00 0.  1.
      99926    2    1    2    0    0  0.00000000000E+00  0.35527136788E-14 -0.24823378420E+02  0.45363531403E+03  0.45295562478E+03 0.  0.
      99925    2    3    3    0    0 -0.10055531016E+03  0.31112779134E+02 -0.52575362178E+02  0.28781295085E+03  0.26266471126E+03 0.  0.
         25    1    4    4    0    0 -0.70406933639E+02  0.44305355984E+02 -0.50380084992E+02  0.15844797865E+03  0.12509000000E+03 0.  0.
         25    1    4    4    0    0 -0.30148376523E+02 -0.13192576850E+02 -0.21952771857E+01  0.12936497220E+03  0.12509000000E+03 0.  0.
         25    1    3    3    0    0  0.10055531016E+03 -0.31112779134E+02  0.27751983757E+02  0.16582236318E+03  0.12509000000E+03 0.  0.
<mgrwt>
<rscale>  2 0.45295562E+03</rscale>
<asrwt>0</asrwt>
<pdfrwt beam="1">  1       21 0.31530289E-01 0.45295562E+03</pdfrwt>
<pdfrwt beam="2">  1       21 0.35180786E-01 0.45295562E+03</pdfrwt>
<totfact> 0.69777175E+04</totfact>
</mgrwt>
</event>
<event>
 7    0  0.4831799E-002  0.4557124E+03  0.7546771E-02  0.1026032E+00
         21   -1    0    0  502  501  0.00000000000E+00  0.00000000000E+00  0.69905720523E+03  0.69905720523E+03  0.00000000000E+00 0. -1.
         21   -1    0    0  501  502 -0.00000000000E+00 -0.00000000000E+00 -0.74269226690E+02  0.74269226690E+02  0.00000000000E+00 0. -1.
      99926    2    1    2    0    0 -0.14210854715E-13  0.00000000000E+00  0.62478797854E+03  0.77332643192E+03  0.45571235684E+03 0.  0.
      99925    2    3    3    0    0  0.89307759506E+02  0.70383239390E+02  0.40193613911E+03  0.49361206559E+03  0.26300291838E+03 0.  0.
         25    1    4    4    0    0  0.35633341852E+02  0.43900085126E+02  0.26648614631E+03  0.29976545298E+03  0.12509000000E+03 0.  0.
         25    1    4    4    0    0  0.53674417654E+02  0.26483154264E+02  0.13544999280E+03  0.19384661261E+03  0.12509000000E+03 0.  0.
         25    1    3    3    0    0 -0.89307759506E+02 -0.70383239390E+02  0.22285183944E+03  0.27971436634E+03  0.12509000000E+03 0.  0.
<mgrwt>
<rscale>  2 0.45571236E+03</rscale>
<asrwt>0</asrwt>
<pdfrwt beam="1">  1       21 0.10280253E+00 0.45571236E+03</pdfrwt>
<pdfrwt beam="2">  1       21 0.10921945E-01 0.45571236E+03</pdfrwt>
<totfact> 0.48808536E+04</totfact>
</mgrwt>
</event>
<event>
 7    0  0.4831799E-002  0.4619241E+03  0.7546771E-02  0.1024225E+00
         21   -1    0    0  502  501  0.00000000000E+00  0.00000000000E+00  0.93689211199E+02  0.93689211199E+02  0.00000000000E+00 0. -1.
         21   -1    0    0  501  502 -0.00000000000E+00 -0.00000000000E+00 -0.56936609630E+03  0.56936609630E+03  0.00000000000E+00 0. -1.
      99926    2    1    2    0    0  0.00000000000E+00  0.17763568394E-14 -0.47567688510E+03  0.66305530750E+03  0.46192406495E+03 0.  0.
      99925    2    3    3    0    0 -0.11762441153E+03 -0.52119222415E+01 -0.33292007348E+03  0.43969532522E+03  0.26198003239E+03 0.  0.
         25    1    4    4    0    0 -0.66441576205E+02 -0.39509492127E+02 -0.18655882312E+03  0.23754407086E+03  0.12509000000E+03 0.  0.
         25    1    4    4    0    0 -0.51182835323E+02  0.34297569885E+02 -0.14636125037E+03  0.20215125436E+03  0.12509000000E+03 0.  0.
         25    1    3    3    0    0  0.11762441153E+03  0.52119222415E+01 -0.14275681162E+03  0.22335998228E+03  0.12509000000E+03 0.  0.
<mgrwt>
<rscale>  2 0.46192406E+03</rscale>
<asrwt>0</asrwt>
<pdfrwt beam="1">  1       21 0.13777825E-01 0.46192406E+03</pdfrwt>
<pdfrwt beam="2">  1       21 0.83730310E-01 0.46192406E+03</pdfrwt>
<totfact> 0.52054028E+04</totfact>
</mgrwt>
</event>
<event>
 7    0  0.4831799E-002  0.4536472E+03  0.7546771E-02  0.1026640E+00
         21   -1    0    0  502  501  0.00000000000E+00  0.00000000000E+00  0.59620532011E+02  0.59620532011E+02  0.00000000000E+00 0. -1.
         21   -1    0    0  501  502 -0.00000000000E+00 -0.00000000000E+00 -0.86294021346E+03  0.86294021346E+03  0.00000000000E+00 0. -1.
      99926    2    1    2    0    0  0.00000000000E+00  0.35527136788E-14 -0.80331968144E+03  0.92256074547E+03  0.45364724013E+03 0.  0.
      99925    2    3    3    0    0 -0.10090262025E+03 -0.22208793111E+02 -0.59374904682E+03  0.65752880728E+03  0.26292894959E+03 0.  0.
         25    1    4    4    0    0 -0.75368133496E+02 -0.39116349474E+02 -0.36394689037E+03  0.39410061082E+03  0.12509000000E+03 0.  0.
         25    1    3    3    0    0  0.10090262025E+03  0.22208793111E+02 -0.20957063462E+03  0.26503193819E+03  0.12509000000E+03 0.  0.
         25    1    4    4    0    0 -0.25534486753E+02  0.16907556363E+02 -0.22980215645E+03  0.26342819645E+03  0.12509000000E+03 0.  0.
<mgrwt>
<rscale>  2 0.45364724E+03</rscale>
<asrwt>0</asrwt>
<pdfrwt beam="1">  1       21 0.87677258E-02 0.45364724E+03</pdfrwt>
<pdfrwt beam="2">  1       21 0.12690297E+00 0.45364724E+03</pdfrwt>
<totfact> 0.42722689E+04</totfact>
</mgrwt>
</event>
<event>
 7    0  0.4831799E-002  0.4514803E+03  0.7546771E-02  0.1027282E+00
         21   -1    0    0  502  501  0.00000000000E+00  0.00000000000E+00  0.21077338335E+03  0.21077338335E+03  0.00000000000E+00 0.  1.
         21   -1    0    0  501  502 -0.00000000000E+00 -0.00000000000E+00 -0.24176968486E+03  0.24176968486E+03  0.00000000000E+00 0.  1.
      99926    2    1    2    0    0  0.71054273576E-14 -0.14210854715E-13 -0.30996301515E+02  0.45254306822E+03  0.45148029623E+03 0.  0.
      99925    2    3    3    0    0  0.38612588364E+02 -0.88942480420E+02  0.31903717333E+02  0.28223271247E+03  0.26312688955E+03 0.  0.
         25    1    4    4    0    0  0.97969612950E+01 -0.80839470590E+02  0.36022554566E+02  0.15354521482E+03  0.12509000000E+03 0.  0.
         25    1    3    3    0    0 -0.38612588364E+02  0.88942480420E+02 -0.62900018848E+02  0.17031035575E+03  0.12509000000E+03 0.  0.
         25    1    4    4    0    0  0.28815627069E+02 -0.81030098292E+01 -0.41188372324E+01  0.12868749765E+03  0.12509000000E+03 0.  0.
<mgrwt>
<rscale>  2 0.45148030E+03</rscale>
<asrwt>0</asrwt>
<pdfrwt beam="1">  1       21 0.30996086E-01 0.45148030E+03</pdfrwt>
<pdfrwt beam="2">  1       21 0.35554366E-01 0.45148030E+03</pdfrwt>
<totfact> 0.70690635E+04</totfact>
</mgrwt>
</event>
<event>
 7    0  0.4831799E-002  0.4453320E+03  0.7546771E-02  0.1029123E+00
         21   -1    0    0  502  501  0.00000000000E+00  0.00000000000E+00  0.22649776525E+03  0.22649776525E+03  0.00000000000E+00 0.  1.
         21   -1    0    0  501  502 -0.00000000000E+00 -0.00000000000E+00 -0.21889900962E+03  0.21889900962E+03  0.00000000000E+00 0.  1.
      99926    2    1    2    0    0  0.00000000000E+00  0.00000000000E+00  0.75987556236E+01  0.44539677487E+03  0.44533195032E+03 0.  0.
      99925    2    3    3    0    0  0.62674437577E+02  0.60592796322E+02 -0.51701403770E+02  0.28180096473E+03  0.26294329518E+03 0.  0.
         25    1    4    4    0    0  0.52093315612E+02  0.59194110290E+02 -0.50488449278E+02  0.15625059307E+03  0.12509000000E+03 0.  0.
         25    1    4    4    0    0  0.10581121965E+02  0.13986860325E+01 -0.12129544923E+01  0.12555037166E+03  0.12509000000E+03 0.  0.
         25    1    3    3    0    0 -0.62674437577E+02 -0.60592796322E+02  0.59300159394E+02  0.16359581014E+03  0.12509000000E+03 0.  0.
<mgrwt>
<rscale>  2 0.44533195E+03</rscale>
<asrwt>0</asrwt>
<pdfrwt beam="1">  1       21 0.33308495E-01 0.44533195E+03</pdfrwt>
<pdfrwt beam="2">  1       21 0.32191031E-01 0.44533195E+03</pdfrwt>
<totfact> 0.74865794E+04</totfact>
</mgrwt>
</event>
<event>
 6    0  0.4831799E-002  0.4502608E+03  0.7546771E-02  0.1027644E+00
         21   -1    0    0  502  501  0.00000000000E+00  0.00000000000E+00  0.12202703040E+04  0.12202703040E+04  0.00000000000E+00 0. -1.
         21   -1    0    0  501  502 -0.00000000000E+00 -0.00000000000E+00 -0.41534815777E+02  0.41534815777E+02  0.00000000000E+00 0. -1.
      99926    2    1    2    0    0  0.71054273576E-14  0.35527136788E-14  0.11787354882E+04  0.12618051197E+04  0.45026082341E+03 0.  0.
         25    1    3    3    0    0  0.19555016444E+02  0.17503455454E+02  0.14351705720E+03  0.19218070514E+03  0.12509000000E+03 0.  0.
         25    1    3    3    0    0  0.14463616336E+02 -0.30768683488E+02  0.65476339470E+03  0.66747173665E+03  0.12509000000E+03 0.  0.
         25    1    3    3    0    0 -0.34018632780E+02  0.13265228034E+02  0.38045503629E+03  0.40215267796E+03  0.12509000000E+03 0.  0.
<mgrwt>
<rscale>  2 0.45026082E+03</rscale>
<asrwt>0</asrwt>
<pdfrwt beam="1">  1       21 0.17945149E+00 0.45026082E+03</pdfrwt>
<pdfrwt beam="2">  1       21 0.61080619E-02 0.45026082E+03</pdfrwt>
<totfact> 0.31386183E+04</totfact>
</mgrwt>
</event>
<event>
 7    0  0.4831799E-002  0.4530061E+03  0.7546771E-02  0.1026829E+00
         21   -1    0    0  502  501  0.00000000000E+00  0.00000000000E+00  0.47431509901E+03  0.47431509901E+03  0.00000000000E+00 0.  1.
         21   -1    0    0  501  502 -0.00000000000E+00 -0.00000000000E+00 -0.10816361445E+03  0.10816361445E+03  0.00000000000E+00 0.  1.
      99926    2    1    2    0    0  0.00000000000E+00  0.00000000000E+00  0.36615148456E+03  0.58247871347E+03  0.45300611695E+03 0.  0.
      99925    2    3    3    0    0  0.10439947603E+03 -0.37865726834E+02  0.22219858180E+03  0.36179112846E+03  0.26303525811E+03 0.  0.
         25    1    4    4    0    0  0.21564969415E+02 -0.49028555113E+01  0.67777632820E+02  0.14398055948E+03  0.12509000000E+03 0.  0.
         25    1    3    3    0    0 -0.10439947603E+03  0.37865726834E+02  0.14395290276E+03  0.22068758501E+03  0.12509000000E+03 0.  0.
         25    1    4    4    0    0  0.82834506619E+02 -0.32962871323E+02  0.15442094898E+03  0.21781056897E+03  0.12509000000E+03 0.  0.
<mgrwt>
<rscale>  2 0.45300612E+03</rscale>
<asrwt>0</asrwt>
<pdfrwt beam="1">  1       21 0.69752219E-01 0.45300612E+03</pdfrwt>
<pdfrwt beam="2">  1       21 0.15906414E-01 0.45300612E+03</pdfrwt>
<totfact> 0.60721357E+04</totfact>
</mgrwt>
</event>
<event>
 7    0  0.4831799E-002  0.4538111E+03  0.7546771E-02  0.1026592E+00
         21   -1    0    0  502  501  0.00000000000E+00  0.00000000000E+00  0.13636515112E+03  0.13636515112E+03  0.00000000000E+00 0. -1.
         21   -1    0    0  501  502 -0.00000000000E+00 -0.00000000000E+00 -0.37756077294E+03  0.37756077294E+03  0.00000000000E+00 0. -1.
      99926    2    1    2    0    0  0.00000000000E+00  0.00000000000E+00 -0.24119562182E+03  0.51392592406E+03  0.45381111427E+03 0.  0.
      99925    2    3    3    0    0  0.27426856446E+02  0.27486197256E+02 -0.27096347513E+03  0.37960780657E+03  0.26300790570E+03 0.  0.
         25    1    4    4    0    0 -0.88338327569E+01  0.24343900764E+02 -0.17997601656E+03  0.22070237140E+03  0.12509000000E+03 0.  0.
         25    1    3    3    0    0 -0.27426856446E+02 -0.27486197256E+02  0.29767853314E+02  0.13431811749E+03  0.12509000000E+03 0.  0.
         25    1    4    4    0    0  0.36260689202E+02  0.31422964917E+01 -0.90987458574E+02  0.15890543517E+03  0.12509000000E+03 0.  0.
<mgrwt>
<rscale>  2 0.45381111E+03</rscale>
<asrwt>0</asrwt>
<pdfrwt beam="1">  1       21 0.20053699E-01 0.45381111E+03</pdfrwt>
<pdfrwt beam="2">  1       21 0.55523642E-01 0.45381111E+03</pdfrwt>
<totfact> 0.64913221E+04</totfact>
</mgrwt>
</event>
<event>
 7    0  0.4831799E-002  0.4514866E+03  0.7546771E-02  0.1027280E+00
         21   -1    0    0  502  501  0.00000000000E+00  0.00000000000E+00  0.89494384421E+02  0.89494384421E+02  0.00000000000E+00 0. -1.
         21   -1    0    0  501  502 -0.00000000000E+00 -0.00000000000E+00 -0.56942162614E+03  0.56942162614E+03  0.00000000000E+00 0. -1.
      99926    2    1    2    0    0 -0.71054273576E-14  0.00000000000E+00 -0.47992724172E+03  0.65891601057E+03  0.45148660183E+03 0.  0.
      99925    2    3    3    0    0  0.52957132585E+02 -0.10694209621E+02 -0.44254214691E+03  0.51762207076E+03  0.26300234283E+03 0.  0.
         25    1    4    4    0    0  0.10312276983E+02  0.30601090613E+02 -0.23412880200E+03  0.26740713123E+03  0.12509000000E+03 0.  0.
         25    1    4    4    0    0  0.42644855602E+02 -0.41295300234E+02 -0.20841334491E+03  0.25021493954E+03  0.12509000000E+03 0.  0.
         25    1    3    3    0    0 -0.52957132585E+02  0.10694209621E+02 -0.37385094810E+02  0.14129393980E+03  0.12509000000E+03 0.  0.
<mgrwt>
<rscale>  2 0.45148660E+03</rscale>
<asrwt>0</asrwt>
<pdfrwt beam="1">  1       21 0.13160939E-01 0.45148660E+03</pdfrwt>
<pdfrwt beam="2">  1       21 0.83738473E-01 0.45148660E+03</pdfrwt>
<totfact> 0.56746339E+04</totfact>
</mgrwt>
</event>
<event>
 7    0  0.4831799E-002  0.4460594E+03  0.7546771E-02  0.1028904E+00
         21   -1    0    0  502  501  0.00000000000E+00  0.00000000000E+00  0.19931469787E+03  0.19931469787E+03  0.00000000000E+00 0.  1.
         21   -1    0    0  501  502 -0.00000000000E+00 -0.00000000000E+00 -0.24956632793E+03  0.24956632793E+03  0.00000000000E+00 0.  1.
      99926    2    1    2    0    0  0.00000000000E+00  0.00000000000E+00 -0.50251630057E+02  0.44888102580E+03  0.44605935592E+03 0.  0.
      99925    2    3    3    0    0 -0.47934379207E+02  0.74469130871E+02  0.24283756415E+02  0.27845101642E+03  0.26287242449E+03 0.  0.
         25    1    4    4    0    0 -0.90221765773E+01  0.14263817520E+02 -0.19621178075E+02  0.12773940226E+03  0.12509000000E+03 0.  0.
         25    1    4    4    0    0 -0.38912202630E+02  0.60205313351E+02  0.43904934490E+02  0.15071161416E+03  0.12509000000E+03 0.  0.
         25    1    3    3    0    0  0.47934379207E+02 -0.74469130871E+02 -0.74535386472E+02  0.17043000939E+03  0.12509000000E+03 0.  0.
<mgrwt>
<rscale>  2 0.44605936E+03</rscale>
<asrwt>0</asrwt>
<pdfrwt beam="1">  1       21 0.29310985E-01 0.44605936E+03</pdfrwt>
<pdfrwt beam="2">  1       21 0.36700930E-01 0.44605936E+03</pdfrwt>
<totfact> 0.74145859E+04</totfact>
</mgrwt>
</event>
<event>
 7    0  0.4831799E-002  0.4631933E+03  0.7546771E-02  0.1023859E+00
         21   -1    0    0  502  501  0.00000000000E+00  0.00000000000E+00  0.75032135573E+02  0.75032135573E+02  0.00000000000E+00 0.  1.
         21   -1    0    0  501  502 -0.00000000000E+00 -0.00000000000E+00 -0.71485395279E+03  0.71485395279E+03  0.00000000000E+00 0.  1.
      99926    2    1    2    0    0  0.35527136788E-14  0.00000000000E+00 -0.63982181721E+03  0.78988608836E+03  0.46319334495E+03 0.  0.
      99925    2    3    3    0    0 -0.27709469514E+02 -0.59182819244E+02 -0.57277749618E+03  0.63363990480E+03  0.26297347400E+03 0.  0.
         25    1    4    4    0    0 -0.23985007349E+02 -0.10289180569E+02 -0.35986331839E+03  0.38187728897E+03  0.12509000000E+03 0.  0.
         25    1    3    3    0    0  0.27709469514E+02  0.59182819244E+02 -0.67044321033E+02  0.15624618356E+03  0.12509000000E+03 0.  0.
         25    1    4    4    0    0 -0.37244621646E+01 -0.48893638675E+02 -0.21291417779E+03  0.25176261583E+03  0.12509000000E+03 0.  0.
<mgrwt>
<rscale>  2 0.46319334E+03</rscale>
<asrwt>0</asrwt>
<pdfrwt beam="1">  1       21 0.11034137E-01 0.46319334E+03</pdfrwt>
<pdfrwt beam="2">  1       21 0.10512558E+00 0.46319334E+03</pdfrwt>
<totfact> 0.45275532E+04</totfact>
</mgrwt>
</event>
<event>
 7    0  0.4831799E-002  0.4515671E+03  0.7546771E-02  0.1027256E+00
         21   -1    0    0  502  501  0.00000000000E+00  0.00000000000E+00  0.38915809126E+03  0.38915809126E+03  0.00000000000E+00 0.  1.
         21   -1    0    0  501  502 -0.00000000000E+00 -0.00000000000E+00 -0.13099617617E+03  0.13099617617E+03  0.00000000000E+00 0.  1.
      99926    2    1    2    0    0  0.00000000000E+00  0.00000000000E+00  0.25816191510E+03  0.52015426743E+03  0.45156714619E+03 0.  0.
      99925    2    3    3    0    0 -0.88160096968E+02  0.49047303086E+02  0.21343532053E+03  0.35334354535E+03  0.26290527639E+03 0.  0.
         25    1    3    3    0    0  0.88160096968E+02 -0.49047303086E+02  0.44726594568E+02  0.16681072207E+03  0.12509000000E+03 0.  0.
         25    1    4    4    0    0 -0.55273663539E+02  0.64111662005E+02  0.12328738155E+03  0.19496863757E+03  0.12509000000E+03 0.  0.
         25    1    4    4    0    0 -0.32886433429E+02 -0.15064358919E+02  0.90147938982E+02  0.15837490779E+03  0.12509000000E+03 0.  0.
<mgrwt>
<rscale>  2 0.45156715E+03</rscale>
<asrwt>0</asrwt>
<pdfrwt beam="1">  1       21 0.57229131E-01 0.45156715E+03</pdfrwt>
<pdfrwt beam="2">  1       21 0.19264144E-01 0.45156715E+03</pdfrwt>
<totfact> 0.65646366E+04</totfact>
</mgrwt>
</event>
<event>
 7    0  0.4831799E-002  0.4553611E+03  0.7546771E-02  0.1026135E+00
         21   -1    0    0  502  501  0.00000000000E+00  0.00000000000E+00  0.38452347447E+03  0.38452347447E+03  0.00000000000E+00 0. -1.
         21   -1    0    0  501  502 -0.00000000000E+00 -0.00000000000E+00 -0.13481212366E+03  0.13481212366E+03  0.00000000000E+00 0. -1.
      99926    2    1    2    0    0  0.00000000000E+00  0.14210854715E-13  0.24971135081E+03  0.51933559813E+03  0.45536107076E+03 0.  0.
      99925    2    3    3    0    0 -0.81073354967E+02  0.68723474932E+02  0.19946156398E+03  0.34767210734E+03  0.26418776245E+03 0.  0.
         25    1    4    4    0    0 -0.68970669771E+02  0.38746175614E+01  0.11000505770E+03  0.18033465216E+03  0.12509000000E+03 0.  0.
         25    1    4    4    0    0 -0.12102685197E+02  0.64848857371E+02  0.89456506278E+02  0.16733745518E+03  0.12509000000E+03 0.  0.
         25    1    3    3    0    0  0.81073354967E+02 -0.68723474932E+02  0.50249786830E+02  0.17166349079E+03  0.12509000000E+03 0.  0.
<mgrwt>
<rscale>  2 0.45536107E+03</rscale>
<asrwt>0</asrwt>
<pdfrwt beam="1">  1       21 0.56547569E-01 0.45536107E+03</pdfrwt>
<pdfrwt beam="2">  1       21 0.19825312E-01 0.45536107E+03</pdfrwt>
<totfact> 0.63749737E+04</totfact>
</mgrwt>
</event>
<event>
 7    0  0.4831799E-002  0.4564154E+03  0.7546771E-02  0.1025826E+00
         21   -1    0    0  502  501  0.00000000000E+00  0.00000000000E+00  0.27729686136E+03  0.27729686136E+03  0.00000000000E+00 0. -1.
         21   -1    0    0  501  502 -0.00000000000E+00 -0.00000000000E+00 -0.18780865726E+03  0.18780865726E+03  0.00000000000E+00 0. -1.
      99926    2    1    2    0    0  0.00000000000E+00 -0.35527136788E-14  0.89488204107E+02  0.46510551862E+03  0.45641538622E+03 0.  0.
      99925    2    3    3    0    0  0.11338203244E+03  0.66219469390E+01  0.42697015358E+02  0.28978792422E+03  0.26316282116E+03 0.  0.
         25    1    4    4    0    0  0.72289952551E+02  0.41651967192E+02  0.20771564536E+02  0.15178830523E+03  0.12509000000E+03 0.  0.
         25    1    4    4    0    0  0.41092079888E+02 -0.35030020253E+02  0.21925450823E+02  0.13799961899E+03  0.12509000000E+03 0.  0.
         25    1    3    3    0    0 -0.11338203244E+03 -0.66219469390E+01  0.46791188749E+02  0.17531759440E+03  0.12509000000E+03 0.  0.
<mgrwt>
<rscale>  2 0.45641539E+03</rscale>
<asrwt>0</asrwt>
<pdfrwt beam="1">  1       21 0.40778950E-01 0.45641539E+03</pdfrwt>
<pdfrwt beam="2">  1       21 0.27618920E-01 0.45641539E+03</pdfrwt>
<totfact> 0.67044860E+04</totfact>
</mgrwt>
</event>
<event>
 7    0  0.4831799E-002  0.4563615E+03  0.7546771E-02  0.1025842E+00
         21   -1    0    0  502  501  0.00000000000E+00  0.00000000000E+00  0.16239803892E+04  0.16239803892E+04  0.00000000000E+00 0.  1.
         21   -1    0    0  501  502 -0.00000000000E+00 -0.00000000000E+00 -0.32061013583E+02  0.32061013583E+02  0.00000000000E+00 0.  1.
      99926    2    1    2    0    0  0.00000000000E+00  0.00000000000E+00  0.15919193756E+04  0.16560414028E+04  0.45636151160E+03 0.  0.
      99925    2    3    3    0    0 -0.75331164153E+02  0.38264114425E+02  0.72187648664E+03  0.77300059766E+03  0.26322107682E+03 0.  0.
         25    1    4    4    0    0 -0.50392820687E+02  0.22475406684E+02  0.48007830986E+03  0.49916657738E+03  0.12509000000E+03 0.  0.
         25    1    3    3    0    0  0.75331164153E+02 -0.38264114425E+02  0.87004288901E+03  0.88304080515E+03  0.12509000000E+03 0.  0.
         25    1    4    4    0    0 -0.24938343466E+02  0.15788707741E+02  0.24179817678E+03  0.27383402028E+03  0.12509000000E+03 0.  0.
<mgrwt>
<rscale>  2 0.45636151E+03</rscale>
<asrwt>0</asrwt>
<pdfrwt beam="1">  1       21 0.23882059E+00 0.45636151E+03</pdfrwt>
<pdfrwt beam="2">  1       21 0.47148560E-02 0.45636151E+03</pdfrwt>
<totfact> 0.19980462E+04</totfact>
</mgrwt>
</event>
<event>
 7    0  0.4831799E-002  0.4571013E+03  0.7546771E-02  0.1025625E+00
         21   -1    0    0  502  501  0.00000000000E+00  0.00000000000E+00  0.16491555929E+03  0.16491555929E+03  0.00000000000E+00 0.  1.
         21   -1    0    0  501  502 -0.00000000000E+00 -0.00000000000E+00 -0.31674030420E+03  0.31674030420E+03  0.00000000000E+00 0.  1.
      99926    2    1    2    0    0  0.00000000000E+00  0.00000000000E+00 -0.15182474492E+03  0.48165586349E+03  0.45710132100E+03 0.  0.
      99925    2    3    3    0    0  0.86697512855E+02 -0.28322199924E+02 -0.21216644831E+02  0.27911058546E+03  0.26293338919E+03 0.  0.
         25    1    4    4    0    0  0.45885854478E+02  0.26270864303E+02 -0.12781425634E+02  0.13640580227E+03  0.12509000000E+03 0.  0.
         25    1    3    3    0    0 -0.86697512855E+02  0.28322199924E+02 -0.13060810009E+03  0.20254527803E+03  0.12509000000E+03 0.  0.
         25    1    4    4    0    0  0.40811658377E+02 -0.54593064227E+02 -0.84352191970E+01  0.14270478319E+03  0.12509000000E+03 0.  0.
<mgrwt>
<rscale>  2 0.45710132E+03</rscale>
<asrwt>0</asrwt>
<pdfrwt beam="1">  1       21 0.24252288E-01 0.45710132E+03</pdfrwt>
<pdfrwt beam="2">  1       21 0.46579456E-01 0.45710132E+03</pdfrwt>
<totfact> 0.65480750E+04</totfact>
</mgrwt>
</event>
<event>
 7    0  0.4831799E-002  0.4552364E+03  0.7546771E-02  0.1026172E+00
         21   -1    0    0  502  501  0.00000000000E+00  0.00000000000E+00  0.24821910075E+04  0.24821910075E+04  0.00000000000E+00 0. -1.
         21   -1    0    0  501  502 -0.00000000000E+00 -0.00000000000E+00 -0.20872710382E+02  0.20872710382E+02  0.00000000000E+00 0. -1.
      99926    2    1    2    0    0  0.35527136788E-14 -0.14210854715E-13  0.24613182971E+04  0.25030637179E+04  0.45523643972E+03 0.  0.
      99925    2    3    3    0    0 -0.25668418262E+02  0.83690795207E+02  0.11507344463E+04  0.11836166538E+04  0.26286041973E+03 0.  0.
         25    1    4    4    0    0 -0.41218198229E+02  0.71798120059E+02  0.65694657341E+03  0.67385474572E+03  0.12509000000E+03 0.  0.
         25    1    4    4    0    0  0.15549779967E+02  0.11892675149E+02  0.49378787292E+03  0.50976190807E+03  0.12509000000E+03 0.  0.
         25    1    3    3    0    0  0.25668418262E+02 -0.83690795207E+02  0.13105838508E+04  0.13194470641E+04  0.12509000000E+03 0.  0.
<mgrwt>
<rscale>  2 0.45523644E+03</rscale>
<asrwt>0</asrwt>
<pdfrwt beam="1">  1       21 0.36502789E+00 0.45523644E+03</pdfrwt>
<pdfrwt beam="2">  1       21 0.30695179E-02 0.45523644E+03</pdfrwt>
<totfact> 0.70874551E+03</totfact>
</mgrwt>
</event>
<event>
 7    0  0.4831799E-002  0.4604299E+03  0.7546771E-02  0.1024657E+00
         21   -1    0    0  502  501  0.00000000000E+00  0.00000000000E+00  0.94500469294E+03  0.94500469294E+03  0.00000000000E+00 0.  1.
         21   -1    0    0  501  502 -0.00000000000E+00 -0.00000000000E+00 -0.56083229629E+02  0.56083229629E+02  0.00000000000E+00 0.  1.
      99926    2    1    2    0    0  0.00000000000E+00  0.00000000000E+00  0.88892146331E+03  0.10010879226E+04  0.46042986521E+03 0.  0.
      99925    2    3    3    0    0  0.10851689756E+03 -0.45403345285E+02  0.58563461076E+03  0.65256560786E+03  0.26274815780E+03 0.  0.
         25    1    4    4    0    0  0.55207360951E+02 -0.17555193386E+02  0.20166275386E+03  0.24427732582E+03  0.12509000000E+03 0.  0.
         25    1    3    3    0    0 -0.10851689756E+03  0.45403345285E+02  0.30328685255E+03  0.34852231471E+03  0.12509000000E+03 0.  0.
         25    1    4    4    0    0  0.53309536604E+02 -0.27848151899E+02  0.38397185690E+03  0.40828828204E+03  0.12509000000E+03 0.  0.
<mgrwt>
<rscale>  2 0.46042987E+03</rscale>
<asrwt>0</asrwt>
<pdfrwt beam="1">  1       21 0.13897127E+00 0.46042987E+03</pdfrwt>
<pdfrwt beam="2">  1       21 0.82475344E-02 0.46042987E+03</pdfrwt>
<totfact> 0.37508508E+04</totfact>
</mgrwt>
</event>
<event>
 7    0  0.4831799E-002  0.4636858E+03  0.7546771E-02  0.1023718E+00
         21   -1    0    0  502  501  0.00000000000E+00  0.00000000000E+00  0.13150331497E+03  0.13150331497E+03  0.00000000000E+00 0.  1.
         21   -1    0    0  501  502 -0.00000000000E+00 -0.00000000000E+00 -0.40874349865E+03  0.40874349865E+03  0.00000000000E+00 0.  1.
      99926    2    1    2    0    0 -0.44408920985E-15  0.00000000000E+00 -0.27724018368E+03  0.54024681362E+03  0.46368577743E+03 0.  0.
      99925    2    3    3    0    0 -0.33417936437E+01  0.60499419228E+02 -0.50860551677E+02  0.27460308003E+03  0.26296142024E+03 0.  0.
         25    1    4    4    0    0 -0.37568380559E+01  0.71043612969E+02 -0.34725811049E+02  0.14803614028E+03  0.12509000000E+03 0.  0.
         25    1    4    4    0    0  0.41504441223E+00 -0.10544193741E+02 -0.16134740627E+02  0.12656693975E+03  0.12509000000E+03 0.  0.
         25    1    3    3    0    0  0.33417936437E+01 -0.60499419228E+02 -0.22637963200E+03  0.26564373359E+03  0.12509000000E+03 0.  0.
<mgrwt>
<rscale>  2 0.46368578E+03</rscale>
<asrwt>0</asrwt>
<pdfrwt beam="1">  1       21 0.19338723E-01 0.46368578E+03</pdfrwt>
<pdfrwt beam="2">  1       21 0.60109338E-01 0.46368578E+03</pdfrwt>
<totfact> 0.58393890E+04</totfact>
</mgrwt>
</event>
<event>
 7    0  0.4831799E-002  0.4552887E+03  0.7546771E-02  0.1026157E+00
         21   -1    0    0  502  501  0.00000000000E+00  0.00000000000E+00  0.28801644133E+03  0.28801644133E+03  0.00000000000E+00 0.  1.
         21   -1    0    0  501  502 -0.00000000000E+00 -0.00000000000E+00 -0.17992704775E+03  0.17992704775E+03  0.00000000000E+00 0.  1.
      99926    2    1    2    0    0 -0.35527136788E-14 -0.14210854715E-13  0.10808939358E+03  0.46794348907E+03  0.45528869079E+03 0.  0.
      99925    2    3    3    0    0  0.29842497792E+02  0.77496960374E+02 -0.11511299182E+02  0.27598467226E+03  0.26294234306E+03 0.  0.
         25    1    4    4    0    0  0.32894519479E+02  0.75920427142E+02 -0.15551180842E+02  0.15078231990E+03  0.12509000000E+03 0.  0.
         25    1    4    4    0    0 -0.30520216872E+01  0.15765332327E+01  0.40398816597E+01  0.12520235236E+03  0.12509000000E+03 0.  0.
         25    1    3    3    0    0 -0.29842497792E+02 -0.77496960374E+02  0.11960069276E+03  0.19195881681E+03  0.12509000000E+03 0.  0.
<mgrwt>
<rscale>  2 0.45528869E+03</rscale>
<asrwt>0</asrwt>
<pdfrwt beam="1">  1       21 0.42355359E-01 0.45528869E+03</pdfrwt>
<pdfrwt beam="2">  1       21 0.26459860E-01 0.45528869E+03</pdfrwt>
<totfact> 0.67434573E+04</totfact>
</mgrwt>
</event>
<event>
 7    0  0.4831799E-002  0.4541248E+03  0.7546771E-02  0.1026499E+00
         21   -1    0    0  502  501  0.00000000000E+00  0.00000000000E+00  0.88534861281E+03  0.88534861281E+03  0.00000000000E+00 0. -1.
         21   -1    0    0  501  502 -0.00000000000E+00 -0.00000000000E+00 -0.58233930983E+02  0.58233930983E+02  0.00000000000E+00 0. -1.
      99926    2    1    2    0    0  0.00000000000E+00 -0.71054273576E-14  0.82711468183E+03  0.94358254379E+03  0.45412478467E+03 0.  0.
      99925    2    3    3    0    0 -0.21231106588E+02  0.61531631806E+02  0.33093855565E+03  0.42775780817E+03  0.26309601523E+03 0.  0.
         25    1    4    4    0    0 -0.41934883993E+02  0.58092999019E+02  0.17263815474E+03  0.22491058579E+03  0.12509000000E+03 0.  0.
         25    1    3    3    0    0  0.21231106588E+02 -0.61531631806E+02  0.49617612617E+03  0.51582473563E+03  0.12509000000E+03 0.  0.
         25    1    4    4    0    0  0.20703777404E+02  0.34386327873E+01  0.15830040092E+03  0.20284722237E+03  0.12509000000E+03 0.  0.
<mgrwt>
<rscale>  2 0.45412478E+03</rscale>
<asrwt>0</asrwt>
<pdfrwt beam="1">  1       21 0.13019832E+00 0.45412478E+03</pdfrwt>
<pdfrwt beam="2">  1       21 0.85638139E-02 0.45412478E+03</pdfrwt>
<totfact> 0.41686350E+04</totfact>
</mgrwt>
</event>
<event>
 7    0  0.4831799E-002  0.4658061E+03  0.7546771E-02  0.1023111E+00
         21   -1    0    0  502  501  0.00000000000E+00  0.00000000000E+00  0.20456741855E+02  0.20456741855E+02  0.00000000000E+00 0.  1.
         21   -1    0    0  501  502 -0.00000000000E+00 -0.00000000000E+00 -0.26516364225E+04  0.26516364225E+04  0.00000000000E+00 0.  1.
      99926    2    1    2    0    0  0.17763568394E-14  0.00000000000E+00 -0.26311796806E+04  0.26720931643E+04  0.46580614761E+03 0.  0.
      99925    2    3    3    0    0  0.11812597668E+02  0.12279042183E+03 -0.17149108365E+04  0.17391338255E+04  0.26163000707E+03 0.  0.
         25    1    4    4    0    0 -0.13767553050E+02  0.61939091415E+02 -0.10514713495E+04  0.10607853239E+04  0.12509000000E+03 0.  0.
         25    1    3    3    0    0 -0.11812597668E+02 -0.12279042183E+03 -0.91626884414E+03  0.93295933888E+03  0.12509000000E+03 0.  0.
         25    1    4    4    0    0  0.25580150718E+02  0.60851330416E+02 -0.66343948703E+03  0.67834850157E+03  0.12509000000E+03 0.  0.
<mgrwt>
<rscale>  2 0.46580615E+03</rscale>
<asrwt>0</asrwt>
<pdfrwt beam="1">  1       21 0.30083460E-02 0.46580615E+03</pdfrwt>
<pdfrwt beam="2">  1       21 0.38994632E+00 0.46580615E+03</pdfrwt>
<totfact> 0.50855622E+03</totfact>
</mgrwt>
</event>
<event>
 7    0  0.4831799E-002  0.4293706E+03  0.7546771E-02  0.1034059E+00
         21   -1    0    0  502  501  0.00000000000E+00  0.00000000000E+00  0.36537995831E+03  0.36537995831E+03  0.00000000000E+00 0. -1.
         21   -1    0    0  501  502 -0.00000000000E+00 -0.00000000000E+00 -0.12614203275E+03  0.12614203275E+03  0.00000000000E+00 0. -1.
      99926    2    1    2    0    0  0.17763568394E-14  0.00000000000E+00  0.23923792556E+03  0.49152199106E+03  0.42937056568E+03 0.  0.
      99925    2    3    3    0    0  0.60533428339E+01 -0.75871981827E+02  0.10592800223E+03  0.29350117311E+03  0.26292393648E+03 0.  0.
         25    1    4    4    0    0  0.40671623744E+02 -0.23288812525E+02  0.55651178115E+02  0.14471044016E+03  0.12509000000E+03 0.  0.
         25    1    4    4    0    0 -0.34618280910E+02 -0.52583169302E+02  0.50276824114E+02  0.14879073294E+03  0.12509000000E+03 0.  0.
         25    1    3    3    0    0 -0.60533428339E+01  0.75871981827E+02  0.13330992333E+03  0.19802081796E+03  0.12509000000E+03 0.  0.
<mgrwt>
<rscale>  2 0.42937057E+03</rscale>
<asrwt>0</asrwt>
<pdfrwt beam="1">  1       21 0.53732346E-01 0.42937057E+03</pdfrwt>
<pdfrwt beam="2">  1       21 0.18550299E-01 0.42937057E+03</pdfrwt>
<totfact> 0.81165269E+04</totfact>
</mgrwt>
</event>
<event>
 7    0  0.4831799E-002  0.4506352E+03  0.7546771E-02  0.1027533E+00
         21   -1    0    0  502  501  0.00000000000E+00  0.00000000000E+00  0.20425590698E+03  0.20425590698E+03  0.00000000000E+00 0. -1.
         21   -1    0    0  501  502 -0.00000000000E+00 -0.00000000000E+00 -0.24855100269E+03  0.24855100269E+03  0.00000000000E+00 0. -1.
      99926    2    1    2    0    0  0.00000000000E+00  0.53290705182E-14 -0.44295095715E+02  0.45280690967E+03  0.45063515391E+03 0.  0.
      99925    2    3    3    0    0 -0.10829436281E+03  0.42673410329E+01 -0.40583712196E+02  0.28725582486E+03  0.26291251778E+03 0.  0.
         25    1    4    4    0    0 -0.59168947296E+02 -0.34959191294E+02 -0.50339682108E+01  0.14281441915E+03  0.12509000000E+03 0.  0.
         25    1    3    3    0    0  0.10829436281E+03 -0.42673410329E+01 -0.37113835185E+01  0.16555108481E+03  0.12509000000E+03 0.  0.
         25    1    4    4    0    0 -0.49125415510E+02  0.39226532327E+02 -0.35549743986E+02  0.14444140571E+03  0.12509000000E+03 0.  0.
<mgrwt>
<rscale>  2 0.45063515E+03</rscale>
<asrwt>0</asrwt>
<pdfrwt beam="1">  1       21 0.30037634E-01 0.45063515E+03</pdfrwt>
<pdfrwt beam="2">  1       21 0.36551618E-01 0.45063515E+03</pdfrwt>
<totfact> 0.71152558E+04</totfact>
</mgrwt>
</event>
<event>
 6    0  0.4831799E-002  0.4509687E+03  0.7546771E-02  0.1027434E+00
         21   -1    0    0  502  501  0.00000000000E+00  0.00000000000E+00  0.86752282735E+03  0.86752282735E+03  0.00000000000E+00 0.  1.
         21   -1    0    0  501  502 -0.00000000000E+00 -0.00000000000E+00 -0.58607327109E+02  0.58607327109E+02  0.00000000000E+00 0.  1.
      99926    2    1    2    0    0  0.00000000000E+00  0.00000000000E+00  0.80891550024E+03  0.92613015445E+03  0.45096870897E+03 0.  0.
         25    1    3    3    0    0 -0.19291032015E+01  0.17198360085E+02  0.23008553064E+03  0.26246212019E+03  0.12509000000E+03 0.  0.
         25    1    3    3    0    0 -0.99199578593E+02 -0.32571265763E+02  0.30049300087E+03  0.34182597241E+03  0.12509000000E+03 0.  0.
         25    1    3    3    0    0  0.10112868179E+03  0.15372905678E+02  0.27833696873E+03  0.32184206185E+03  0.12509000000E+03 0.  0.
<mgrwt>
<rscale>  2 0.45096871E+03</rscale>
<asrwt>0</asrwt>
<pdfrwt beam="1">  1       21 0.12757688E+00 0.45096871E+03</pdfrwt>
<pdfrwt beam="2">  1       21 0.86187251E-02 0.45096871E+03</pdfrwt>
<totfact> 0.43477662E+04</totfact>
</mgrwt>
</event>
<event>
 7    0  0.4831799E-002  0.4587850E+03  0.7546771E-02  0.1025134E+00
         21   -1    0    0  502  501  0.00000000000E+00  0.00000000000E+00  0.17977565033E+04  0.17977565033E+04  0.00000000000E+00 0.  1.
         21   -1    0    0  501  502 -0.00000000000E+00 -0.00000000000E+00 -0.29270323175E+02  0.29270323175E+02  0.00000000000E+00 0.  1.
      99926    2    1    2    0    0  0.00000000000E+00 -0.35527136788E-14  0.17684861801E+04  0.18270268264E+04  0.45878497726E+03 0.  0.
      99925    2    3    3    0    0 -0.84246485080E+02  0.16593736603E+02  0.79409572292E+03  0.84089443500E+03  0.26294982657E+03 0.  0.
         25    1    3    3    0    0  0.84246485080E+02 -0.16593736603E+02  0.97439045717E+03  0.98613239145E+03  0.12509000000E+03 0.  0.
         25    1    4    4    0    0 -0.43057636850E+02 -0.10894451096E+02  0.50288271510E+03  0.52010689516E+03  0.12509000000E+03 0.  0.
         25    1    4    4    0    0 -0.41188848230E+02  0.27488187699E+02  0.29121300783E+03  0.32078753983E+03  0.12509000000E+03 0.  0.
<mgrwt>
<rscale>  2 0.45878498E+03</rscale>
<asrwt>0</asrwt>
<pdfrwt beam="1">  1       21 0.26437588E+00 0.45878498E+03</pdfrwt>
<pdfrwt beam="2">  1       21 0.43044605E-02 0.45878498E+03</pdfrwt>
<totfact> 0.16262775E+04</totfact>
</mgrwt>
</event>
<event>
 7    0  0.4831799E-002  0.4619989E+03  0.7546771E-02  0.1024203E+00
         21   -1    0    0  502  501  0.00000000000E+00  0.00000000000E+00  0.71695328892E+03  0.71695328892E+03  0.00000000000E+00 0.  1.
         21   -1    0    0  501  502 -0.00000000000E+00 -0.00000000000E+00 -0.74427081392E+02  0.74427081392E+02  0.00000000000E+00 0.  1.
      99926    2    1    2    0    0 -0.35527136788E-14  0.00000000000E+00  0.64252620753E+03  0.79138037031E+03  0.46199887787E+03 0.  0.
      99925    2    3    3    0    0 -0.22140064468E+02  0.93025538556E+02  0.52517825184E+03  0.59500831506E+03  0.26282839556E+03 0.  0.
         25    1    3    3    0    0  0.22140064468E+02 -0.93025538556E+02  0.11734795569E+03  0.19637205525E+03  0.12509000000E+03 0.  0.
         25    1    4    4    0    0 -0.19257322827E+01  0.16036825905E+02  0.18480490378E+03  0.22374371229E+03  0.12509000000E+03 0.  0.
         25    1    4    4    0    0 -0.20214332185E+02  0.76988712651E+02  0.34037334806E+03  0.37126460277E+03  0.12509000000E+03 0.  0.
<mgrwt>
<rscale>  2 0.46199888E+03</rscale>
<asrwt>0</asrwt>
<pdfrwt beam="1">  1       21 0.10543430E+00 0.46199888E+03</pdfrwt>
<pdfrwt beam="2">  1       21 0.10945159E-01 0.46199888E+03</pdfrwt>
<totfact> 0.45626258E+04</totfact>
</mgrwt>
</event>
<event>
 7    0  0.4831799E-002  0.4570321E+03  0.7546771E-02  0.1025646E+00
         21   -1    0    0  502  501  0.00000000000E+00  0.00000000000E+00  0.47671340984E+02  0.47671340984E+02  0.00000000000E+00 0.  1.
         21   -1    0    0  501  502 -0.00000000000E+00 -0.00000000000E+00 -0.10954081703E+04  0.10954081703E+04  0.00000000000E+00 0.  1.
      99926    2    1    2    0    0  0.00000000000E+00  0.35527136788E-14 -0.10477368293E+04  0.11430795113E+04  0.45703206191E+03 0.  0.
      99925    2    3    3    0    0 -0.86414745274E+02  0.21960061277E+02 -0.83983777702E+03  0.88458526273E+03  0.26308523873E+03 0.  0.
         25    1    3    3    0    0  0.86414745274E+02 -0.21960061277E+02 -0.20789905232E+03  0.25849424857E+03  0.12509000000E+03 0.  0.
         25    1    4    4    0    0 -0.57668935999E+02  0.29073559853E+02 -0.32963965202E+03  0.35844216597E+03  0.12509000000E+03 0.  0.
         25    1    4    4    0    0 -0.28745809275E+02 -0.71134985760E+01 -0.51019812500E+03  0.52614309676E+03  0.12509000000E+03 0.  0.
<mgrwt>
<rscale>  2 0.45703206E+03</rscale>
<asrwt>0</asrwt>
<pdfrwt beam="1">  1       21 0.70104918E-02 0.45703206E+03</pdfrwt>
<pdfrwt beam="2">  1       21 0.16108943E+00 0.45703206E+03</pdfrwt>
<totfact> 0.33480838E+04</totfact>
</mgrwt>
</event>
<event>
 7    0  0.4831799E-002  0.4551171E+03  0.7546771E-02  0.1026207E+00
         21   -1    0    0  502  501  0.00000000000E+00  0.00000000000E+00  0.59060645396E+02  0.59060645396E+02  0.00000000000E+00 0. -1.
         21   -1    0    0  501  502 -0.00000000000E+00 -0.00000000000E+00 -0.87677497104E+03  0.87677497104E+03  0.00000000000E+00 0. -1.
      99926    2    1    2    0    0  0.00000000000E+00  0.00000000000E+00 -0.81771432564E+03  0.93583561643E+03  0.45511710870E+03 0.  0.
      99925    2    3    3    0    0  0.10218165155E+03  0.33559616324E+02 -0.58736092810E+03  0.65250271397E+03  0.26305815729E+03 0.  0.
         25    1    4    4    0    0  0.58524505738E+02 -0.11167125930E+02 -0.35798953617E+03  0.38386695427E+03  0.12509000000E+03 0.  0.
         25    1    4    4    0    0  0.43657145808E+02  0.44726742254E+02 -0.22937139192E+03  0.26863575969E+03  0.12509000000E+03 0.  0.
         25    1    3    3    0    0 -0.10218165155E+03 -0.33559616324E+02 -0.23035339754E+03  0.28333290247E+03  0.12509000000E+03 0.  0.
<mgrwt>
<rscale>  2 0.45511711E+03</rscale>
<asrwt>0</asrwt>
<pdfrwt beam="1">  1       21 0.86853884E-02 0.45511711E+03</pdfrwt>
<pdfrwt beam="2">  1       21 0.12893750E+00 0.45511711E+03</pdfrwt>
<totfact> 0.41681559E+04</totfact>
</mgrwt>
</event>
<event>
 7    0  0.4831799E-002  0.4563951E+03  0.7546771E-02  0.1025832E+00
         21   -1    0    0  502  501  0.00000000000E+00  0.00000000000E+00  0.40230787545E+02  0.40230787545E+02  0.00000000000E+00 0.  1.
         21   -1    0    0  501  502 -0.00000000000E+00 -0.00000000000E+00 -0.12943849543E+04  0.12943849543E+04  0.00000000000E+00 0.  1.
      99926    2    1    2    0    0  0.00000000000E+00  0.00000000000E+00 -0.12541541668E+04  0.13346157419E+04  0.45639511872E+03 0.  0.
      99925    2    3    3    0    0 -0.76571869673E+02 -0.76482315169E+02 -0.67929923475E+03  0.73643642365E+03  0.26301779407E+03 0.  0.
         25    1    3    3    0    0  0.76571869673E+02  0.76482315169E+02 -0.57485493203E+03  0.59817931821E+03  0.12509000000E+03 0.  0.
         25    1    4    4    0    0 -0.28879949762E+02 -0.50991850240E+02 -0.24501715244E+03  0.28127412497E+03  0.12509000000E+03 0.  0.
         25    1    4    4    0    0 -0.47691919911E+02 -0.25490464929E+02 -0.43428208231E+03  0.45516229868E+03  0.12509000000E+03 0.  0.
<mgrwt>
<rscale>  2 0.45639512E+03</rscale>
<asrwt>0</asrwt>
<pdfrwt beam="1">  1       21 0.59162921E-02 0.45639512E+03</pdfrwt>
<pdfrwt beam="2">  1       21 0.19035073E+00 0.45639512E+03</pdfrwt>
<totfact> 0.27822741E+04</totfact>
</mgrwt>
</event>
<event>
 7    0  0.4831799E-002  0.4540813E+03  0.7546771E-02  0.1026512E+00
         21   -1    0    0  502  501  0.00000000000E+00  0.00000000000E+00  0.10036461428E+03  0.10036461428E+03  0.00000000000E+00 0. -1.
         21   -1    0    0  501  502 -0.00000000000E+00 -0.00000000000E+00 -0.51360188707E+03  0.51360188707E+03  0.00000000000E+00 0. -1.
      99926    2    1    2    0    0 -0.35527136788E-14  0.00000000000E+00 -0.41323727279E+03  0.61396650136E+03  0.45408129356E+03 0.  0.
      99925    2    3    3    0    0 -0.25494208578E+02 -0.10676250068E+03 -0.22563224979E+03  0.36318504475E+03  0.26257432921E+03 0.  0.
         25    1    3    3    0    0  0.25494208578E+02  0.10676250068E+03 -0.18760502301E+03  0.25078145661E+03  0.12509000000E+03 0.  0.
         25    1    4    4    0    0 -0.57310261941E+01 -0.20764745470E+02 -0.70301373142E+02  0.14509931248E+03  0.12509000000E+03 0.  0.
         25    1    4    4    0    0 -0.19763182384E+02 -0.85997755212E+02 -0.15533087665E+03  0.21808573227E+03  0.12509000000E+03 0.  0.
<mgrwt>
<rscale>  2 0.45408129E+03</rscale>
<asrwt>0</asrwt>
<pdfrwt beam="1">  1       21 0.14759502E-01 0.45408129E+03</pdfrwt>
<pdfrwt beam="2">  1       21 0.75529689E-01 0.45408129E+03</pdfrwt>
<totfact> 0.58248221E+04</totfact>
</mgrwt>
</event>
<event>
 7    0  0.4831799E-002  0.4035974E+03  0.7546771E-02  0.1042541E+00
         21   -1    0    0  502  501  0.00000000000E+00  0.00000000000E+00  0.51274131000E+03  0.51274131000E+03  0.00000000000E+00 0.  1.
         21   -1    0    0  501  502 -0.00000000000E+00 -0.00000000000E+00 -0.79421559139E+02  0.79421559139E+02  0.00000000000E+00 0.  1.
      99926    2    1    2    0    0  0.35527136788E-14 -0.71054273576E-14  0.43331975086E+03  0.59216286914E+03  0.40359739481E+03 0.  0.
      99925    2    3    3    0    0  0.23592207679E+02  0.44843459214E+02  0.27351493522E+03  0.38299161083E+03  0.26325771800E+03 0.  0.
         25    1    4    4    0    0 -0.16301903367E+02  0.54552866030E+00  0.10025768976E+03  0.16113709105E+03  0.12509000000E+03 0.  0.
         25    1    4    4    0    0  0.39894111045E+02  0.44297930554E+02  0.17325724546E+03  0.22185451979E+03  0.12509000000E+03 0.  0.
         25    1    3    3    0    0 -0.23592207679E+02 -0.44843459214E+02  0.15980481564E+03  0.20917125830E+03  0.12509000000E+03 0.  0.
<mgrwt>
<rscale>  2 0.40359739E+03</rscale>
<asrwt>0</asrwt>
<pdfrwt beam="1">  1       21 0.75403132E-01 0.40359739E+03</pdfrwt>
<pdfrwt beam="2">  1       21 0.11679641E-01 0.40359739E+03</pdfrwt>
<totfact> 0.90783061E+04</totfact>
</mgrwt>
</event>
<event>
 7    0  0.4831799E-002  0.4588840E+03  0.7546771E-02  0.1025105E+00
         21   -1    0    0  502  501  0.00000000000E+00  0.00000000000E+00  0.15195128212E+03  0.15195128212E+03  0.00000000000E+00 0. -1.
         21   -1    0    0  501  502 -0.00000000000E+00 -0.00000000000E+00 -0.34645069799E+03  0.34645069799E+03  0.00000000000E+00 0. -1.
      99926    2    1    2    0    0  0.00000000000E+00  0.00000000000E+00 -0.19449941587E+03  0.49840198011E+03  0.45888398426E+03 0.  0.
      99925    2    3    3    0    0  0.96362833747E+02  0.30405940293E+02 -0.58464524993E+02  0.28777596898E+03  0.26303344028E+03 0.  0.
         25    1    4    4    0    0  0.43807355660E+02 -0.13696438079E+02  0.90149241540E+00  0.13324788034E+03  0.12509000000E+03 0.  0.
         25    1    3    3    0    0 -0.96362833747E+02 -0.30405940293E+02 -0.13603489088E+03  0.21062601114E+03  0.12509000000E+03 0.  0.
         25    1    4    4    0    0  0.52555478087E+02  0.44102378373E+02 -0.59366017408E+02  0.15452808864E+03  0.12509000000E+03 0.  0.
<mgrwt>
<rscale>  2 0.45888398E+03</rscale>
<asrwt>0</asrwt>
<pdfrwt beam="1">  1       21 0.22345777E-01 0.45888398E+03</pdfrwt>
<pdfrwt beam="2">  1       21 0.50948631E-01 0.45888398E+03</pdfrwt>
<totfact> 0.63405439E+04</totfact>
</mgrwt>
</event>
<event>
 7    0  0.4831799E-002  0.4562410E+03  0.7546771E-02  0.1025877E+00
         21   -1    0    0  502  501  0.00000000000E+00  0.00000000000E+00  0.35986914002E+03  0.35986914002E+03  0.00000000000E+00 0. -1.
         21   -1    0    0  501  502 -0.00000000000E+00 -0.00000000000E+00 -0.14460526221E+03  0.14460526221E+03  0.00000000000E+00 0. -1.
      99926    2    1    2    0    0 -0.35527136788E-14  0.00000000000E+00  0.21526387782E+03  0.50447440223E+03  0.45624103872E+03 0.  0.
      99925    2    3    3    0    0  0.27832668158E+02 -0.10113554758E+02  0.25729149418E+03  0.36923102885E+03  0.26316477402E+03 0.  0.
         25    1    4    4    0    0 -0.20107740525E+02 -0.59520453083E+00  0.93739366588E+02  0.15760473485E+03  0.12509000000E+03 0.  0.
         25    1    4    4    0    0  0.47940408682E+02 -0.95183502273E+01  0.16355212759E+03  0.21162629401E+03  0.12509000000E+03 0.  0.
         25    1    3    3    0    0 -0.27832668158E+02  0.10113554758E+02 -0.42027616361E+02  0.13524337338E+03  0.12509000000E+03 0.  0.
<mgrwt>
<rscale>  2 0.45624104E+03</rscale>
<asrwt>0</asrwt>
<pdfrwt beam="1">  1       21 0.52921933E-01 0.45624104E+03</pdfrwt>
<pdfrwt beam="2">  1       21 0.21265480E-01 0.45624104E+03</pdfrwt>
<totfact> 0.64321498E+04</totfact>
</mgrwt>
</event>
<event>
 7    0  0.4831799E-002  0.4568857E+03  0.7546771E-02  0.1025688E+00
         21   -1    0    0  502  501  0.00000000000E+00  0.00000000000E+00  0.55904594451E+03  0.55904594451E+03  0.00000000000E+00 0. -1.
         21   -1    0    0  501  502 -0.00000000000E+00 -0.00000000000E+00 -0.93348575194E+02  0.93348575194E+02  0.00000000000E+00 0. -1.
      99926    2    1    2    0    0  0.00000000000E+00  0.00000000000E+00  0.46569736931E+03  0.65239451970E+03  0.45688572920E+03 0.  0.
      99925    2    3    3    0    0  0.14902615703E+02  0.97831495322E+02  0.37598138219E+03  0.46939300092E+03  0.26301083651E+03 0.  0.
         25    1    3    3    0    0 -0.14902615703E+02 -0.97831495322E+02  0.89715987121E+02  0.18300151878E+03  0.12509000000E+03 0.  0.
         25    1    4    4    0    0  0.64828636462E+01  0.72084226348E+02  0.14151296438E+03  0.20226613754E+03  0.12509000000E+03 0.  0.
         25    1    4    4    0    0  0.84197520571E+01  0.25747268975E+02  0.23446841782E+03  0.26712686338E+03  0.12509000000E+03 0.  0.
<mgrwt>
<rscale>  2 0.45688573E+03</rscale>
<asrwt>0</asrwt>
<pdfrwt beam="1">  1       21 0.82212637E-01 0.45688573E+03</pdfrwt>
<pdfrwt beam="2">  1       21 0.13727732E-01 0.45688573E+03</pdfrwt>
<totfact> 0.54744842E+04</totfact>
</mgrwt>
</event>
<event>
 7    0  0.4831799E-002  0.4494868E+03  0.7546771E-02  0.1027875E+00
         21   -1    0    0  502  501  0.00000000000E+00  0.00000000000E+00  0.12144025003E+03  0.12144025003E+03  0.00000000000E+00 0.  1.
         21   -1    0    0  501  502 -0.00000000000E+00 -0.00000000000E+00 -0.41592135357E+03  0.41592135357E+03  0.00000000000E+00 0.  1.
      99926    2    1    2    0    0  0.00000000000E+00 -0.57731597281E-14 -0.29448110354E+03  0.53736160360E+03  0.44948678810E+03 0.  0.
      99925    2    3    3    0    0  0.25272197260E+02 -0.11825230957E+01 -0.60843107893E+02  0.27113932161E+03  0.26301058084E+03 0.  0.
         25    1    4    4    0    0  0.78830930431E+01 -0.40789031929E+02 -0.27500277908E+02  0.13464643206E+03  0.12509000000E+03 0.  0.
         25    1    3    3    0    0 -0.25272197260E+02  0.11825230957E+01 -0.23363799564E+03  0.26622228198E+03  0.12509000000E+03 0.  0.
         25    1    4    4    0    0  0.17389104217E+02  0.39606508833E+02 -0.33342829985E+02  0.13649288955E+03  0.12509000000E+03 0.  0.
<mgrwt>
<rscale>  2 0.44948679E+03</rscale>
<asrwt>0</asrwt>
<pdfrwt beam="1">  1       21 0.17858861E-01 0.44948679E+03</pdfrwt>
<pdfrwt beam="2">  1       21 0.61164904E-01 0.44948679E+03</pdfrwt>
<totfact> 0.65521972E+04</totfact>
</mgrwt>
</event>
<event>
 7    0  0.4831799E-002  0.4478793E+03  0.7546771E-02  0.1028356E+00
         21   -1    0    0  502  501  0.00000000000E+00  0.00000000000E+00  0.11263989632E+03  0.11263989632E+03  0.00000000000E+00 0. -1.
         21   -1    0    0  501  502 -0.00000000000E+00 -0.00000000000E+00 -0.44521504821E+03  0.44521504821E+03  0.00000000000E+00 0. -1.
      99926    2    1    2    0    0 -0.35527136788E-14 -0.14210854715E-13 -0.33257515188E+03  0.55785494453E+03  0.44787934478E+03 0.  0.
      99925    2    3    3    0    0  0.23127911560E+02 -0.82303319546E+02 -0.13168730430E+03  0.30623584329E+03  0.26292605215E+03 0.  0.
         25    1    4    4    0    0  0.16772325151E+02 -0.74273135379E+02 -0.98257546541E+02  0.17635153269E+03  0.12509000000E+03 0.  0.
         25    1    4    4    0    0  0.63555864090E+01 -0.80301841671E+01 -0.33429757763E+02  0.12988431060E+03  0.12509000000E+03 0.  0.
         25    1    3    3    0    0 -0.23127911560E+02  0.82303319546E+02 -0.20088784758E+03  0.25161910124E+03  0.12509000000E+03 0.  0.
<mgrwt>
<rscale>  2 0.44787934E+03</rscale>
<asrwt>0</asrwt>
<pdfrwt beam="1">  1       21 0.16564691E-01 0.44787934E+03</pdfrwt>
<pdfrwt beam="2">  1       21 0.65472801E-01 0.44787934E+03</pdfrwt>
<totfact> 0.64931163E+04</totfact>
</mgrwt>
</event>
<event>
 7    0  0.4831799E-002  0.4827306E+03  0.7546771E-02  0.1018387E+00
         21   -1    0    0  502  501  0.00000000000E+00  0.00000000000E+00  0.28534063517E+03  0.28534063517E+03  0.00000000000E+00 0.  1.
         21   -1    0    0  501  502 -0.00000000000E+00 -0.00000000000E+00 -0.20416727335E+03  0.20416727335E+03  0.00000000000E+00 0.  1.
      99926    2    1    2    0    0  0.35527136788E-14  0.00000000000E+00  0.81173361822E+02  0.48950790852E+03  0.48273064729E+03 0.  0.
      99925    2    3    3    0    0  0.16718115131E+02 -0.12301239824E+03  0.10997725123E+03  0.31093378486E+03  0.26300813160E+03 0.  0.
         25    1    3    3    0    0 -0.16718115131E+02  0.12301239824E+03 -0.28803889411E+02  0.17857412366E+03  0.12509000000E+03 0.  0.
         25    1    4    4    0    0  0.38479807283E+02 -0.34217434576E+02  0.61428261286E+02  0.14856805775E+03  0.12509000000E+03 0.  0.
         25    1    4    4    0    0 -0.21761692152E+02 -0.88794963669E+02  0.48548989946E+02  0.16236572712E+03  0.12509000000E+03 0.  0.
<mgrwt>
<rscale>  2 0.48273065E+03</rscale>
<asrwt>0</asrwt>
<pdfrwt beam="1">  1       21 0.41961858E-01 0.48273065E+03</pdfrwt>
<pdfrwt beam="2">  1       21 0.30024599E-01 0.48273065E+03</pdfrwt>
<totfact> 0.53278986E+04</totfact>
</mgrwt>
</event>
<event>
 7    0  0.4831799E-002  0.4689833E+03  0.7546771E-02  0.1022208E+00
         21   -1    0    0  502  501  0.00000000000E+00  0.00000000000E+00  0.73551733422E+03  0.73551733422E+03  0.00000000000E+00 0. -1.
         21   -1    0    0  501  502 -0.00000000000E+00 -0.00000000000E+00 -0.74758714637E+02  0.74758714637E+02  0.00000000000E+00 0. -1.
      99926    2    1    2    0    0  0.00000000000E+00  0.17763568394E-14  0.66075861958E+03  0.81027604886E+03  0.46898328541E+03 0.  0.
      99925    2    3    3    0    0  0.76453534688E+02 -0.10378856646E+02  0.58253855933E+03  0.64378656103E+03  0.26297737436E+03 0.  0.
         25    1    4    4    0    0  0.16716956002E+02  0.19967647678E+02  0.21921122810E+03  0.25373063315E+03  0.12509000000E+03 0.  0.
         25    1    4    4    0    0  0.59736578686E+02 -0.30346504324E+02  0.36332733123E+03  0.39005592788E+03  0.12509000000E+03 0.  0.
         25    1    3    3    0    0 -0.76453534688E+02  0.10378856646E+02  0.78220060254E+02  0.16648948783E+03  0.12509000000E+03 0.  0.
<mgrwt>
<rscale>  2 0.46898329E+03</rscale>
<asrwt>0</asrwt>
<pdfrwt beam="1">  1       21 0.10816431E+00 0.46898329E+03</pdfrwt>
<pdfrwt beam="2">  1       21 0.10993929E-01 0.46898329E+03</pdfrwt>
<totfact> 0.42421752E+04</totfact>
</mgrwt>
</event>
<event>
 7    0  0.4831799E-002  0.4544699E+03  0.7546771E-02  0.1026397E+00
         21   -1    0    0  502  501  0.00000000000E+00  0.00000000000E+00  0.22420342337E+03  0.22420342337E+03  0.00000000000E+00 0.  1.
         21   -1    0    0  501  502 -0.00000000000E+00 -0.00000000000E+00 -0.23030749091E+03  0.23030749091E+03  0.00000000000E+00 0.  1.
      99926    2    1    2    0    0  0.00000000000E+00  0.31086244690E-14 -0.61040675433E+01  0.45451091428E+03  0.45446992371E+03 0.  0.
      99925    2    3    3    0    0 -0.10856378624E+03 -0.17782864709E+01 -0.30601171125E+02  0.28706876257E+03  0.26397496999E+03 0.  0.
         25    1    4    4    0    0 -0.48556212091E+02  0.35465787169E+02 -0.35764393689E+02  0.14332525161E+03  0.12509000000E+03 0.  0.
         25    1    4    4    0    0 -0.60007574147E+02 -0.37244073640E+02  0.51632225640E+01  0.14374351096E+03  0.12509000000E+03 0.  0.
         25    1    3    3    0    0  0.10856378624E+03  0.17782864709E+01  0.24497103582E+02  0.16744215171E+03  0.12509000000E+03 0.  0.
<mgrwt>
<rscale>  2 0.45446992E+03</rscale>
<asrwt>0</asrwt>
<pdfrwt beam="1">  1       21 0.32971092E-01 0.45446992E+03</pdfrwt>
<pdfrwt beam="2">  1       21 0.33868749E-01 0.45446992E+03</pdfrwt>
<totfact> 0.68872469E+04</totfact>
</mgrwt>
</event>
<event>
 7    0  0.4831799E-002  0.4536477E+03  0.7546771E-02  0.1026640E+00
         21   -1    0    0  502  501  0.00000000000E+00  0.00000000000E+00  0.18856977762E+04  0.18856977762E+04  0.00000000000E+00 0.  1.
         21   -1    0    0  501  502 -0.00000000000E+00 -0.00000000000E+00 -0.27283826982E+02  0.27283826982E+02  0.00000000000E+00 0.  1.
      99926    2    1    2    0    0  0.00000000000E+00  0.00000000000E+00  0.18584139492E+04  0.19129816031E+04  0.45364766886E+03 0.  0.
      99925    2    3    3    0    0  0.44879410117E+02 -0.97395718475E+02  0.10359076133E+04  0.10741346159E+04  0.26298384407E+03 0.  0.
         25    1    4    4    0    0  0.57389812512E+02 -0.51306158056E+02  0.62207794128E+03  0.63918259172E+03  0.12509000000E+03 0.  0.
         25    1    3    3    0    0 -0.44879410117E+02  0.97395718475E+02  0.82250633587E+03  0.83884698729E+03  0.12509000000E+03 0.  0.
         25    1    4    4    0    0 -0.12510402395E+02 -0.46089560420E+02  0.41382967203E+03  0.43495202414E+03  0.12509000000E+03 0.  0.
<mgrwt>
<rscale>  2 0.45364767E+03</rscale>
<asrwt>0</asrwt>
<pdfrwt beam="1">  1       21 0.27730841E+00 0.45364767E+03</pdfrwt>
<pdfrwt beam="2">  1       21 0.40123288E-02 0.45364767E+03</pdfrwt>
<totfact> 0.15343319E+04</totfact>
</mgrwt>
</event>
<event>
 7    0  0.4831799E-002  0.4556793E+03  0.7546771E-02  0.1026042E+00
         21   -1    0    0  502  501  0.00000000000E+00  0.00000000000E+00  0.98090417552E+02  0.98090417552E+02  0.00000000000E+00 0.  1.
         21   -1    0    0  501  502 -0.00000000000E+00 -0.00000000000E+00 -0.52921480633E+03  0.52921480633E+03  0.00000000000E+00 0.  1.
      99926    2    1    2    0    0  0.00000000000E+00 -0.71054273576E-14 -0.43112438878E+03  0.62730522388E+03  0.45567927900E+03 0.  0.
      99925    2    3    3    0    0  0.82872179869E+02 -0.60016128379E+02 -0.20187439229E+03  0.34681849897E+03  0.26279282164E+03 0.  0.
         25    1    3    3    0    0 -0.82872179869E+02  0.60016128379E+02 -0.22924999650E+03  0.28048672492E+03  0.12509000000E+03 0.  0.
         25    1    4    4    0    0  0.17944554766E+02  0.41853831053E+01 -0.78640476476E+02  0.14890049401E+03  0.12509000000E+03 0.  0.
         25    1    4    4    0    0  0.64927625104E+02 -0.64201511485E+02 -0.12323391581E+03  0.19791800495E+03  0.12509000000E+03 0.  0.
<mgrwt>
<rscale>  2 0.45567928E+03</rscale>
<asrwt>0</asrwt>
<pdfrwt beam="1">  1       21 0.14425061E-01 0.45567928E+03</pdfrwt>
<pdfrwt beam="2">  1       21 0.77825708E-01 0.45567928E+03</pdfrwt>
<totfact> 0.56723458E+04</totfact>
</mgrwt>
</event>
<event>
 7    0  0.4831799E-002  0.4014884E+03  0.7546771E-02  0.1043266E+00
         21   -1    0    0  502  501  0.00000000000E+00  0.00000000000E+00  0.10637766084E+04  0.10637766084E+04  0.00000000000E+00 0. -1.
         21   -1    0    0  501  502 -0.00000000000E+00 -0.00000000000E+00 -0.37882235311E+02  0.37882235311E+02  0.00000000000E+00 0. -1.
      99926    2    1    2    0    0  0.00000000000E+00  0.00000000000E+00  0.10258943731E+04  0.11016588437E+04  0.40148840978E+03 0.  0.
      99925    2    3    3    0    0  0.10078753989E+02 -0.33805811666E+02  0.77245427706E+03  0.81683643490E+03  0.26323323697E+03 0.  0.
         25    1    4    4    0    0  0.16620414618E+01 -0.21535561236E+02  0.51222675526E+03  0.52772180141E+03  0.12509000000E+03 0.  0.
         25    1    4    4    0    0  0.84167125271E+01 -0.12270250430E+02  0.26022752180E+03  0.28911463349E+03  0.12509000000E+03 0.  0.
         25    1    3    3    0    0 -0.10078753989E+02  0.33805811666E+02  0.25344009601E+03  0.28482240879E+03  0.12509000000E+03 0.  0.
<mgrwt>
<rscale>  2 0.40148841E+03</rscale>
<asrwt>0</asrwt>
<pdfrwt beam="1">  1       21 0.15643772E+00 0.40148841E+03</pdfrwt>
<pdfrwt beam="2">  1       21 0.55709177E-02 0.40148841E+03</pdfrwt>
<totfact> 0.55074378E+04</totfact>
</mgrwt>
</event>
<event>
 7    0  0.4831799E-002  0.4332730E+03  0.7546771E-02  0.1032831E+00
         21   -1    0    0  502  501  0.00000000000E+00  0.00000000000E+00  0.13624418085E+03  0.13624418085E+03  0.00000000000E+00 0.  1.
         21   -1    0    0  501  502 -0.00000000000E+00 -0.00000000000E+00 -0.34446516596E+03  0.34446516596E+03  0.00000000000E+00 0.  1.
      99926    2    1    2    0    0  0.35527136788E-14  0.14210854715E-13 -0.20822098511E+03  0.48070934681E+03  0.43327300570E+03 0.  0.
      99925    2    3    3    0    0  0.18923325569E+02 -0.85786178390E+02 -0.16010600047E+03  0.32045978987E+03  0.26333094175E+03 0.  0.
         25    1    3    3    0    0 -0.18923325569E+02  0.85786178390E+02 -0.48114984644E+02  0.16024955694E+03  0.12509000000E+03 0.  0.
         25    1    4    4    0    0 -0.20409243436E+02 -0.30045317968E+02 -0.10640337009E+03  0.16819168712E+03  0.12509000000E+03 0.  0.
         25    1    4    4    0    0  0.39332569005E+02 -0.55740860422E+02 -0.53702630378E+02  0.15226810275E+03  0.12509000000E+03 0.  0.
<mgrwt>
<rscale>  2 0.43327301E+03</rscale>
<asrwt>0</asrwt>
<pdfrwt beam="1">  1       21 0.20035909E-01 0.43327301E+03</pdfrwt>
<pdfrwt beam="2">  1       21 0.50656642E-01 0.43327301E+03</pdfrwt>
<totfact> 0.79500940E+04</totfact>
</mgrwt>
</event>
<event>
 7    0  0.4831799E-002  0.4554978E+03  0.7546771E-02  0.1026095E+00
         21   -1    0    0  502  501  0.00000000000E+00  0.00000000000E+00  0.29563337637E+03  0.29563337637E+03  0.00000000000E+00 0. -1.
         21   -1    0    0  501  502 -0.00000000000E+00 -0.00000000000E+00 -0.17545234543E+03  0.17545234543E+03  0.00000000000E+00 0. -1.
      99926    2    1    2    0    0 -0.14210854715E-13 -0.71054273576E-14  0.12018103094E+03  0.47108572180E+03  0.45549783434E+03 0.  0.
      99925    2    3    3    0    0  0.90640308923E+02  0.53991462464E+02  0.31729213781E+02  0.28506965884E+03  0.26292056550E+03 0.  0.
         25    1    4    4    0    0  0.75298040103E+02  0.57696149039E+02  0.11940122216E+02  0.15744432373E+03  0.12509000000E+03 0.  0.
         25    1    3    3    0    0 -0.90640308923E+02 -0.53991462464E+02  0.88451817162E+02  0.18601606296E+03  0.12509000000E+03 0.  0.
         25    1    4    4    0    0  0.15342268821E+02 -0.37046865753E+01  0.19789091566E+02  0.12762533510E+03  0.12509000000E+03 0.  0.
<mgrwt>
<rscale>  2 0.45549783E+03</rscale>
<asrwt>0</asrwt>
<pdfrwt beam="1">  1       21 0.43475497E-01 0.45549783E+03</pdfrwt>
<pdfrwt beam="2">  1       21 0.25801815E-01 0.45549783E+03</pdfrwt>
<totfact> 0.67089686E+04</totfact>
</mgrwt>
</event>
<event>
 7    0  0.4831799E-002  0.4343537E+03  0.7546771E-02  0.1032493E+00
         21   -1    0    0  502  501  0.00000000000E+00  0.00000000000E+00  0.12292197283E+03  0.12292197283E+03  0.00000000000E+00 0.  1.
         21   -1    0    0  501  502 -0.00000000000E+00 -0.00000000000E+00 -0.38370502623E+03  0.38370502623E+03  0.00000000000E+00 0.  1.
      99926    2    1    2    0    0  0.00000000000E+00  0.17763568394E-14 -0.26078305340E+03  0.50662699906E+03  0.43435367529E+03 0.  0.
      99925    2    3    3    0    0 -0.73975703430E+02 -0.14400082828E+02 -0.10484147186E+03  0.29297997232E+03  0.26299384570E+03 0.  0.
         25    1    4    4    0    0 -0.61547818522E+02 -0.16963300921E+02 -0.21354760824E+02  0.14205429051E+03  0.12509000000E+03 0.  0.
         25    1    4    4    0    0 -0.12427884907E+02  0.25632180930E+01 -0.83486711038E+02  0.15092568181E+03  0.12509000000E+03 0.  0.
         25    1    3    3    0    0  0.73975703430E+02  0.14400082828E+02 -0.15594158154E+03  0.21364702674E+03  0.12509000000E+03 0.  0.
<mgrwt>
<rscale>  2 0.43435368E+03</rscale>
<asrwt>0</asrwt>
<pdfrwt beam="1">  1       21 0.18076761E-01 0.43435368E+03</pdfrwt>
<pdfrwt beam="2">  1       21 0.56427210E-01 0.43435368E+03</pdfrwt>
<totfact> 0.76604281E+04</totfact>
</mgrwt>
</event>
<event>
 7    0  0.4831799E-002  0.4603525E+03  0.7546771E-02  0.1024679E+00
         21   -1    0    0  502  501  0.00000000000E+00  0.00000000000E+00  0.38085775613E+03  0.38085775613E+03  0.00000000000E+00 0. -1.
         21   -1    0    0  501  502 -0.00000000000E+00 -0.00000000000E+00 -0.13910993009E+03  0.13910993009E+03  0.00000000000E+00 0. -1.
      99926    2    1    2    0    0  0.00000000000E+00  0.00000000000E+00  0.24174782604E+03  0.51996768621E+03  0.46035245553E+03 0.  0.
      99925    2    3    3    0    0  0.74689399848E+02  0.82557945976E+01  0.25428718230E+03  0.37350469379E+03  0.26305345579E+03 0.  0.
         25    1    4    4    0    0  0.78611049853E+02 -0.39166091739E+01  0.13414105274E+03  0.19959049856E+03  0.12509000000E+03 0.  0.
         25    1    3    3    0    0 -0.74689399848E+02 -0.82557945976E+01 -0.12539356265E+02  0.14646299242E+03  0.12509000000E+03 0.  0.
         25    1    4    4    0    0 -0.39216500053E+01  0.12172403772E+02  0.12014612957E+03  0.17391419523E+03  0.12509000000E+03 0.  0.
<mgrwt>
<rscale>  2 0.46035246E+03</rscale>
<asrwt>0</asrwt>
<pdfrwt beam="1">  1       21 0.56008493E-01 0.46035246E+03</pdfrwt>
<pdfrwt beam="2">  1       21 0.20457343E-01 0.46035246E+03</pdfrwt>
<totfact> 0.61246717E+04</totfact>
</mgrwt>
</event>
<event>
 7    0  0.4831799E-002  0.4667141E+03  0.7546771E-02  0.1022852E+00
         21   -1    0    0  502  501  0.00000000000E+00  0.00000000000E+00  0.67880342158E+03  0.67880342158E+03  0.00000000000E+00 0. -1.
         21   -1    0    0  501  502 -0.00000000000E+00 -0.00000000000E+00 -0.80222793185E+02  0.80222793185E+02  0.00000000000E+00 0. -1.
      99926    2    1    2    0    0  0.71054273576E-14  0.00000000000E+00  0.59858062840E+03  0.75902621477E+03  0.46671407308E+03 0.  0.
      99925    2    3    3    0    0  0.45906188939E+02  0.61546609541E+02  0.53091775577E+03  0.59740587025E+03  0.26291585554E+03 0.  0.
         25    1    3    3    0    0 -0.45906188939E+02 -0.61546609541E+02  0.67662872630E+02  0.16162034452E+03  0.12509000000E+03 0.  0.
         25    1    4    4    0    0  0.23093640303E+01  0.26410018309E+02  0.18103775253E+03  0.22164159847E+03  0.12509000000E+03 0.  0.
         25    1    4    4    0    0  0.43596824908E+02  0.35136591232E+02  0.34988000323E+03  0.37576427178E+03  0.12509000000E+03 0.  0.
<mgrwt>
<rscale>  2 0.46671407E+03</rscale>
<asrwt>0</asrwt>
<pdfrwt beam="1">  1       21 0.99824030E-01 0.46671407E+03</pdfrwt>
<pdfrwt beam="2">  1       21 0.11797470E-01 0.46671407E+03</pdfrwt>
<totfact> 0.45479632E+04</totfact>
</mgrwt>
</event>
<event>
 7    0  0.4831799E-002  0.4607763E+03  0.7546771E-02  0.1024556E+00
         21   -1    0    0  502  501  0.00000000000E+00  0.00000000000E+00  0.23737124759E+03  0.23737124759E+03  0.00000000000E+00 0.  1.
         21   -1    0    0  501  502 -0.00000000000E+00 -0.00000000000E+00 -0.22361052369E+03  0.22361052369E+03  0.00000000000E+00 0.  1.
      99926    2    1    2    0    0  0.00000000000E+00 -0.88817841970E-15  0.13760723908E+02  0.46098177128E+03  0.46077634046E+03 0.  0.
      99925    2    3    3    0    0 -0.11834256055E+03 -0.69242997904E+01  0.11122872384E+02  0.28862349928E+03  0.26291994691E+03 0.  0.
         25    1    4    4    0    0 -0.26494944845E+02 -0.22561120258E+02 -0.14171854097E+02  0.13061139230E+03  0.12509000000E+03 0.  0.
         25    1    3    3    0    0  0.11834256055E+03  0.69242997904E+01  0.26378515241E+01  0.17235827200E+03  0.12509000000E+03 0.  0.
         25    1    4    4    0    0 -0.91847615707E+02  0.15636820468E+02  0.25294726482E+02  0.15801210698E+03  0.12509000000E+03 0.  0.
<mgrwt>
<rscale>  2 0.46077634E+03</rscale>
<asrwt>0</asrwt>
<pdfrwt beam="1">  1       21 0.34907537E-01 0.46077634E+03</pdfrwt>
<pdfrwt beam="2">  1       21 0.32883900E-01 0.46077634E+03</pdfrwt>
<totfact> 0.65059172E+04</totfact>
</mgrwt>
</event>
<event>
 7    0  0.4862196E-002  0.4168674E+03  0.7546771E-02  0.1038091E+00
         21   -1    0    0  502  501  0.00000000000E+00  0.00000000000E+00  0.10157896602E+03  0.10157896602E+03  0.00000000000E+00 0.  1.
         21   -1    0    0  501  502 -0.00000000000E+00 -0.00000000000E+00 -0.42769296917E+03  0.42769296917E+03  0.00000000000E+00 0.  1.
      99926    2    1    2    0    0  0.17763568394E-14  0.00000000000E+00 -0.32611400314E+03  0.52927193519E+03  0.41686741098E+03 0.  0.
      99925    2    3    3    0    0  0.13199267333E+02  0.69775371575E+02 -0.20017792531E+03  0.33809079873E+03  0.26304251229E+03 0.  0.
         25    1    3    3    0    0 -0.13199267333E+02 -0.69775371575E+02 -0.12593607784E+03  0.19118113646E+03  0.12509000000E+03 0.  0.
         25    1    4    4    0    0 -0.25700165234E+01  0.11093938003E+02 -0.13535778807E+03  0.18465892704E+03  0.12509000000E+03 0.  0.
         25    1    4    4    0    0  0.15769283856E+02  0.58681433572E+02 -0.64820137237E+02  0.15343187169E+03  0.12509000000E+03 0.  0.
<mgrwt>
<rscale>  2 0.41686741E+03</rscale>
<asrwt>0</asrwt>
<pdfrwt beam="1">  1       21 0.14938084E-01 0.41686741E+03</pdfrwt>
<pdfrwt beam="2">  1       21 0.62896024E-01 0.41686741E+03</pdfrwt>
<totfact> 0.86579615E+04</totfact>
</mgrwt>
</event>
<event>
 7    0  0.4831799E-002  0.4577880E+03  0.7546771E-02  0.1025425E+00
         21   -1    0    0  502  501  0.00000000000E+00  0.00000000000E+00  0.25863776441E+03  0.25863776441E+03  0.00000000000E+00 0. -1.
         21   -1    0    0  501  502 -0.00000000000E+00 -0.00000000000E+00 -0.20257078436E+03  0.20257078436E+03  0.00000000000E+00 0. -1.
      99926    2    1    2    0    0  0.19984014443E-14  0.00000000000E+00  0.56066980048E+02  0.46120854877E+03  0.45778796315E+03 0.  0.
      99925    2    3    3    0    0 -0.16718334344E+01  0.10670886235E+03  0.80456303837E+02  0.29498002069E+03  0.26296467338E+03 0.  0.
         25    1    4    4    0    0  0.27992710404E+02  0.83786806000E+02  0.40144304216E+02  0.15831264623E+03  0.12509000000E+03 0.  0.
         25    1    3    3    0    0  0.16718334344E+01 -0.10670886235E+03 -0.24389323789E+02  0.16622852808E+03  0.12509000000E+03 0.  0.
         25    1    4    4    0    0 -0.29664543838E+02  0.22922056355E+02  0.40311999621E+02  0.13666737446E+03  0.12509000000E+03 0.  0.
<mgrwt>
<rscale>  2 0.45778796E+03</rscale>
<asrwt>0</asrwt>
<pdfrwt beam="1">  1       21 0.38034965E-01 0.45778796E+03</pdfrwt>
<pdfrwt beam="2">  1       21 0.29789821E-01 0.45778796E+03</pdfrwt>
<totfact> 0.66599419E+04</totfact>
</mgrwt>
</event>
<event>
 7    0  0.4831799E-002  0.4833646E+03  0.7546771E-02  0.1018215E+00
         21   -1    0    0  502  501  0.00000000000E+00  0.00000000000E+00  0.60040813385E+02  0.60040813385E+02  0.00000000000E+00 0. -1.
         21   -1    0    0  501  502 -0.00000000000E+00 -0.00000000000E+00 -0.97284379421E+03  0.97284379421E+03  0.00000000000E+00 0. -1.
      99926    2    1    2    0    0  0.00000000000E+00  0.00000000000E+00 -0.91280298083E+03  0.10328846076E+04  0.48336459407E+03 0.  0.
      99925    2    3    3    0    0 -0.13648941122E+03  0.69460609098E+01 -0.51260294999E+03  0.59187986848E+03  0.26245454320E+03 0.  0.
         25    1    3    3    0    0  0.13648941122E+03 -0.69460609098E+01 -0.40020003084E+03  0.44100473911E+03  0.12509000000E+03 0.  0.
         25    1    4    4    0    0 -0.95017605764E+02 -0.44227532942E+01 -0.21598475810E+03  0.26710453007E+03  0.12509000000E+03 0.  0.
         25    1    4    4    0    0 -0.41471805452E+02  0.11368814204E+02 -0.29661819188E+03  0.32477533841E+03  0.12509000000E+03 0.  0.
<mgrwt>
<rscale>  2 0.48336459E+03</rscale>
<asrwt>0</asrwt>
<pdfrwt beam="1">  1       21 0.88295313E-02 0.48336459E+03</pdfrwt>
<pdfrwt beam="2">  1       21 0.14306527E+00 0.48336459E+03</pdfrwt>
<totfact> 0.30561839E+04</totfact>
</mgrwt>
</event>
<event>
 7    0  0.4831799E-002  0.4537153E+03  0.7546771E-02  0.1026620E+00
         21   -1    0    0  502  501  0.00000000000E+00  0.00000000000E+00  0.72161736562E+02  0.72161736562E+02  0.00000000000E+00 0.  1.
         21   -1    0    0  501  502 -0.00000000000E+00 -0.00000000000E+00 -0.71318116685E+03  0.71318116685E+03  0.00000000000E+00 0.  1.
      99926    2    1    2    0    0  0.14210854715E-13 -0.39968028887E-14 -0.64101943029E+03  0.78534290341E+03  0.45371529171E+03 0.  0.
      99925    2    3    3    0    0  0.11002046828E+03  0.21769696020E+01 -0.36814652449E+03  0.46562994863E+03  0.26300217286E+03 0.  0.
         25    1    4    4    0    0  0.70823631439E+02 -0.36607551150E+02 -0.18702528384E+03  0.23870916293E+03  0.12509000000E+03 0.  0.
         25    1    3    3    0    0 -0.11002046828E+03 -0.21769696020E+01 -0.27287290580E+03  0.31971295478E+03  0.12509000000E+03 0.  0.
         25    1    4    4    0    0  0.39196836837E+02  0.38784520752E+02 -0.18112124065E+03  0.22692078570E+03  0.12509000000E+03 0.  0.
<mgrwt>
<rscale>  2 0.45371529E+03</rscale>
<asrwt>0</asrwt>
<pdfrwt beam="1">  1       21 0.10612021E-01 0.45371529E+03</pdfrwt>
<pdfrwt beam="2">  1       21 0.10487958E+00 0.45371529E+03</pdfrwt>
<totfact> 0.48973921E+04</totfact>
</mgrwt>
</event>
<event>
 7    0  0.4831799E-002  0.4682153E+03  0.7546771E-02  0.1022425E+00
         21   -1    0    0  502  501  0.00000000000E+00  0.00000000000E+00  0.68865562076E+03  0.68865562076E+03  0.00000000000E+00 0. -1.
         21   -1    0    0  501  502 -0.00000000000E+00 -0.00000000000E+00 -0.79584612365E+02  0.79584612365E+02  0.00000000000E+00 0. -1.
      99926    2    1    2    0    0  0.14210854715E-13  0.00000000000E+00  0.60907100839E+03  0.76824023312E+03  0.46821529505E+03 0.  0.
      99925    2    3    3    0    0 -0.85420408789E+02 -0.74011174924E+02  0.29100504323E+03  0.40825722443E+03  0.26308881744E+03 0.  0.
         25    1    3    3    0    0  0.85420408789E+02  0.74011174924E+02  0.31806596517E+03  0.35998300869E+03  0.12509000000E+03 0.  0.
         25    1    4    4    0    0 -0.73390446170E+02 -0.42376996395E+02  0.19647690878E+03  0.24785610986E+03  0.12509000000E+03 0.  0.
         25    1    4    4    0    0 -0.12029962619E+02 -0.31634178529E+02  0.94528134447E+02  0.16040111457E+03  0.12509000000E+03 0.  0.
<mgrwt>
<rscale>  2 0.46821530E+03</rscale>
<asrwt>0</asrwt>
<pdfrwt beam="1">  1       21 0.10127288E+00 0.46821530E+03</pdfrwt>
<pdfrwt beam="2">  1       21 0.11703620E-01 0.46821530E+03</pdfrwt>
<totfact> 0.44536061E+04</totfact>
</mgrwt>
</event>
<event>
 7    0  0.4831799E-002  0.4764433E+03  0.7546771E-02  0.1020117E+00
         21   -1    0    0  502  501  0.00000000000E+00  0.00000000000E+00  0.62883639810E+02  0.62883639810E+02  0.00000000000E+00 0. -1.
         21   -1    0    0  501  502 -0.00000000000E+00 -0.00000000000E+00 -0.90245323897E+03  0.90245323897E+03  0.00000000000E+00 0. -1.
      99926    2    1    2    0    0  0.00000000000E+00  0.00000000000E+00 -0.83956959916E+03  0.96533687878E+03  0.47644325759E+03 0.  0.
      99925    2    3    3    0    0 -0.72741720046E+01  0.13183010344E+03 -0.50236870079E+03  0.58221282092E+03  0.26299309412E+03 0.  0.
         25    1    4    4    0    0 -0.95297714638E+01  0.10995535635E+03 -0.26921488518E+03  0.31670989792E+03  0.12509000000E+03 0.  0.
         25    1    4    4    0    0  0.22555994592E+01  0.21874747096E+02 -0.23315381561E+03  0.26550292300E+03  0.12509000000E+03 0.  0.
         25    1    3    3    0    0  0.72741720046E+01 -0.13183010344E+03 -0.33720089837E+03  0.38312405786E+03  0.12509000000E+03 0.  0.
<mgrwt>
<rscale>  2 0.47644326E+03</rscale>
<asrwt>0</asrwt>
<pdfrwt beam="1">  1       21 0.92475946E-02 0.47644326E+03</pdfrwt>
<pdfrwt beam="2">  1       21 0.13271370E+00 0.47644326E+03</pdfrwt>
<totfact> 0.34386551E+04</totfact>
</mgrwt>
</event>
<event>
 7    0  0.4831799E-002  0.4688024E+03  0.7546771E-02  0.1022259E+00
         21   -1    0    0  502  501  0.00000000000E+00  0.00000000000E+00  0.18180268448E+02  0.18180268448E+02  0.00000000000E+00 0.  1.
         21   -1    0    0  501  502 -0.00000000000E+00 -0.00000000000E+00 -0.30221737644E+04  0.30221737644E+04  0.00000000000E+00 0.  1.
      99926    2    1    2    0    0  0.71054273576E-14  0.00000000000E+00 -0.30039934960E+04  0.30403540329E+04  0.46880243316E+03 0.  0.
      99925    2    3    3    0    0 -0.32236665151E+02 -0.11523371611E+03 -0.16187186714E+04  0.16443053734E+04  0.26300572607E+03 0.  0.
         25    1    4    4    0    0 -0.43815221457E+02 -0.61433989417E+02 -0.10044981252E+04  0.10150654660E+04  0.12509000000E+03 0.  0.
         25    1    3    3    0    0  0.32236665151E+02  0.11523371611E+03 -0.13852748246E+04  0.13960486595E+04  0.12509000000E+03 0.  0.
         25    1    4    4    0    0  0.11578556307E+02 -0.53799726697E+02 -0.61422054621E+03  0.62923990738E+03  0.12509000000E+03 0.  0.
<mgrwt>
<rscale>  2 0.46880243E+03</rscale>
<asrwt>0</asrwt>
<pdfrwt beam="1">  1       21 0.26735687E-02 0.46880243E+03</pdfrwt>
<pdfrwt beam="2">  1       21 0.44443735E+00 0.46880243E+03</pdfrwt>
<totfact> 0.27245843E+03</totfact>
</mgrwt>
</event>
<event>
 7    0  0.4831799E-002  0.4639706E+03  0.7546771E-02  0.1023636E+00
         21   -1    0    0  502  501  0.00000000000E+00  0.00000000000E+00  0.21300234808E+03  0.21300234808E+03  0.00000000000E+00 0.  1.
         21   -1    0    0  501  502 -0.00000000000E+00 -0.00000000000E+00 -0.25266006719E+03  0.25266006719E+03  0.00000000000E+00 0.  1.
      99926    2    1    2    0    0  0.00000000000E+00  0.00000000000E+00 -0.39657719111E+02  0.46566241526E+03  0.46397063518E+03 0.  0.
      99925    2    3    3    0    0 -0.95550491561E+02  0.16046133687E+02  0.48544114303E+02  0.28451483355E+03  0.26306802282E+03 0.  0.
         25    1    4    4    0    0 -0.37670055971E+02  0.20914355846E+02  0.61677848325E+02  0.14597297172E+03  0.12509000000E+03 0.  0.
         25    1    3    3    0    0  0.95550491561E+02 -0.16046133687E+02 -0.88201833413E+02  0.18114758172E+03  0.12509000000E+03 0.  0.
         25    1    4    4    0    0 -0.57880435590E+02 -0.48682221585E+01 -0.13133734023E+02  0.13854186183E+03  0.12509000000E+03 0.  0.
<mgrwt>
<rscale>  2 0.46397064E+03</rscale>
<asrwt>0</asrwt>
<pdfrwt beam="1">  1       21 0.31323875E-01 0.46397064E+03</pdfrwt>
<pdfrwt beam="2">  1       21 0.37155892E-01 0.46397064E+03</pdfrwt>
<totfact> 0.63130700E+04</totfact>
</mgrwt>
</event>
<event>
 7    0  0.4831799E-002  0.4604143E+03  0.7546771E-02  0.1024661E+00
         21   -1    0    0  502  501  0.00000000000E+00  0.00000000000E+00  0.69269897524E+02  0.69269897524E+02  0.00000000000E+00 0. -1.
         21   -1    0    0  501  502 -0.00000000000E+00 -0.00000000000E+00 -0.76505578756E+03  0.76505578756E+03  0.00000000000E+00 0. -1.
      99926    2    1    2    0    0 -0.14210854715E-13 -0.14210854715E-13 -0.69578589003E+03  0.83432568508E+03  0.46041431778E+03 0.  0.
      99925    2    3    3    0    0 -0.78828846193E+02 -0.63887237149E+02 -0.32641178849E+03  0.43136129329E+03  0.26312039757E+03 0.  0.
         25    1    4    4    0    0 -0.29924887894E+02  0.33297919101E+01 -0.18295715542E+03  0.22366809171E+03  0.12509000000E+03 0.  0.
         25    1    3    3    0    0  0.78828846193E+02  0.63887237149E+02 -0.36937410154E+03  0.40296439179E+03  0.12509000000E+03 0.  0.
         25    1    4    4    0    0 -0.48903958299E+02 -0.67217029059E+02 -0.14345463307E+03  0.20769320158E+03  0.12509000000E+03 0.  0.
<mgrwt>
<rscale>  2 0.46041432E+03</rscale>
<asrwt>0</asrwt>
<pdfrwt beam="1">  1       21 0.10186750E-01 0.46041432E+03</pdfrwt>
<pdfrwt beam="2">  1       21 0.11250820E+00 0.46041432E+03</pdfrwt>
<totfact> 0.44239453E+04</totfact>
</mgrwt>
</event>
<event>
 7    0  0.4831799E-002  0.4594388E+03  0.7546771E-02  0.1024944E+00
         21   -1    0    0  502  501  0.00000000000E+00  0.00000000000E+00  0.57180884725E+02  0.57180884725E+02  0.00000000000E+00 0. -1.
         21   -1    0    0  501  502 -0.00000000000E+00 -0.00000000000E+00 -0.92287847200E+03  0.92287847200E+03  0.00000000000E+00 0. -1.
      99926    2    1    2    0    0  0.00000000000E+00  0.00000000000E+00 -0.86569758727E+03  0.98005935672E+03  0.45943882084E+03 0.  0.
      99925    2    3    3    0    0  0.50049439793E+02 -0.40314414138E+02 -0.75184645951E+03  0.79911796897E+03  0.26303275696E+03 0.  0.
         25    1    4    4    0    0  0.61819375051E+01 -0.44607233105E+02 -0.29848786512E+03  0.32675760943E+03  0.12509000000E+03 0.  0.
         25    1    3    3    0    0 -0.50049439793E+02  0.40314414138E+02 -0.11385112776E+03  0.18094138776E+03  0.12509000000E+03 0.  0.
         25    1    4    4    0    0  0.43867502288E+02  0.42928189676E+01 -0.45335859440E+03  0.47236035954E+03  0.12509000000E+03 0.  0.
<mgrwt>
<rscale>  2 0.45943882E+03</rscale>
<asrwt>0</asrwt>
<pdfrwt beam="1">  1       21 0.84089537E-02 0.45943882E+03</pdfrwt>
<pdfrwt beam="2">  1       21 0.13571742E+00 0.45943882E+03</pdfrwt>
<totfact> 0.38590337E+04</totfact>
</mgrwt>
</event>
<event>
 7    0  0.4831799E-002  0.4515100E+03  0.7546771E-02  0.1027273E+00
         21   -1    0    0  502  501  0.00000000000E+00  0.00000000000E+00  0.13256108974E+03  0.13256108974E+03  0.00000000000E+00 0.  1.
         21   -1    0    0  501  502 -0.00000000000E+00 -0.00000000000E+00 -0.38446670586E+03  0.38446670586E+03  0.00000000000E+00 0.  1.
      99926    2    1    2    0    0  0.00000000000E+00 -0.14210854715E-13 -0.25190561612E+03  0.51702779559E+03  0.45151002423E+03 0.  0.
      99925    2    3    3    0    0 -0.31453303229E+02 -0.10443065844E+03 -0.14224000138E+03  0.31810789246E+03  0.26280285490E+03 0.  0.
         25    1    4    4    0    0 -0.39543262594E+02 -0.30950222839E+02 -0.96509763523E+02  0.16578066373E+03  0.12509000000E+03 0.  0.
         25    1    3    3    0    0  0.31453303229E+02  0.10443065844E+03 -0.10966561473E+03  0.19891990313E+03  0.12509000000E+03 0.  0.
         25    1    4    4    0    0  0.80899593652E+01 -0.73480435605E+02 -0.45730237860E+02  0.15232722873E+03  0.12509000000E+03 0.  0.
<mgrwt>
<rscale>  2 0.45151002E+03</rscale>
<asrwt>0</asrwt>
<pdfrwt beam="1">  1       21 0.19494278E-01 0.45151002E+03</pdfrwt>
<pdfrwt beam="2">  1       21 0.56539222E-01 0.45151002E+03</pdfrwt>
<totfact> 0.65896033E+04</totfact>
</mgrwt>
</event>
<event>
 7    0  0.4831799E-002  0.4552443E+03  0.7546771E-02  0.1026170E+00
         21   -1    0    0  502  501  0.00000000000E+00  0.00000000000E+00  0.22052171995E+03  0.22052171995E+03  0.00000000000E+00 0. -1.
         21   -1    0    0  501  502 -0.00000000000E+00 -0.00000000000E+00 -0.23495121038E+03  0.23495121038E+03  0.00000000000E+00 0. -1.
      99926    2    1    2    0    0  0.13322676296E-14  0.00000000000E+00 -0.14429490427E+02  0.45547293033E+03  0.45524430811E+03 0.  0.
      99925    2    3    3    0    0  0.29471669069E+01 -0.38040207398E+02  0.97750822663E+02  0.28317181624E+03  0.26301199784E+03 0.  0.
         25    1    4    4    0    0  0.23137440927E+02 -0.49395519821E+02  0.68244425455E+02  0.15257807266E+03  0.12509000000E+03 0.  0.
         25    1    3    3    0    0 -0.29471669069E+01  0.38040207398E+02 -0.11218031309E+03  0.17230111409E+03  0.12509000000E+03 0.  0.
         25    1    4    4    0    0 -0.20190274021E+02  0.11355312423E+02  0.29506397208E+02  0.13059374358E+03  0.12509000000E+03 0.  0.
<mgrwt>
<rscale>  2 0.45524431E+03</rscale>
<asrwt>0</asrwt>
<pdfrwt beam="1">  1       21 0.32429665E-01 0.45524431E+03</pdfrwt>
<pdfrwt beam="2">  1       21 0.34551648E-01 0.45524431E+03</pdfrwt>
<totfact> 0.68377784E+04</totfact>
</mgrwt>
</event>
<event>
 7    0  0.4831799E-002  0.4552890E+03  0.7546771E-02  0.1026156E+00
         21   -1    0    0  502  501  0.00000000000E+00  0.00000000000E+00  0.49084531464E+03  0.49084531464E+03  0.00000000000E+00 0. -1.
         21   -1    0    0  501  502 -0.00000000000E+00 -0.00000000000E+00 -0.10557709571E+03  0.10557709571E+03  0.00000000000E+00 0. -1.
      99926    2    1    2    0    0  0.35527136788E-14  0.00000000000E+00  0.38526821893E+03  0.59642241035E+03  0.45528901926E+03 0.  0.
      99925    2    3    3    0    0  0.31808027352E+02 -0.50213509423E+02  0.11568891166E+03  0.29334872601E+03  0.26293802243E+03 0.  0.
         25    1    4    4    0    0 -0.19079500189E+02 -0.33915439067E+02  0.76881978276E+02  0.15189677751E+03  0.12509000000E+03 0.  0.
         25    1    3    3    0    0 -0.31808027352E+02  0.50213509423E+02  0.26957930727E+03  0.30307368434E+03  0.12509000000E+03 0.  0.
         25    1    4    4    0    0  0.50887527540E+02 -0.16298070356E+02  0.38806933383E+02  0.14145194850E+03  0.12509000000E+03 0.  0.
<mgrwt>
<rscale>  2 0.45528902E+03</rscale>
<asrwt>0</asrwt>
<pdfrwt beam="1">  1       21 0.72183133E-01 0.45528902E+03</pdfrwt>
<pdfrwt beam="2">  1       21 0.15526044E-01 0.45528902E+03</pdfrwt>
<totfact> 0.58764694E+04</totfact>
</mgrwt>
</event>
<event>
 7    0  0.4831799E-002  0.4574597E+03  0.7546771E-02  0.1025521E+00
         21   -1    0    0  502  501  0.00000000000E+00  0.00000000000E+00  0.25375657983E+03  0.25375657983E+03  0.00000000000E+00 0. -1.
         21   -1    0    0  501  502 -0.00000000000E+00 -0.00000000000E+00 -0.20617140859E+03  0.20617140859E+03  0.00000000000E+00 0. -1.
      99926    2    1    2    0    0  0.00000000000E+00  0.00000000000E+00  0.47585171235E+02  0.45992798842E+03  0.45745973157E+03 0.  0.
      99925    2    3    3    0    0  0.16633055888E+02 -0.30875536902E+02 -0.80736385956E+02  0.27732490119E+03  0.26298437116E+03 0.  0.
         25    1    3    3    0    0 -0.16633055888E+02  0.30875536902E+02  0.12832155719E+03  0.18260308723E+03  0.12509000000E+03 0.  0.
         25    1    4    4    0    0  0.46911029228E+02 -0.27520011089E+02 -0.46413496241E+02  0.14408232510E+03  0.12509000000E+03 0.  0.
         25    1    4    4    0    0 -0.30277973340E+02 -0.33555258129E+01 -0.34322889715E+02  0.13324257608E+03  0.12509000000E+03 0.  0.
<mgrwt>
<rscale>  2 0.45745973E+03</rscale>
<asrwt>0</asrwt>
<pdfrwt beam="1">  1       21 0.37317144E-01 0.45745973E+03</pdfrwt>
<pdfrwt beam="2">  1       21 0.30319325E-01 0.45745973E+03</pdfrwt>
<totfact> 0.66864362E+04</totfact>
</mgrwt>
</event>
<event>
 7    0  0.4831799E-002  0.4465040E+03  0.7546771E-02  0.1028770E+00
         21   -1    0    0  502  501  0.00000000000E+00  0.00000000000E+00  0.10424378264E+03  0.10424378264E+03  0.00000000000E+00 0.  1.
         21   -1    0    0  501  502 -0.00000000000E+00 -0.00000000000E+00 -0.47812394172E+03  0.47812394172E+03  0.00000000000E+00 0.  1.
      99926    2    1    2    0    0  0.00000000000E+00  0.35527136788E-14 -0.37388015908E+03  0.58236772437E+03  0.44650396754E+03 0.  0.
      99925    2    3    3    0    0 -0.78902206864E+02  0.27126248356E+02 -0.32068283314E+03  0.42287209689E+03  0.26272026807E+03 0.  0.
         25    1    3    3    0    0  0.78902206864E+02 -0.27126248356E+02 -0.53197325937E+02  0.15949562748E+03  0.12509000000E+03 0.  0.
         25    1    4    4    0    0 -0.49423588621E+02  0.22353159798E+02 -0.22298601283E+03  0.26136683967E+03  0.12509000000E+03 0.  0.
         25    1    4    4    0    0 -0.29478618243E+02  0.47730885585E+01 -0.97696820319E+02  0.16150525722E+03  0.12509000000E+03 0.  0.
<mgrwt>
<rscale>  2 0.44650397E+03</rscale>
<asrwt>0</asrwt>
<pdfrwt beam="1">  1       21 0.15329968E-01 0.44650397E+03</pdfrwt>
<pdfrwt beam="2">  1       21 0.70312345E-01 0.44650397E+03</pdfrwt>
<totfact> 0.63965890E+04</totfact>
</mgrwt>
</event>
<event>
 7    0  0.4831799E-002  0.4554385E+03  0.7546771E-02  0.1026113E+00
         21   -1    0    0  502  501  0.00000000000E+00  0.00000000000E+00  0.15846368020E+03  0.15846368020E+03  0.00000000000E+00 0.  1.
         21   -1    0    0  501  502 -0.00000000000E+00 -0.00000000000E+00 -0.32724255079E+03  0.32724255079E+03  0.00000000000E+00 0.  1.
      99926    2    1    2    0    0 -0.71054273576E-14  0.14210854715E-13 -0.16877887059E+03  0.48570623099E+03  0.45543850920E+03 0.  0.
      99925    2    3    3    0    0  0.61487463223E+02 -0.74420549919E+02 -0.42360122177E+02  0.28334928292E+03  0.26300819340E+03 0.  0.
         25    1    3    3    0    0 -0.61487463223E+02  0.74420549919E+02 -0.12641874841E+03  0.20235694808E+03  0.12509000000E+03 0.  0.
         25    1    4    4    0    0  0.12030583526E+02 -0.65743656015E+02  0.76320630519E+00  0.14182754962E+03  0.12509000000E+03 0.  0.
         25    1    4    4    0    0  0.49456879696E+02 -0.86768939044E+01 -0.43123328482E+02  0.14152173330E+03  0.12509000000E+03 0.  0.
<mgrwt>
<rscale>  2 0.45543851E+03</rscale>
<asrwt>0</asrwt>
<pdfrwt beam="1">  1       21 0.23303482E-01 0.45543851E+03</pdfrwt>
<pdfrwt beam="2">  1       21 0.48123905E-01 0.45543851E+03</pdfrwt>
<totfact> 0.66056772E+04</totfact>
</mgrwt>
</event>
<event>
 7    0  0.4831799E-002  0.4499163E+03  0.7546771E-02  0.1027747E+00
         21   -1    0    0  502  501  0.00000000000E+00  0.00000000000E+00  0.61477854758E+03  0.61477854758E+03  0.00000000000E+00 0. -1.
         21   -1    0    0  501  502 -0.00000000000E+00 -0.00000000000E+00 -0.82316094849E+02  0.82316094849E+02  0.00000000000E+00 0. -1.
      99926    2    1    2    0    0  0.00000000000E+00  0.00000000000E+00  0.53246245273E+03  0.69709464243E+03  0.44991629992E+03 0.  0.
      99925    2    3    3    0    0 -0.68098210334E+02  0.67224865023E+02  0.25781108415E+03  0.38049168746E+03  0.26296543574E+03 0.  0.
         25    1    4    4    0    0 -0.56438155242E+01  0.56618687103E+01  0.95383334512E+02  0.15750999338E+03  0.12509000000E+03 0.  0.
         25    1    3    3    0    0  0.68098210334E+02 -0.67224865023E+02  0.27465136859E+03  0.31660295497E+03  0.12509000000E+03 0.  0.
         25    1    4    4    0    0 -0.62454394810E+02  0.61562996313E+02  0.16242774963E+03  0.22298169409E+03  0.12509000000E+03 0.  0.
<mgrwt>
<rscale>  2 0.44991630E+03</rscale>
<asrwt>0</asrwt>
<pdfrwt beam="1">  1       21 0.90408607E-01 0.44991630E+03</pdfrwt>
<pdfrwt beam="2">  1       21 0.12105308E-01 0.44991630E+03</pdfrwt>
<totfact> 0.55238138E+04</totfact>
</mgrwt>
</event>
<event>
 7    0  0.4831799E-002  0.4548275E+03  0.7546771E-02  0.1026292E+00
         21   -1    0    0  502  501  0.00000000000E+00  0.00000000000E+00  0.78573875194E+03  0.78573875194E+03  0.00000000000E+00 0. -1.
         21   -1    0    0  501  502 -0.00000000000E+00 -0.00000000000E+00 -0.65819599417E+02  0.65819599417E+02  0.00000000000E+00 0. -1.
      99926    2    1    2    0    0  0.00000000000E+00  0.00000000000E+00  0.71991915252E+03  0.85155835136E+03  0.45482748334E+03 0.  0.
      99925    2    3    3    0    0  0.47427896168E+02 -0.89506277915E+02  0.35810835224E+03  0.45555918163E+03  0.26273902813E+03 0.  0.
         25    1    4    4    0    0  0.22380785390E+02 -0.12331321905E+02  0.12383730371E+03  0.17786553052E+03  0.12509000000E+03 0.  0.
         25    1    4    4    0    0  0.25047110777E+02 -0.77174956010E+02  0.23427104852E+03  0.27769365111E+03  0.12509000000E+03 0.  0.
         25    1    3    3    0    0 -0.47427896168E+02  0.89506277915E+02  0.36181080029E+03  0.39599916973E+03  0.12509000000E+03 0.  0.
<mgrwt>
<rscale>  2 0.45482748E+03</rscale>
<asrwt>0</asrwt>
<pdfrwt beam="1">  1       21 0.11554981E+00 0.45482748E+03</pdfrwt>
<pdfrwt beam="2">  1       21 0.96793533E-02 0.45482748E+03</pdfrwt>
<totfact> 0.45431197E+04</totfact>
</mgrwt>
</event>
<event>
 7    0  0.4831799E-002  0.4538686E+03  0.7546771E-02  0.1026575E+00
         21   -1    0    0  502  501  0.00000000000E+00  0.00000000000E+00  0.61763546286E+03  0.61763546286E+03  0.00000000000E+00 0. -1.
         21   -1    0    0  501  502 -0.00000000000E+00 -0.00000000000E+00 -0.83381200203E+02  0.83381200203E+02  0.00000000000E+00 0. -1.
      99926    2    1    2    0    0  0.00000000000E+00  0.00000000000E+00  0.53425426265E+03  0.70101666306E+03  0.45386864259E+03 0.  0.
      99925    2    3    3    0    0  0.52885712224E+02 -0.12621838863E+02  0.18524480631E+03  0.32630168059E+03  0.26306071374E+03 0.  0.
         25    1    4    4    0    0  0.54222968868E+02 -0.31329475566E+02  0.76192501705E+02  0.15929366531E+03  0.12509000000E+03 0.  0.
         25    1    3    3    0    0 -0.52885712224E+02  0.12621838863E+02  0.34900945634E+03  0.37471498248E+03  0.12509000000E+03 0.  0.
         25    1    4    4    0    0 -0.13372566440E+01  0.18707636703E+02  0.10905230460E+03  0.16700801527E+03  0.12509000000E+03 0.  0.
<mgrwt>
<rscale>  2 0.45386864E+03</rscale>
<asrwt>0</asrwt>
<pdfrwt beam="1">  1       21 0.90828742E-01 0.45386864E+03</pdfrwt>
<pdfrwt beam="2">  1       21 0.12261942E-01 0.45386864E+03</pdfrwt>
<totfact> 0.53320939E+04</totfact>
</mgrwt>
</event>
<event>
 7    0  0.4831799E-002  0.4466106E+03  0.7546771E-02  0.1028738E+00
         21   -1    0    0  502  501  0.00000000000E+00  0.00000000000E+00  0.37402089817E+03  0.37402089817E+03  0.00000000000E+00 0.  1.
         21   -1    0    0  501  502 -0.00000000000E+00 -0.00000000000E+00 -0.13332213339E+03  0.13332213339E+03  0.00000000000E+00 0.  1.
      99926    2    1    2    0    0  0.71054273576E-14  0.00000000000E+00  0.24069876478E+03  0.50734303156E+03  0.44661063165E+03 0.  0.
      99925    2    3    3    0    0  0.63196055127E+02  0.66810855654E+02  0.21048649716E+03  0.34917311965E+03  0.26298264237E+03 0.  0.
         25    1    4    4    0    0  0.44906562775E+02  0.15825220554E+02  0.61694469239E+02  0.14737962078E+03  0.12509000000E+03 0.  0.
         25    1    3    3    0    0 -0.63196055127E+02 -0.66810855654E+02  0.30212267621E+02  0.15816991190E+03  0.12509000000E+03 0.  0.
         25    1    4    4    0    0  0.18289492352E+02  0.50985635100E+02  0.14879202792E+03  0.20179349888E+03  0.12509000000E+03 0.  0.
<mgrwt>
<rscale>  2 0.44661063E+03</rscale>
<asrwt>0</asrwt>
<pdfrwt beam="1">  1       21 0.55003073E-01 0.44661063E+03</pdfrwt>
<pdfrwt beam="2">  1       21 0.19606196E-01 0.44661063E+03</pdfrwt>
<totfact> 0.69254944E+04</totfact>
</mgrwt>
</event>
<event>
 7    0  0.4831799E-002  0.4535502E+03  0.7546771E-02  0.1026669E+00
         21   -1    0    0  502  501  0.00000000000E+00  0.00000000000E+00  0.94906736454E+02  0.94906736454E+02  0.00000000000E+00 0. -1.
         21   -1    0    0  501  502 -0.00000000000E+00 -0.00000000000E+00 -0.54186833371E+03  0.54186833371E+03  0.00000000000E+00 0. -1.
      99926    2    1    2    0    0  0.00000000000E+00  0.00000000000E+00 -0.44696159726E+03  0.63677507017E+03  0.45355024040E+03 0.  0.
      99925    2    3    3    0    0 -0.26114206398E+02 -0.85434009275E+02 -0.37628734413E+03  0.46759091053E+03  0.26280824291E+03 0.  0.
         25    1    4    4    0    0  0.85218929199E+01 -0.37979627396E+02 -0.12644833865E+03  0.18207626205E+03  0.12509000000E+03 0.  0.
         25    1    4    4    0    0 -0.34636099318E+02 -0.47454381879E+02 -0.24983900548E+03  0.28551464848E+03  0.12509000000E+03 0.  0.
         25    1    3    3    0    0  0.26114206398E+02  0.85434009275E+02 -0.70674253128E+02  0.16918415964E+03  0.12509000000E+03 0.  0.
<mgrwt>
<rscale>  2 0.45355024E+03</rscale>
<asrwt>0</asrwt>
<pdfrwt beam="1">  1       21 0.13956873E-01 0.45355024E+03</pdfrwt>
<pdfrwt beam="2">  1       21 0.79686521E-01 0.45355024E+03</pdfrwt>
<totfact> 0.57120648E+04</totfact>
</mgrwt>
</event>
<event>
 7    0  0.4831799E-002  0.4465412E+03  0.7546771E-02  0.1028759E+00
         21   -1    0    0  502  501  0.00000000000E+00  0.00000000000E+00  0.12479051388E+04  0.12479051388E+04  0.00000000000E+00 0. -1.
         21   -1    0    0  501  502 -0.00000000000E+00 -0.00000000000E+00 -0.39946757006E+02  0.39946757006E+02  0.00000000000E+00 0. -1.
      99926    2    1    2    0    0  0.35527136788E-14  0.71054273576E-14  0.12079583818E+04  0.12878518958E+04  0.44654121130E+03 0.  0.
      99925    2    3    3    0    0  0.27355617809E+02  0.54728526257E+02  0.10123575832E+04  0.10477462484E+04  0.26298437851E+03 0.  0.
         25    1    4    4    0    0  0.34537887188E+02 -0.29757676276E+01  0.55862707305E+03  0.57350975204E+03  0.12509000000E+03 0.  0.
         25    1    3    3    0    0 -0.27355617809E+02 -0.54728526257E+02  0.19560079861E+03  0.24010564743E+03  0.12509000000E+03 0.  0.
         25    1    4    4    0    0 -0.71822693785E+01  0.57704293885E+02  0.45373051013E+03  0.47423649633E+03  0.12509000000E+03 0.  0.
<mgrwt>
<rscale>  2 0.44654121E+03</rscale>
<asrwt>0</asrwt>
<pdfrwt beam="1">  1       21 0.18351544E+00 0.44654121E+03</pdfrwt>
<pdfrwt beam="2">  1       21 0.58745239E-02 0.44654121E+03</pdfrwt>
<totfact> 0.31491005E+04</totfact>
</mgrwt>
</event>
<event>
 7    0  0.4831799E-002  0.4341064E+03  0.7546771E-02  0.1032571E+00
         21   -1    0    0  502  501  0.00000000000E+00  0.00000000000E+00  0.19949502930E+03  0.19949502930E+03  0.00000000000E+00 0.  1.
         21   -1    0    0  501  502 -0.00000000000E+00 -0.00000000000E+00 -0.23615674904E+03  0.23615674904E+03  0.00000000000E+00 0.  1.
      99926    2    1    2    0    0  0.00000000000E+00  0.00000000000E+00 -0.36661719734E+02  0.43565177834E+03  0.43410642736E+03 0.  0.
      99925    2    3    3    0    0  0.51798065414E+02  0.11171431834E+02 -0.99293510237E+02  0.28605869778E+03  0.26298771250E+03 0.  0.
         25    1    3    3    0    0 -0.51798065414E+02 -0.11171431834E+02  0.62631790503E+02  0.14959308056E+03  0.12509000000E+03 0.  0.
         25    1    4    4    0    0  0.61119003347E+02  0.76544298022E+01 -0.29681210238E+02  0.14255737514E+03  0.12509000000E+03 0.  0.
         25    1    4    4    0    0 -0.93209379327E+01  0.35170020314E+01 -0.69612299998E+02  0.14350132264E+03  0.12509000000E+03 0.  0.
<mgrwt>
<rscale>  2 0.43410643E+03</rscale>
<asrwt>0</asrwt>
<pdfrwt beam="1">  1       21 0.29337504E-01 0.43410643E+03</pdfrwt>
<pdfrwt beam="2">  1       21 0.34728933E-01 0.43410643E+03</pdfrwt>
<totfact> 0.82981326E+04</totfact>
</mgrwt>
</event>
<event>
 6    0  0.4831799E-002  0.4691291E+03  0.7546771E-02  0.1022166E+00
         21   -1    0    0  502  501  0.00000000000E+00  0.00000000000E+00  0.20167908299E+04  0.20167908299E+04  0.00000000000E+00 0. -1.
         21   -1    0    0  501  502 -0.00000000000E+00 -0.00000000000E+00 -0.27281230040E+02  0.27281230040E+02  0.00000000000E+00 0. -1.
      99926    2    1    2    0    0 -0.71054273576E-14  0.14210854715E-13  0.19895095998E+04  0.20440720599E+04  0.46912912752E+03 0.  0.
         25    1    3    3    0    0  0.16401431482E+02  0.47267549250E+02  0.77495023218E+03  0.78657396259E+03  0.12509000000E+03 0.  0.
         25    1    3    3    0    0  0.32235397209E+02 -0.11251273686E+03  0.53544403594E+03  0.56217974040E+03  0.12509000000E+03 0.  0.
         25    1    3    3    0    0 -0.48636828691E+02  0.65245187612E+02  0.67911533171E+03  0.69531835693E+03  0.12509000000E+03 0.  0.
<mgrwt>
<rscale>  2 0.46912913E+03</rscale>
<asrwt>0</asrwt>
<pdfrwt beam="1">  1       21 0.29658679E+00 0.46912913E+03</pdfrwt>
<pdfrwt beam="2">  1       21 0.40119470E-02 0.46912913E+03</pdfrwt>
<totfact> 0.11670092E+04</totfact>
</mgrwt>
</event>
<event>
 7    0  0.4831799E-002  0.4499442E+03  0.7546771E-02  0.1027739E+00
         21   -1    0    0  502  501  0.00000000000E+00  0.00000000000E+00  0.12448355834E+03  0.12448355834E+03  0.00000000000E+00 0. -1.
         21   -1    0    0  501  502 -0.00000000000E+00 -0.00000000000E+00 -0.40657944617E+03  0.40657944617E+03  0.00000000000E+00 0. -1.
      99926    2    1    2    0    0  0.00000000000E+00  0.71054273576E-14 -0.28209588783E+03  0.53106300452E+03  0.44994424636E+03 0.  0.
      99925    2    3    3    0    0  0.75240760584E+02 -0.56604924589E+02 -0.24146539594E+03  0.36931123633E+03  0.26309686866E+03 0.  0.
         25    1    3    3    0    0 -0.75240760584E+02  0.56604924589E+02 -0.40630491885E+02  0.16175176819E+03  0.12509000000E+03 0.  0.
         25    1    4    4    0    0  0.71449319976E+02 -0.57886750255E+01 -0.11780813259E+03  0.18618479607E+03  0.12509000000E+03 0.  0.
         25    1    4    4    0    0  0.37914406085E+01 -0.50816249563E+02 -0.12365726336E+03  0.18312644026E+03  0.12509000000E+03 0.  0.
<mgrwt>
<rscale>  2 0.44994425E+03</rscale>
<asrwt>0</asrwt>
<pdfrwt beam="1">  1       21 0.18306405E-01 0.44994425E+03</pdfrwt>
<pdfrwt beam="2">  1       21 0.59791096E-01 0.44994425E+03</pdfrwt>
<totfact> 0.65726618E+04</totfact>
</mgrwt>
</event>
<event>
 7    0  0.4831799E-002  0.4543220E+03  0.7546771E-02  0.1026441E+00
         21   -1    0    0  502  501  0.00000000000E+00  0.00000000000E+00  0.72676744297E+02  0.72676744297E+02  0.00000000000E+00 0.  1.
         21   -1    0    0  501  502 -0.00000000000E+00 -0.00000000000E+00 -0.71002254021E+03  0.71002254021E+03  0.00000000000E+00 0.  1.
      99926    2    1    2    0    0  0.00000000000E+00  0.00000000000E+00 -0.63734579591E+03  0.78269928450E+03  0.45432202940E+03 0.  0.
      99925    2    3    3    0    0  0.67745932283E+02  0.55389620364E+02 -0.52335371433E+03  0.59217573177E+03  0.26289820388E+03 0.  0.
         25    1    4    4    0    0 -0.70993577605E+01  0.26355163213E+02 -0.25833163648E+03  0.28831881315E+03  0.12509000000E+03 0.  0.
         25    1    4    4    0    0  0.74845290044E+02  0.29034457152E+02 -0.26502207785E+03  0.30385691862E+03  0.12509000000E+03 0.  0.
         25    1    3    3    0    0 -0.67745932283E+02 -0.55389620364E+02 -0.11399208158E+03  0.19052355274E+03  0.12509000000E+03 0.  0.
<mgrwt>
<rscale>  2 0.45432203E+03</rscale>
<asrwt>0</asrwt>
<pdfrwt beam="1">  1       21 0.10687757E-01 0.45432203E+03</pdfrwt>
<pdfrwt beam="2">  1       21 0.10441508E+00 0.45432203E+03</pdfrwt>
<totfact> 0.48872599E+04</totfact>
</mgrwt>
</event>
<event>
 7    0  0.4831799E-002  0.4532721E+03  0.7546771E-02  0.1026751E+00
         21   -1    0    0  502  501  0.00000000000E+00  0.00000000000E+00  0.17226038667E+03  0.17226038667E+03  0.00000000000E+00 0.  1.
         21   -1    0    0  501  502 -0.00000000000E+00 -0.00000000000E+00 -0.29817587785E+03  0.29817587785E+03  0.00000000000E+00 0.  1.
      99926    2    1    2    0    0  0.00000000000E+00  0.00000000000E+00 -0.12591549118E+03  0.47043626452E+03  0.45327206847E+03 0.  0.
      99925    2    3    3    0    0 -0.69889516131E+01 -0.90443648112E+02 -0.14666617601E+03  0.31452924752E+03  0.26303760459E+03 0.  0.
         25    1    4    4    0    0 -0.71005122779E+01 -0.69560337011E+02 -0.11518502955E+03  0.18385906802E+03  0.12509000000E+03 0.  0.
         25    1    3    3    0    0  0.69889516131E+01  0.90443648112E+02  0.20750684836E+02  0.15590701700E+03  0.12509000000E+03 0.  0.
         25    1    4    4    0    0  0.11156066487E+00 -0.20883311100E+02 -0.31481146464E+02  0.13067017950E+03  0.12509000000E+03 0.  0.
<mgrwt>
<rscale>  2 0.45327207E+03</rscale>
<asrwt>0</asrwt>
<pdfrwt beam="1">  1       21 0.25332410E-01 0.45327207E+03</pdfrwt>
<pdfrwt beam="2">  1       21 0.43849393E-01 0.45327207E+03</pdfrwt>
<totfact> 0.68335291E+04</totfact>
</mgrwt>
</event>
<event>
 7    0  0.4831799E-002  0.4646646E+03  0.7546771E-02  0.1023437E+00
         21   -1    0    0  502  501  0.00000000000E+00  0.00000000000E+00  0.12626911302E+04  0.12626911302E+04  0.00000000000E+00 0.  1.
         21   -1    0    0  501  502 -0.00000000000E+00 -0.00000000000E+00 -0.42748624183E+02  0.42748624183E+02  0.00000000000E+00 0.  1.
      99926    2    1    2    0    0  0.00000000000E+00  0.00000000000E+00  0.12199425060E+04  0.13054397544E+04  0.46466464718E+03 0.  0.
      99925    2    3    3    0    0  0.76111023117E+02 -0.46104710160E+02  0.52684227328E+03  0.59554259785E+03  0.26303929896E+03 0.  0.
         25    1    4    4    0    0  0.12713894119E+01 -0.37661448916E+02  0.22333417913E+03  0.25873860329E+03  0.12509000000E+03 0.  0.
         25    1    4    4    0    0  0.74839633705E+02 -0.84432612439E+01  0.30350809415E+03  0.33680399455E+03  0.12509000000E+03 0.  0.
         25    1    3    3    0    0 -0.76111023117E+02  0.46104710160E+02  0.69310023277E+03  0.70989715657E+03  0.12509000000E+03 0.  0.
<mgrwt>
<rscale>  2 0.46466465E+03</rscale>
<asrwt>0</asrwt>
<pdfrwt beam="1">  1       21 0.18568985E+00 0.46466465E+03</pdfrwt>
<pdfrwt beam="2">  1       21 0.62865632E-02 0.46466465E+03</pdfrwt>
<totfact> 0.26878747E+04</totfact>
</mgrwt>
</event>
<event>
 7    0  0.4831799E-002  0.4564054E+03  0.7546771E-02  0.1025829E+00
         21   -1    0    0  502  501  0.00000000000E+00  0.00000000000E+00  0.12151909467E+04  0.12151909467E+04  0.00000000000E+00 0. -1.
         21   -1    0    0  501  502 -0.00000000000E+00 -0.00000000000E+00 -0.42854564164E+02  0.42854564164E+02  0.00000000000E+00 0. -1.
      99926    2    1    2    0    0  0.00000000000E+00  0.00000000000E+00  0.11723363825E+04  0.12580455108E+04  0.45640542677E+03 0.  0.
      99925    2    3    3    0    0 -0.82622757389E+02 -0.45889998567E+02  0.55840238898E+03  0.62440928356E+03  0.26294735856E+03 0.  0.
         25    1    4    4    0    0 -0.66317634128E+02 -0.49408835529E+02  0.35006982722E+03  0.38083546795E+03  0.12509000000E+03 0.  0.
         25    1    4    4    0    0 -0.16305123261E+02  0.35188369623E+01  0.20833256176E+03  0.24357381561E+03  0.12509000000E+03 0.  0.
         25    1    3    3    0    0  0.82622757389E+02  0.45889998567E+02  0.61393399353E+03  0.63363622728E+03  0.12509000000E+03 0.  0.
<mgrwt>
<rscale>  2 0.45640543E+03</rscale>
<asrwt>0</asrwt>
<pdfrwt beam="1">  1       21 0.17870453E+00 0.45640543E+03</pdfrwt>
<pdfrwt beam="2">  1       21 0.63021426E-02 0.45640543E+03</pdfrwt>
<totfact> 0.30028045E+04</totfact>
</mgrwt>
</event>
<event>
 7    0  0.4831799E-002  0.4334128E+03  0.7546771E-02  0.1032787E+00
         21   -1    0    0  502  501  0.00000000000E+00  0.00000000000E+00  0.98862463895E+03  0.98862463895E+03  0.00000000000E+00 0. -1.
         21   -1    0    0  501  502 -0.00000000000E+00 -0.00000000000E+00 -0.47502020700E+02  0.47502020700E+02  0.00000000000E+00 0. -1.
      99926    2    1    2    0    0  0.17763568394E-14  0.00000000000E+00  0.94112261825E+03  0.10361266596E+04  0.43341281967E+03 0.  0.
      99925    2    3    3    0    0  0.28429992381E+01 -0.11785013579E+02  0.38740624344E+03  0.46832713426E+03  0.26286829030E+03 0.  0.
         25    1    4    4    0    0 -0.30566582574E+02 -0.28117335712E-01  0.23530398828E+03  0.26823458345E+03  0.12509000000E+03 0.  0.
         25    1    3    3    0    0 -0.28429992381E+01  0.11785013579E+02  0.55371637481E+03  0.56779952538E+03  0.12509000000E+03 0.  0.
         25    1    4    4    0    0  0.33409581812E+02 -0.11756896243E+02  0.15210225516E+03  0.20009255081E+03  0.12509000000E+03 0.  0.
<mgrwt>
<rscale>  2 0.43341282E+03</rscale>
<asrwt>0</asrwt>
<pdfrwt beam="1">  1       21 0.14538596E+00 0.43341282E+03</pdfrwt>
<pdfrwt beam="2">  1       21 0.69855919E-02 0.43341282E+03</pdfrwt>
<totfact> 0.44891802E+04</totfact>
</mgrwt>
</event>
<event>
 7    0  0.4831799E-002  0.4854705E+03  0.7546771E-02  0.1017642E+00
         21   -1    0    0  502  501  0.00000000000E+00  0.00000000000E+00  0.12387136259E+04  0.12387136259E+04  0.00000000000E+00 0.  1.
         21   -1    0    0  501  502 -0.00000000000E+00 -0.00000000000E+00 -0.47565801301E+02  0.47565801301E+02  0.00000000000E+00 0.  1.
      99926    2    1    2    0    0  0.17763568394E-14  0.00000000000E+00  0.11911478246E+04  0.12862794272E+04  0.48547051897E+03 0.  0.
      99925    2    3    3    0    0 -0.11939553428E+02  0.12995171063E+03  0.86402285884E+03  0.91253051235E+03  0.26295709789E+03 0.  0.
         25    1    4    4    0    0  0.23297689810E+01  0.23052090263E+02  0.33590188593E+03  0.35918576219E+03  0.12509000000E+03 0.  0.
         25    1    4    4    0    0 -0.14269322409E+02  0.10689962037E+03  0.52812097292E+03  0.55334475016E+03  0.12509000000E+03 0.  0.
         25    1    3    3    0    0  0.11939553428E+02 -0.12995171063E+03  0.32712496574E+03  0.37374891483E+03  0.12509000000E+03 0.  0.
<mgrwt>
<rscale>  2 0.48547052E+03</rscale>
<asrwt>0</asrwt>
<pdfrwt beam="1">  1       21 0.18216375E+00 0.48547052E+03</pdfrwt>
<pdfrwt beam="2">  1       21 0.69949715E-02 0.48547052E+03</pdfrwt>
<totfact> 0.23443583E+04</totfact>
</mgrwt>
</event>
<event>
 7    0  0.4831799E-002  0.4482180E+03  0.7546771E-02  0.1028255E+00
         21   -1    0    0  502  501  0.00000000000E+00  0.00000000000E+00  0.32439064060E+03  0.32439064060E+03  0.00000000000E+00 0. -1.
         21   -1    0    0  501  502 -0.00000000000E+00 -0.00000000000E+00 -0.15482830982E+03  0.15482830982E+03  0.00000000000E+00 0. -1.
      99926    2    1    2    0    0  0.00000000000E+00  0.00000000000E+00  0.16956233078E+03  0.47921895042E+03  0.44821804785E+03 0.  0.
      99925    2    3    3    0    0  0.10268564040E+03 -0.21881431330E+02  0.87181306337E+02  0.29630564016E+03  0.26300820222E+03 0.  0.
         25    1    4    4    0    0  0.78555902699E+02  0.13764962411E+02  0.26236976525E+02  0.15065321462E+03  0.12509000000E+03 0.  0.
         25    1    4    4    0    0  0.24129737698E+02 -0.35646393742E+02  0.60944329813E+02  0.14565242554E+03  0.12509000000E+03 0.  0.
         25    1    3    3    0    0 -0.10268564040E+03  0.21881431330E+02  0.82381024448E+02  0.18291331026E+03  0.12509000000E+03 0.  0.
<mgrwt>
<rscale>  2 0.44821805E+03</rscale>
<asrwt>0</asrwt>
<pdfrwt beam="1">  1       21 0.47704506E-01 0.44821805E+03</pdfrwt>
<pdfrwt beam="2">  1       21 0.22768869E-01 0.44821805E+03</pdfrwt>
<totfact> 0.70475340E+04</totfact>
</mgrwt>
</event>
<event>
 7    0  0.4831799E-002  0.4479253E+03  0.7546771E-02  0.1028343E+00
         21   -1    0    0  502  501  0.00000000000E+00  0.00000000000E+00  0.10291664958E+04  0.10291664958E+04  0.00000000000E+00 0.  1.
         21   -1    0    0  501  502 -0.00000000000E+00 -0.00000000000E+00 -0.48737764840E+02  0.48737764840E+02  0.00000000000E+00 0.  1.
      99926    2    1    2    0    0  0.00000000000E+00  0.00000000000E+00  0.98042873095E+03  0.10779042606E+04  0.44792532705E+03 0.  0.
      99925    2    3    3    0    0  0.73331822450E+02 -0.57610659202E+02  0.74413741131E+03  0.79474769603E+03  0.26303396967E+03 0.  0.
         25    1    3    3    0    0 -0.73331822450E+02  0.57610659202E+02  0.23629131965E+03  0.28315656460E+03  0.12509000000E+03 0.  0.
         25    1    4    4    0    0  0.13057036417E+02 -0.46216538506E+02  0.44543103782E+03  0.46514811855E+03  0.12509000000E+03 0.  0.
         25    1    4    4    0    0  0.60274786032E+02 -0.11394120696E+02  0.29870637349E+03  0.32959957749E+03  0.12509000000E+03 0.  0.
<mgrwt>
<rscale>  2 0.44792533E+03</rscale>
<asrwt>0</asrwt>
<pdfrwt beam="1">  1       21 0.15134800E+00 0.44792533E+03</pdfrwt>
<pdfrwt beam="2">  1       21 0.71673190E-02 0.44792533E+03</pdfrwt>
<totfact> 0.38343187E+04</totfact>
</mgrwt>
</event>
<event>
 7    0  0.4831799E-002  0.4623903E+03  0.7546771E-02  0.1024090E+00
         21   -1    0    0  502  501  0.00000000000E+00  0.00000000000E+00  0.12060812361E+03  0.12060812361E+03  0.00000000000E+00 0. -1.
         21   -1    0    0  501  502 -0.00000000000E+00 -0.00000000000E+00 -0.44318081189E+03  0.44318081189E+03  0.00000000000E+00 0. -1.
      99926    2    1    2    0    0 -0.17763568394E-14 -0.14210854715E-13 -0.32257268828E+03  0.56378893550E+03  0.46239033788E+03 0.  0.
      99925    2    3    3    0    0  0.10784567712E+02 -0.11072760790E+03 -0.25603882350E+03  0.38364684349E+03  0.26315795889E+03 0.  0.
         25    1    3    3    0    0 -0.10784567712E+02  0.11072760790E+03 -0.66533864784E+02  0.18014209201E+03  0.12509000000E+03 0.  0.
         25    1    4    4    0    0 -0.37952632598E+01 -0.96789276341E+02 -0.12789953922E+03  0.20344131407E+03  0.12509000000E+03 0.  0.
         25    1    4    4    0    0  0.14579830972E+02 -0.13938331556E+02 -0.12813928428E+03  0.18020552942E+03  0.12509000000E+03 0.  0.
<mgrwt>
<rscale>  2 0.46239034E+03</rscale>
<asrwt>0</asrwt>
<pdfrwt beam="1">  1       21 0.17736488E-01 0.46239034E+03</pdfrwt>
<pdfrwt beam="2">  1       21 0.65173651E-01 0.46239034E+03</pdfrwt>
<totfact> 0.57527354E+04</totfact>
</mgrwt>
</event>
<event>
 7    0  0.4831799E-002  0.4458469E+03  0.7546771E-02  0.1028968E+00
         21   -1    0    0  502  501  0.00000000000E+00  0.00000000000E+00  0.91902171502E+03  0.91902171502E+03  0.00000000000E+00 0.  1.
         21   -1    0    0  501  502 -0.00000000000E+00 -0.00000000000E+00 -0.54073659293E+02  0.54073659293E+02  0.00000000000E+00 0.  1.
      99926    2    1    2    0    0  0.00000000000E+00  0.00000000000E+00  0.86494805573E+03  0.97309537432E+03  0.44584691140E+03 0.  0.
      99925    2    3    3    0    0  0.62645176072E+02  0.79462559152E+02  0.60463910500E+03  0.66707744294E+03  0.26299268278E+03 0.  0.
         25    1    4    4    0    0  0.60877115002E+02  0.39247876384E+02  0.38356144531E+03  0.40989426607E+03  0.12509000000E+03 0.  0.
         25    1    4    4    0    0  0.17680610696E+01  0.40214682768E+02  0.22107765969E+03  0.25718317687E+03  0.12509000000E+03 0.  0.
         25    1    3    3    0    0 -0.62645176072E+02 -0.79462559152E+02  0.26030895073E+03  0.30601793137E+03  0.12509000000E+03 0.  0.
<mgrwt>
<rscale>  2 0.44584691E+03</rscale>
<asrwt>0</asrwt>
<pdfrwt beam="1">  1       21 0.13515024E+00 0.44584691E+03</pdfrwt>
<pdfrwt beam="2">  1       21 0.79520093E-02 0.44584691E+03</pdfrwt>
<totfact> 0.43230940E+04</totfact>
</mgrwt>
</event>
<event>
 7    0  0.4831799E-002  0.4656872E+03  0.7546771E-02  0.1023145E+00
         21   -1    0    0  502  501  0.00000000000E+00  0.00000000000E+00  0.94077344572E+02  0.94077344572E+02  0.00000000000E+00 0. -1.
         21   -1    0    0  501  502 -0.00000000000E+00 -0.00000000000E+00 -0.57629321158E+03  0.57629321158E+03  0.00000000000E+00 0. -1.
      99926    2    1    2    0    0  0.00000000000E+00 -0.35527136788E-14 -0.48221586701E+03  0.67037055615E+03  0.46568716985E+03 0.  0.
      99925    2    3    3    0    0  0.72582956071E+02  0.17280327085E+02 -0.15990308982E+03  0.31667587192E+03  0.26295953016E+03 0.  0.
         25    1    3    3    0    0 -0.72582956071E+02 -0.17280327085E+02 -0.32231277719E+03  0.35369468424E+03  0.12509000000E+03 0.  0.
         25    1    4    4    0    0  0.59049839397E+02 -0.23832098498E+02 -0.92837772939E+02  0.16828907462E+03  0.12509000000E+03 0.  0.
         25    1    4    4    0    0  0.13533116674E+02  0.41112425583E+02 -0.67065316877E+02  0.14838679730E+03  0.12509000000E+03 0.  0.
<mgrwt>
<rscale>  2 0.46568717E+03</rscale>
<asrwt>0</asrwt>
<pdfrwt beam="1">  1       21 0.13834903E-01 0.46568717E+03</pdfrwt>
<pdfrwt beam="2">  1       21 0.84749006E-01 0.46568717E+03</pdfrwt>
<totfact> 0.50178185E+04</totfact>
</mgrwt>
</event>
<event>
 7    0  0.4831799E-002  0.4512491E+03  0.7546771E-02  0.1027350E+00
         21   -1    0    0  502  501  0.00000000000E+00  0.00000000000E+00  0.82017886282E+03  0.82017886282E+03  0.00000000000E+00 0.  1.
         21   -1    0    0  501  502 -0.00000000000E+00 -0.00000000000E+00 -0.62067481860E+02  0.62067481860E+02  0.00000000000E+00 0.  1.
      99926    2    1    2    0    0  0.00000000000E+00  0.00000000000E+00  0.75811138096E+03  0.88224634468E+03  0.45124909613E+03 0.  0.
      99925    2    3    3    0    0  0.56526412327E+02 -0.75081446562E+02  0.36870591593E+03  0.46258388126E+03  0.26307287175E+03 0.  0.
         25    1    4    4    0    0  0.61738824487E+02 -0.22642526745E+02  0.21760306679E+03  0.25946670161E+03  0.12509000000E+03 0.  0.
         25    1    3    3    0    0 -0.56526412327E+02  0.75081446562E+02  0.38940546502E+03  0.41966246342E+03  0.12509000000E+03 0.  0.
         25    1    4    4    0    0 -0.52124121603E+01 -0.52438919817E+02  0.15110284914E+03  0.20311717965E+03  0.12509000000E+03 0.  0.
<mgrwt>
<rscale>  2 0.45124910E+03</rscale>
<asrwt>0</asrwt>
<pdfrwt beam="1">  1       21 0.12061453E+00 0.45124910E+03</pdfrwt>
<pdfrwt beam="2">  1       21 0.91275713E-02 0.45124910E+03</pdfrwt>
<totfact> 0.45327133E+04</totfact>
</mgrwt>
</event>
<event>
 7    0  0.4831799E-002  0.4583900E+03  0.7546771E-02  0.1025249E+00
         21   -1    0    0  502  501  0.00000000000E+00  0.00000000000E+00  0.37061262368E+04  0.37061262368E+04  0.00000000000E+00 0. -1.
         21   -1    0    0  501  502 -0.00000000000E+00 -0.00000000000E+00 -0.14173923283E+02  0.14173923283E+02  0.00000000000E+00 0. -1.
      99926    2    1    2    0    0  0.00000000000E+00  0.14210854715E-13  0.36919523135E+04  0.37203001600E+04  0.45839000406E+03 0.  0.
      99925    2    3    3    0    0  0.39574791892E+02 -0.84732923881E+02  0.28782483178E+04  0.28917426586E+04  0.26289996579E+03 0.  0.
         25    1    4    4    0    0  0.60282113014E+01 -0.35171925981E+02  0.10076491813E+04  0.10160107206E+04  0.12509000000E+03 0.  0.
         25    1    4    4    0    0  0.33546580591E+02 -0.49560997900E+02  0.18705991365E+04  0.18757319379E+04  0.12509000000E+03 0.  0.
         25    1    3    3    0    0 -0.39574791892E+02  0.84732923881E+02  0.81370399570E+03  0.82855750148E+03  0.12509000000E+03 0.  0.
<mgrwt>
<rscale>  2 0.45839000E+03</rscale>
<asrwt>0</asrwt>
<pdfrwt beam="1">  1       21 0.54501789E+00 0.45839000E+03</pdfrwt>
<pdfrwt beam="2">  1       21 0.20844031E-02 0.45839000E+03</pdfrwt>
<totfact> 0.80184785E+02</totfact>
</mgrwt>
</event>
<event>
 7    0  0.4831799E-002  0.4539694E+03  0.7546771E-02  0.1026545E+00
         21   -1    0    0  502  501  0.00000000000E+00  0.00000000000E+00  0.13821374322E+02  0.13821374322E+02  0.00000000000E+00 0. -1.
         21   -1    0    0  501  502 -0.00000000000E+00 -0.00000000000E+00 -0.37277081639E+04  0.37277081639E+04  0.00000000000E+00 0. -1.
      99926    2    1    2    0    0  0.00000000000E+00  0.00000000000E+00 -0.37138867896E+04  0.37415295382E+04  0.45396938177E+03 0.  0.
      99925    2    3    3    0    0  0.10310912265E+03 -0.37478710603E+02 -0.21385137132E+04  0.21573944484E+04  0.26281887209E+03 0.  0.
         25    1    3    3    0    0 -0.10310912265E+03  0.37478710603E+02 -0.15753730764E+04  0.15841350898E+04  0.12509000000E+03 0.  0.
         25    1    4    4    0    0  0.71995119319E+02 -0.55416229183E+02 -0.11817027536E+04  0.11917731167E+04  0.12509000000E+03 0.  0.
         25    1    4    4    0    0  0.31114003336E+02  0.17937518580E+02 -0.95681095958E+03  0.96562133171E+03  0.12509000000E+03 0.  0.
<mgrwt>
<rscale>  2 0.45396938E+03</rscale>
<asrwt>0</asrwt>
<pdfrwt beam="1">  1       21 0.20325540E-02 0.45396938E+03</pdfrwt>
<pdfrwt beam="2">  1       21 0.54819265E+00 0.45396938E+03</pdfrwt>
<totfact> 0.79368178E+02</totfact>
</mgrwt>
</event>
<event>
 7    0  0.4831799E-002  0.4469583E+03  0.7546771E-02  0.1028633E+00
         21   -1    0    0  502  501  0.00000000000E+00  0.00000000000E+00  0.18306907431E+04  0.18306907431E+04  0.00000000000E+00 0.  1.
         21   -1    0    0  501  502 -0.00000000000E+00 -0.00000000000E+00 -0.27280917356E+02  0.27280917356E+02  0.00000000000E+00 0.  1.
      99926    2    1    2    0    0  0.00000000000E+00  0.00000000000E+00  0.18034098257E+04  0.18579716604E+04  0.44695826591E+03 0.  0.
      99925    2    3    3    0    0 -0.65528113782E+02  0.80895159301E+02  0.12144069056E+04  0.12468989082E+04  0.26293496238E+03 0.  0.
         25    1    3    3    0    0  0.65528113782E+02 -0.80895159301E+02  0.58900292014E+03  0.61107275224E+03  0.12509000000E+03 0.  0.
         25    1    4    4    0    0 -0.63784541982E+01  0.17012179107E+02  0.65604020753E+03  0.66810654907E+03  0.12509000000E+03 0.  0.
         25    1    4    4    0    0 -0.59149659583E+02  0.63882980195E+02  0.55836669805E+03  0.57879235912E+03  0.12509000000E+03 0.  0.
<mgrwt>
<rscale>  2 0.44695827E+03</rscale>
<asrwt>0</asrwt>
<pdfrwt beam="1">  1       21 0.26921914E+00 0.44695827E+03</pdfrwt>
<pdfrwt beam="2">  1       21 0.40119008E-02 0.44695827E+03</pdfrwt>
<totfact> 0.17220333E+04</totfact>
</mgrwt>
</event>
<event>
 7    0  0.4831799E-002  0.4589418E+03  0.7546771E-02  0.1025089E+00
         21   -1    0    0  502  501  0.00000000000E+00  0.00000000000E+00  0.21723969630E+03  0.21723969630E+03  0.00000000000E+00 0.  1.
         21   -1    0    0  501  502 -0.00000000000E+00 -0.00000000000E+00 -0.24239074660E+03  0.24239074660E+03  0.00000000000E+00 0.  1.
      99926    2    1    2    0    0  0.00000000000E+00  0.00000000000E+00 -0.25151050300E+02  0.45963044289E+03  0.45894179228E+03 0.  0.
      99925    2    3    3    0    0  0.23572691807E+02 -0.58588608639E+02 -0.11422695092E+03  0.29358731285E+03  0.26297797834E+03 0.  0.
         25    1    3    3    0    0 -0.23572691807E+02  0.58588608639E+02  0.89075900620E+02  0.16604313004E+03  0.12509000000E+03 0.  0.
         25    1    4    4    0    0  0.25379470721E+02  0.14137789392E+01 -0.80122557630E+02  0.15070915250E+03  0.12509000000E+03 0.  0.
         25    1    4    4    0    0 -0.18067789145E+01 -0.60002387579E+02 -0.34104393291E+02  0.14287816036E+03  0.12509000000E+03 0.  0.
<mgrwt>
<rscale>  2 0.45894179E+03</rscale>
<asrwt>0</asrwt>
<pdfrwt beam="1">  1       21 0.31947014E-01 0.45894179E+03</pdfrwt>
<pdfrwt beam="2">  1       21 0.35645698E-01 0.45894179E+03</pdfrwt>
<totfact> 0.66104290E+04</totfact>
</mgrwt>
</event>
<event>
 7    0  0.4831799E-002  0.4559936E+03  0.7546771E-02  0.1025950E+00
         21   -1    0    0  502  501  0.00000000000E+00  0.00000000000E+00  0.27951952796E+03  0.27951952796E+03  0.00000000000E+00 0.  1.
         21   -1    0    0  501  502 -0.00000000000E+00 -0.00000000000E+00 -0.18597106517E+03  0.18597106517E+03  0.00000000000E+00 0.  1.
      99926    2    1    2    0    0 -0.88817841970E-15 -0.14210854715E-13  0.93548462790E+02  0.46549059313E+03  0.45599361553E+03 0.  0.
      99925    2    3    3    0    0 -0.26335046387E+01 -0.11401080826E+03  0.54396383743E+02  0.29175000161E+03  0.26297090548E+03 0.  0.
         25    1    4    4    0    0 -0.35797233910E+02 -0.34111102134E+02  0.27833317376E+02  0.13735796628E+03  0.12509000000E+03 0.  0.
         25    1    4    4    0    0  0.33163729272E+02 -0.79899706130E+02  0.26563066367E+02  0.15439203533E+03  0.12509000000E+03 0.  0.
         25    1    3    3    0    0  0.26335046387E+01  0.11401080826E+03  0.39152079047E+02  0.17374059152E+03  0.12509000000E+03 0.  0.
<mgrwt>
<rscale>  2 0.45599362E+03</rscale>
<asrwt>0</asrwt>
<pdfrwt beam="1">  1       21 0.41105813E-01 0.45599362E+03</pdfrwt>
<pdfrwt beam="2">  1       21 0.27348686E-01 0.45599362E+03</pdfrwt>
<totfact> 0.67241200E+04</totfact>
</mgrwt>
</event>
<event>
 7    0  0.4831799E-002  0.4325485E+03  0.7546771E-02  0.1033058E+00
         21   -1    0    0  502  501  0.00000000000E+00  0.00000000000E+00  0.50935007864E+02  0.50935007864E+02  0.00000000000E+00 0.  1.
         21   -1    0    0  501  502 -0.00000000000E+00 -0.00000000000E+00 -0.91831837263E+03  0.91831837263E+03  0.00000000000E+00 0.  1.
      99926    2    1    2    0    0  0.00000000000E+00 -0.15543122345E-14 -0.86738336477E+03  0.96925338050E+03  0.43254851072E+03 0.  0.
      99925    2    3    3    0    0  0.45764801017E+02  0.12754178525E+01 -0.73280473440E+03  0.77989932177E+03  0.26295271370E+03 0.  0.
         25    1    4    4    0    0  0.55152962872E+02 -0.23740912512E+02 -0.36470399241E+03  0.39020762476E+03  0.12509000000E+03 0.  0.
         25    1    4    4    0    0 -0.93881618549E+01  0.25016330364E+02 -0.36810074199E+03  0.38969169701E+03  0.12509000000E+03 0.  0.
         25    1    3    3    0    0 -0.45764801017E+02 -0.12754178525E+01 -0.13457863037E+03  0.18935405872E+03  0.12509000000E+03 0.  0.
<mgrwt>
<rscale>  2 0.43254851E+03</rscale>
<asrwt>0</asrwt>
<pdfrwt beam="1">  1       21 0.74904427E-02 0.43254851E+03</pdfrwt>
<pdfrwt beam="2">  1       21 0.13504681E+00 0.43254851E+03</pdfrwt>
<totfact> 0.48309037E+04</totfact>
</mgrwt>
</event>
<event>
 7    0  0.4831799E-002  0.4528397E+03  0.7546771E-02  0.1026879E+00
         21   -1    0    0  502  501  0.00000000000E+00  0.00000000000E+00  0.29678372477E+03  0.29678372477E+03  0.00000000000E+00 0.  1.
         21   -1    0    0  501  502 -0.00000000000E+00 -0.00000000000E+00 -0.17273844626E+03  0.17273844626E+03  0.00000000000E+00 0.  1.
      99926    2    1    2    0    0  0.00000000000E+00  0.71054273576E-14  0.12404527852E+03  0.46952217103E+03  0.45283974866E+03 0.  0.
      99925    2    3    3    0    0 -0.31375463154E+02  0.46625524528E+02  0.17766309459E+03  0.32227836801E+03  0.26294640534E+03 0.  0.
         25    1    3    3    0    0  0.31375463154E+02 -0.46625524528E+02 -0.53617816077E+02  0.14724380302E+03  0.12509000000E+03 0.  0.
         25    1    4    4    0    0 -0.19344336445E+02  0.15602672054E+01  0.12748434083E+03  0.17965634707E+03  0.12509000000E+03 0.  0.
         25    1    4    4    0    0 -0.12031126709E+02  0.45065257322E+02  0.50178753761E+02  0.14262202094E+03  0.12509000000E+03 0.  0.
<mgrwt>
<rscale>  2 0.45283975E+03</rscale>
<asrwt>0</asrwt>
<pdfrwt beam="1">  1       21 0.43644665E-01 0.45283975E+03</pdfrwt>
<pdfrwt beam="2">  1       21 0.25402713E-01 0.45283975E+03</pdfrwt>
<totfact> 0.68640110E+04</totfact>
</mgrwt>
</event>
<event>
 7    0  0.4831799E-002  0.4467290E+03  0.7546771E-02  0.1028702E+00
         21   -1    0    0  502  501  0.00000000000E+00  0.00000000000E+00  0.80672704255E+03  0.80672704255E+03  0.00000000000E+00 0.  1.
         21   -1    0    0  501  502 -0.00000000000E+00 -0.00000000000E+00 -0.61844573282E+02  0.61844573282E+02  0.00000000000E+00 0.  1.
      99926    2    1    2    0    0  0.00000000000E+00  0.00000000000E+00  0.74488246927E+03  0.86857161583E+03  0.44672895452E+03 0.  0.
      99925    2    3    3    0    0 -0.86096596857E+02  0.43588353075E+02  0.39014954697E+03  0.48024762381E+03  0.26288503697E+03 0.  0.
         25    1    4    4    0    0 -0.43691650841E+02 -0.16848606268E+02  0.16462443940E+03  0.21199422170E+03  0.12509000000E+03 0.  0.
         25    1    3    3    0    0  0.86096596857E+02 -0.43588353075E+02  0.35473292230E+03  0.38832399202E+03  0.12509000000E+03 0.  0.
         25    1    4    4    0    0 -0.42404946016E+02  0.60436959343E+02  0.22552510757E+03  0.26825340211E+03  0.12509000000E+03 0.  0.
<mgrwt>
<rscale>  2 0.44672895E+03</rscale>
<asrwt>0</asrwt>
<pdfrwt beam="1">  1       21 0.11863632E+00 0.44672895E+03</pdfrwt>
<pdfrwt beam="2">  1       21 0.90947907E-02 0.44672895E+03</pdfrwt>
<totfact> 0.47632398E+04</totfact>
</mgrwt>
</event>
<event>
 7    0  0.4831799E-002  0.4514166E+03  0.7546771E-02  0.1027300E+00
         21   -1    0    0  502  501  0.00000000000E+00  0.00000000000E+00  0.18855574231E+02  0.18855574231E+02  0.00000000000E+00 0.  1.
         21   -1    0    0  501  502 -0.00000000000E+00 -0.00000000000E+00 -0.27018129190E+04  0.27018129190E+04  0.00000000000E+00 0.  1.
      99926    2    1    2    0    0  0.00000000000E+00  0.00000000000E+00 -0.26829573448E+04  0.27206684932E+04  0.45141658832E+03 0.  0.
      99925    2    3    3    0    0  0.41664232988E+02  0.97487859437E+02 -0.15222057309E+04  0.15483922424E+04  0.26299896979E+03 0.  0.
         25    1    3    3    0    0 -0.41664232988E+02 -0.97487859437E+02 -0.11607516139E+04  0.11722762508E+04  0.12509000000E+03 0.  0.
         25    1    4    4    0    0 -0.10167772148E+02  0.69753867304E+02 -0.68920707027E+03  0.70400488592E+03  0.12509000000E+03 0.  0.
         25    1    4    4    0    0  0.51832005137E+02  0.27733992133E+02 -0.83299866064E+03  0.84438735649E+03  0.12509000000E+03 0.  0.
<mgrwt>
<rscale>  2 0.45141659E+03</rscale>
<asrwt>0</asrwt>
<pdfrwt beam="1">  1       21 0.27728773E-02 0.45141659E+03</pdfrwt>
<pdfrwt beam="2">  1       21 0.39732561E+00 0.45141659E+03</pdfrwt>
<totfact> 0.52727975E+03</totfact>
</mgrwt>
</event>
<event>
 7    0  0.4831799E-002  0.4571512E+03  0.7546771E-02  0.1025611E+00
         21   -1    0    0  502  501  0.00000000000E+00  0.00000000000E+00  0.77318595380E+03  0.77318595380E+03  0.00000000000E+00 0. -1.
         21   -1    0    0  501  502 -0.00000000000E+00 -0.00000000000E+00 -0.67573398913E+02  0.67573398913E+02  0.00000000000E+00 0. -1.
      99926    2    1    2    0    0  0.14210854715E-13  0.14210854715E-13  0.70561255489E+03  0.84075935272E+03  0.45715119114E+03 0.  0.
      99925    2    3    3    0    0  0.64446440895E+02  0.90109294569E+02  0.50231200366E+03  0.57760226856E+03  0.26274322620E+03 0.  0.
         25    1    4    4    0    0 -0.19036256280E+01  0.21048345554E+02  0.24487411145E+03  0.27578523383E+03  0.12509000000E+03 0.  0.
         25    1    4    4    0    0  0.66350066523E+02  0.69060949014E+02  0.25743789221E+03  0.30181703473E+03  0.12509000000E+03 0.  0.
         25    1    3    3    0    0 -0.64446440895E+02 -0.90109294569E+02  0.20330055123E+03  0.26315708416E+03  0.12509000000E+03 0.  0.
<mgrwt>
<rscale>  2 0.45715119E+03</rscale>
<asrwt>0</asrwt>
<pdfrwt beam="1">  1       21 0.11370381E+00 0.45715119E+03</pdfrwt>
<pdfrwt beam="2">  1       21 0.99372650E-02 0.45715119E+03</pdfrwt>
<totfact> 0.45089813E+04</totfact>
</mgrwt>
</event>
<event>
 7    0  0.4831799E-002  0.4523414E+03  0.7546771E-02  0.1027026E+00
         21   -1    0    0  502  501  0.00000000000E+00  0.00000000000E+00  0.47616489137E+02  0.47616489137E+02  0.00000000000E+00 0.  1.
         21   -1    0    0  501  502 -0.00000000000E+00 -0.00000000000E+00 -0.10742747042E+04  0.10742747042E+04  0.00000000000E+00 0.  1.
      99926    2    1    2    0    0  0.00000000000E+00  0.00000000000E+00 -0.10266582150E+04  0.11218911933E+04  0.45234141876E+03 0.  0.
      99925    2    3    3    0    0 -0.87340142943E+02 -0.66089317098E+02 -0.68713650097E+03  0.74384542779E+03  0.26297024751E+03 0.  0.
         25    1    3    3    0    0  0.87340142943E+02  0.66089317098E+02 -0.33952171405E+03  0.37804576551E+03  0.12509000000E+03 0.  0.
         25    1    4    4    0    0 -0.24227798314E+02 -0.26772219232E+02 -0.41904519323E+03  0.43880533270E+03  0.12509000000E+03 0.  0.
         25    1    4    4    0    0 -0.63112344629E+02 -0.39317097866E+02 -0.26809130773E+03  0.30504009509E+03  0.12509000000E+03 0.  0.
<mgrwt>
<rscale>  2 0.45234142E+03</rscale>
<asrwt>0</asrwt>
<pdfrwt beam="1">  1       21 0.70024253E-02 0.45234142E+03</pdfrwt>
<pdfrwt beam="2">  1       21 0.15798157E+00 0.45234142E+03</pdfrwt>
<totfact> 0.35464188E+04</totfact>
</mgrwt>
</event>
<event>
 7    0  0.4831799E-002  0.4545979E+03  0.7546771E-02  0.1026360E+00
         21   -1    0    0  502  501  0.00000000000E+00  0.00000000000E+00  0.56663125247E+03  0.56663125247E+03  0.00000000000E+00 0. -1.
         21   -1    0    0  501  502 -0.00000000000E+00 -0.00000000000E+00 -0.91178887213E+02  0.91178887213E+02  0.00000000000E+00 0. -1.
      99926    2    1    2    0    0  0.00000000000E+00 -0.17763568394E-14  0.47545236526E+03  0.65781013969E+03  0.45459787532E+03 0.  0.
      99925    2    3    3    0    0 -0.91013947659E+02  0.83319620090E+01  0.39488909923E+03  0.48319367943E+03  0.26303188189E+03 0.  0.
         25    1    4    4    0    0 -0.38297996358E+02 -0.33498083791E+02  0.21645612059E+03  0.25512667125E+03  0.12509000000E+03 0.  0.
         25    1    4    4    0    0 -0.52715951301E+02  0.41830045800E+02  0.17843297865E+03  0.22806700818E+03  0.12509000000E+03 0.  0.
         25    1    3    3    0    0  0.91013947659E+02 -0.83319620090E+01  0.80563266028E+02  0.17461646026E+03  0.12509000000E+03 0.  0.
<mgrwt>
<rscale>  2 0.45459788E+03</rscale>
<asrwt>0</asrwt>
<pdfrwt beam="1">  1       21 0.83328124E-01 0.45459788E+03</pdfrwt>
<pdfrwt beam="2">  1       21 0.13408660E-01 0.45459788E+03</pdfrwt>
<totfact> 0.55429168E+04</totfact>
</mgrwt>
</event>
<event>
 7    0  0.4831799E-002  0.4521129E+03  0.7546771E-02  0.1027094E+00
         21   -1    0    0  502  501  0.00000000000E+00  0.00000000000E+00  0.10732466546E+04  0.10732466546E+04  0.00000000000E+00 0.  1.
         21   -1    0    0  501  502 -0.00000000000E+00 -0.00000000000E+00 -0.47613952043E+02  0.47613952043E+02  0.00000000000E+00 0.  1.
      99926    2    1    2    0    0  0.00000000000E+00  0.00000000000E+00  0.10256327026E+04  0.11208606067E+04  0.45211288300E+03 0.  0.
      99925    2    3    3    0    0 -0.55776354550E+02 -0.82759080936E+02  0.52995346661E+03  0.59999068022E+03  0.26301724730E+03 0.  0.
         25    1    4    4    0    0 -0.62220942190E+02 -0.34667061666E+02  0.31915102266E+03  0.35011160246E+03  0.12509000000E+03 0.  0.
         25    1    3    3    0    0  0.55776354550E+02  0.82759080936E+02  0.49567923599E+03  0.52086992646E+03  0.12509000000E+03 0.  0.
         25    1    4    4    0    0  0.64445876405E+01 -0.48092019270E+02  0.21080244395E+03  0.24987907776E+03  0.12509000000E+03 0.  0.
<mgrwt>
<rscale>  2 0.45211288E+03</rscale>
<asrwt>0</asrwt>
<pdfrwt beam="1">  1       21 0.15783038E+00 0.45211288E+03</pdfrwt>
<pdfrwt beam="2">  1       21 0.70020524E-02 0.45211288E+03</pdfrwt>
<totfact> 0.35564050E+04</totfact>
</mgrwt>
</event>
<event>
 7    0  0.4831799E-002  0.4324792E+03  0.7546771E-02  0.1033080E+00
         21   -1    0    0  502  501  0.00000000000E+00  0.00000000000E+00  0.77609928067E+02  0.77609928067E+02  0.00000000000E+00 0.  1.
         21   -1    0    0  501  502 -0.00000000000E+00 -0.00000000000E+00 -0.60249465280E+03  0.60249465280E+03  0.00000000000E+00 0.  1.
      99926    2    1    2    0    0  0.14210854715E-13 -0.26645352591E-14 -0.52488472473E+03  0.68010458087E+03  0.43247920951E+03 0.  0.
      99925    2    3    3    0    0  0.85604873346E+02 -0.21315333939E+01 -0.29179203581E+03  0.40205342100E+03  0.26300498740E+03 0.  0.
         25    1    4    4    0    0  0.69298925587E+01  0.20010781721E+02 -0.12467819320E+03  0.17787808959E+03  0.12509000000E+03 0.  0.
         25    1    4    4    0    0  0.78674980787E+02 -0.22142315115E+02 -0.16711384261E+03  0.22417533141E+03  0.12509000000E+03 0.  0.
         25    1    3    3    0    0 -0.85604873346E+02  0.21315333939E+01 -0.23309268892E+03  0.27805115987E+03  0.12509000000E+03 0.  0.
<mgrwt>
<rscale>  2 0.43247921E+03</rscale>
<asrwt>0</asrwt>
<pdfrwt beam="1">  1       21 0.11413225E-01 0.43247921E+03</pdfrwt>
<pdfrwt beam="2">  1       21 0.88602152E-01 0.43247921E+03</pdfrwt>
<totfact> 0.64734751E+04</totfact>
</mgrwt>
</event>
<event>
 7    0  0.4831799E-002  0.4504789E+03  0.7546771E-02  0.1027579E+00
         21   -1    0    0  502  501  0.00000000000E+00  0.00000000000E+00  0.19359821844E+03  0.19359821844E+03  0.00000000000E+00 0. -1.
         21   -1    0    0  501  502 -0.00000000000E+00 -0.00000000000E+00 -0.26205208433E+03  0.26205208433E+03  0.00000000000E+00 0. -1.
      99926    2    1    2    0    0  0.14210854715E-13  0.00000000000E+00 -0.68453865895E+02  0.45565030277E+03  0.45047893032E+03 0.  0.
      99925    2    3    3    0    0 -0.10054780595E+03  0.41505174513E+02 -0.41604387244E+02  0.28771893763E+03  0.26309451010E+03 0.  0.
         25    1    3    3    0    0  0.10054780595E+03 -0.41505174513E+02 -0.26849478652E+02  0.16793136514E+03  0.12509000000E+03 0.  0.
         25    1    4    4    0    0 -0.14764598701E+02  0.42343741142E+02 -0.23754951677E+02  0.13499182056E+03  0.12509000000E+03 0.  0.
         25    1    4    4    0    0 -0.85783207248E+02 -0.83856662886E+00 -0.17849435566E+02  0.15272711707E+03  0.12509000000E+03 0.  0.
<mgrwt>
<rscale>  2 0.45047893E+03</rscale>
<asrwt>0</asrwt>
<pdfrwt beam="1">  1       21 0.28470326E-01 0.45047893E+03</pdfrwt>
<pdfrwt beam="2">  1       21 0.38537071E-01 0.45047893E+03</pdfrwt>
<totfact> 0.71025118E+04</totfact>
</mgrwt>
</event>
<event>
 7    0  0.4831799E-002  0.4541540E+03  0.7546771E-02  0.1026490E+00
         21   -1    0    0  502  501  0.00000000000E+00  0.00000000000E+00  0.15425401162E+03  0.15425401162E+03  0.00000000000E+00 0. -1.
         21   -1    0    0  501  502 -0.00000000000E+00 -0.00000000000E+00 -0.33427957468E+03  0.33427957468E+03  0.00000000000E+00 0. -1.
      99926    2    1    2    0    0  0.35527136788E-14  0.00000000000E+00 -0.18002556306E+03  0.48853358631E+03  0.45415400647E+03 0.  0.
      99925    2    3    3    0    0 -0.23747724587E+02 -0.34527604363E+02 -0.11768985504E+01  0.26629393462E+03  0.26297331545E+03 0.  0.
         25    1    4    4    0    0  0.14645023367E+02 -0.46673912516E+02 -0.92624058996E+01  0.13463369222E+03  0.12509000000E+03 0.  0.
         25    1    3    3    0    0  0.23747724587E+02  0.34527604363E+02 -0.17884866451E+03  0.22223965169E+03  0.12509000000E+03 0.  0.
         25    1    4    4    0    0 -0.38392747955E+02  0.12146308153E+02  0.80855073492E+01  0.13166024239E+03  0.12509000000E+03 0.  0.
<mgrwt>
<rscale>  2 0.45415401E+03</rscale>
<asrwt>0</asrwt>
<pdfrwt beam="1">  1       21 0.22684414E-01 0.45415401E+03</pdfrwt>
<pdfrwt beam="2">  1       21 0.49158760E-01 0.45415401E+03</pdfrwt>
<totfact> 0.66529664E+04</totfact>
</mgrwt>
</event>
<event>
 7    0  0.4831799E-002  0.4464608E+03  0.7546771E-02  0.1028783E+00
         21   -1    0    0  502  501  0.00000000000E+00  0.00000000000E+00  0.44405125009E+02  0.44405125009E+02  0.00000000000E+00 0.  1.
         21   -1    0    0  501  502 -0.00000000000E+00 -0.00000000000E+00 -0.11222084407E+04  0.11222084407E+04  0.00000000000E+00 0.  1.
      99926    2    1    2    0    0  0.00000000000E+00  0.00000000000E+00 -0.10778033157E+04  0.11666135658E+04  0.44646077587E+03 0.  0.
      99925    2    3    3    0    0 -0.23595285841E+02 -0.75719422372E+02 -0.50433847621E+03  0.57433018872E+03  0.26307356129E+03 0.  0.
         25    1    4    4    0    0  0.19764412276E+02 -0.51830541325E+02 -0.20921830905E+03  0.24999369182E+03  0.12509000000E+03 0.  0.
         25    1    3    3    0    0  0.23595285841E+02  0.75719422372E+02 -0.57346483953E+03  0.59228337704E+03  0.12509000000E+03 0.  0.
         25    1    4    4    0    0 -0.43359698117E+02 -0.23888881047E+02 -0.29512016716E+03  0.32433649690E+03  0.12509000000E+03 0.  0.
<mgrwt>
<rscale>  2 0.44646078E+03</rscale>
<asrwt>0</asrwt>
<pdfrwt beam="1">  1       21 0.65301651E-02 0.44646078E+03</pdfrwt>
<pdfrwt beam="2">  1       21 0.16503066E+00 0.44646078E+03</pdfrwt>
<totfact> 0.35539052E+04</totfact>
</mgrwt>
</event>
<event>
 7    0  0.4831799E-002  0.4484183E+03  0.7546771E-02  0.1028195E+00
         21   -1    0    0  502  501  0.00000000000E+00  0.00000000000E+00  0.13481876837E+03  0.13481876837E+03  0.00000000000E+00 0.  1.
         21   -1    0    0  501  502 -0.00000000000E+00 -0.00000000000E+00 -0.37286899429E+03  0.37286899429E+03  0.00000000000E+00 0.  1.
      99926    2    1    2    0    0  0.00000000000E+00 -0.71054273576E-14 -0.23805022592E+03  0.50768776266E+03  0.44841828050E+03 0.  0.
      99925    2    3    3    0    0 -0.76612281579E+02  0.52851159324E+02 -0.21011668768E+03  0.34928802342E+03  0.26304070814E+03 0.  0.
         25    1    4    4    0    0 -0.19644733620E+02  0.60817151798E+02 -0.92335200830E+02  0.16810097836E+03  0.12509000000E+03 0.  0.
         25    1    3    3    0    0  0.76612281579E+02 -0.52851159324E+02 -0.27933538247E+02  0.15839973923E+03  0.12509000000E+03 0.  0.
         25    1    4    4    0    0 -0.56967547959E+02 -0.79659924737E+01 -0.11778148685E+03  0.18118704507E+03  0.12509000000E+03 0.  0.
<mgrwt>
<rscale>  2 0.44841828E+03</rscale>
<asrwt>0</asrwt>
<pdfrwt beam="1">  1       21 0.19826289E-01 0.44841828E+03</pdfrwt>
<pdfrwt beam="2">  1       21 0.54833677E-01 0.44841828E+03</pdfrwt>
<totfact> 0.68228556E+04</totfact>
</mgrwt>
</event>
<event>
 7    0  0.4831799E-002  0.4546079E+03  0.7546771E-02  0.1026357E+00
         21   -1    0    0  502  501  0.00000000000E+00  0.00000000000E+00  0.73645890967E+02  0.73645890967E+02  0.00000000000E+00 0. -1.
         21   -1    0    0  501  502 -0.00000000000E+00 -0.00000000000E+00 -0.70156094378E+03  0.70156094378E+03  0.00000000000E+00 0. -1.
      99926    2    1    2    0    0  0.00000000000E+00  0.00000000000E+00 -0.62791505281E+03  0.77520683474E+03  0.45460787838E+03 0.  0.
      99925    2    3    3    0    0  0.38697555122E+02 -0.92903137828E+02 -0.48229160539E+03  0.55845307969E+03  0.26293755114E+03 0.  0.
         25    1    4    4    0    0  0.42035351318E+02 -0.81556526352E+02 -0.28671977510E+03  0.32599720135E+03  0.12509000000E+03 0.  0.
         25    1    4    4    0    0 -0.33377961966E+01 -0.11346611476E+02 -0.19557183029E+03  0.23245587835E+03  0.12509000000E+03 0.  0.
         25    1    3    3    0    0 -0.38697555122E+02  0.92903137828E+02 -0.14562344742E+03  0.21675375505E+03  0.12509000000E+03 0.  0.
<mgrwt>
<rscale>  2 0.45460788E+03</rscale>
<asrwt>0</asrwt>
<pdfrwt beam="1">  1       21 0.10830278E-01 0.45460788E+03</pdfrwt>
<pdfrwt beam="2">  1       21 0.10317073E+00 0.45460788E+03</pdfrwt>
<totfact> 0.49138496E+04</totfact>
</mgrwt>
</event>
<event>
 7    0  0.4831799E-002  0.4481452E+03  0.7546771E-02  0.1028277E+00
         21   -1    0    0  502  501  0.00000000000E+00  0.00000000000E+00  0.50761262445E+03  0.50761262445E+03  0.00000000000E+00 0.  1.
         21   -1    0    0  501  502 -0.00000000000E+00 -0.00000000000E+00 -0.98911121582E+02  0.98911121582E+02  0.00000000000E+00 0.  1.
      99926    2    1    2    0    0  0.00000000000E+00  0.00000000000E+00  0.40870150287E+03  0.60652374603E+03  0.44814521760E+03 0.  0.
      99925    2    3    3    0    0  0.49978008661E+02 -0.50923929448E+02  0.36612495632E+03  0.45635278227E+03  0.26290555397E+03 0.  0.
         25    1    4    4    0    0  0.56032247079E+02 -0.54306799768E+01  0.15809695952E+03  0.20931139889E+03  0.12509000000E+03 0.  0.
         25    1    3    3    0    0 -0.49978008661E+02  0.50923929448E+02  0.42576546552E+02  0.15017096376E+03  0.12509000000E+03 0.  0.
         25    1    4    4    0    0 -0.60542384176E+01 -0.45493249472E+02  0.20802799680E+03  0.24704138338E+03  0.12509000000E+03 0.  0.
<mgrwt>
<rscale>  2 0.44814522E+03</rscale>
<asrwt>0</asrwt>
<pdfrwt beam="1">  1       21 0.74648914E-01 0.44814522E+03</pdfrwt>
<pdfrwt beam="2">  1       21 0.14545753E-01 0.44814522E+03</pdfrwt>
<totfact> 0.61543958E+04</totfact>
</mgrwt>
</event>
<event>
 7    0  0.4831799E-002  0.4591764E+03  0.7546771E-02  0.1025020E+00
         21   -1    0    0  502  501  0.00000000000E+00  0.00000000000E+00  0.72613325026E+03  0.72613325026E+03  0.00000000000E+00 0.  1.
         21   -1    0    0  501  502 -0.00000000000E+00 -0.00000000000E+00 -0.72590996976E+02  0.72590996976E+02  0.00000000000E+00 0.  1.
      99926    2    1    2    0    0 -0.44408920985E-15  0.14210854715E-13  0.65354225328E+03  0.79872424723E+03  0.45917637820E+03 0.  0.
      99925    2    3    3    0    0 -0.29643578221E+01 -0.74458519263E+02  0.56672179994E+03  0.62920092221E+03  0.26299685069E+03 0.  0.
         25    1    3    3    0    0  0.29643578221E+01  0.74458519263E+02  0.86820453341E+02  0.16952332502E+03  0.12509000000E+03 0.  0.
         25    1    4    4    0    0 -0.24751198219E+02 -0.71620671071E+02  0.31149677837E+03  0.34412191644E+03  0.12509000000E+03 0.  0.
         25    1    4    4    0    0  0.21786840397E+02 -0.28378481913E+01  0.25522502157E+03  0.28507900577E+03  0.12509000000E+03 0.  0.
<mgrwt>
<rscale>  2 0.45917638E+03</rscale>
<asrwt>0</asrwt>
<pdfrwt beam="1">  1       21 0.10678430E+00 0.45917638E+03</pdfrwt>
<pdfrwt beam="2">  1       21 0.10675147E-01 0.45917638E+03</pdfrwt>
<totfact> 0.46290625E+04</totfact>
</mgrwt>
</event>
<event>
 7    0  0.4831799E-002  0.4582218E+03  0.7546771E-02  0.1025298E+00
         21   -1    0    0  502  501  0.00000000000E+00  0.00000000000E+00  0.60208104589E+02  0.60208104589E+02  0.00000000000E+00 0.  1.
         21   -1    0    0  501  502 -0.00000000000E+00 -0.00000000000E+00 -0.87183963805E+03  0.87183963805E+03  0.00000000000E+00 0.  1.
      99926    2    1    2    0    0  0.00000000000E+00  0.00000000000E+00 -0.81163153346E+03  0.93204774264E+03  0.45822183323E+03 0.  0.
      99925    2    3    3    0    0  0.52682121799E+02  0.82734198353E+02 -0.38083993510E+03  0.47286448636E+03  0.26256696813E+03 0.  0.
         25    1    4    4    0    0  0.28289301509E+02  0.79851489327E+02 -0.18018947766E+03  0.23514314977E+03  0.12509000000E+03 0.  0.
         25    1    4    4    0    0  0.24392820290E+02  0.28827090263E+01 -0.20065045745E+03  0.23772133658E+03  0.12509000000E+03 0.  0.
         25    1    3    3    0    0 -0.52682121799E+02 -0.82734198353E+02 -0.43079159836E+03  0.45918325628E+03  0.12509000000E+03 0.  0.
<mgrwt>
<rscale>  2 0.45822183E+03</rscale>
<asrwt>0</asrwt>
<pdfrwt beam="1">  1       21 0.88541336E-02 0.45822183E+03</pdfrwt>
<pdfrwt beam="2">  1       21 0.12821170E+00 0.45822183E+03</pdfrwt>
<totfact> 0.40837614E+04</totfact>
</mgrwt>
</event>
<event>
 7    0  0.4831799E-002  0.4434942E+03  0.7546771E-02  0.1029680E+00
         21   -1    0    0  502  501  0.00000000000E+00  0.00000000000E+00  0.42627590216E+03  0.42627590216E+03  0.00000000000E+00 0. -1.
         21   -1    0    0  501  502 -0.00000000000E+00 -0.00000000000E+00 -0.11535200230E+03  0.11535200230E+03  0.00000000000E+00 0. -1.
      99926    2    1    2    0    0  0.00000000000E+00 -0.71054273576E-14  0.31092389986E+03  0.54162790446E+03  0.44349421121E+03 0.  0.
      99925    2    3    3    0    0 -0.80203096545E+02  0.48457051413E+02  0.15230053232E+03  0.31894089685E+03  0.26409699167E+03 0.  0.
         25    1    4    4    0    0 -0.82457549335E+02  0.34888755151E+02  0.93706533786E+02  0.18012466586E+03  0.12509000000E+03 0.  0.
         25    1    3    3    0    0  0.80203096545E+02 -0.48457051413E+02  0.15862336754E+03  0.22268700761E+03  0.12509000000E+03 0.  0.
         25    1    4    4    0    0  0.22544527902E+01  0.13568296263E+02  0.58593998538E+02  0.13881623099E+03  0.12509000000E+03 0.  0.
<mgrwt>
<rscale>  2 0.44349421E+03</rscale>
<asrwt>0</asrwt>
<pdfrwt beam="1">  1       21 0.62687632E-01 0.44349421E+03</pdfrwt>
<pdfrwt beam="2">  1       21 0.16963530E-01 0.44349421E+03</pdfrwt>
<totfact> 0.68445516E+04</totfact>
</mgrwt>
</event>
<event>
 7    0  0.4831799E-002  0.4624438E+03  0.7546771E-02  0.1024075E+00
         21   -1    0    0  502  501  0.00000000000E+00  0.00000000000E+00  0.18186809373E+03  0.18186809373E+03  0.00000000000E+00 0.  1.
         21   -1    0    0  501  502 -0.00000000000E+00 -0.00000000000E+00 -0.29396888149E+03  0.29396888149E+03  0.00000000000E+00 0.  1.
      99926    2    1    2    0    0  0.14210854715E-13  0.00000000000E+00 -0.11210078776E+03  0.47583697522E+03  0.46244376996E+03 0.  0.
      99925    2    3    3    0    0  0.74697012794E+02 -0.53790440800E+02 -0.14927491592E+03  0.31614201868E+03  0.26303938909E+03 0.  0.
         25    1    4    4    0    0  0.67203777070E+02 -0.26311233028E+02 -0.46368841190E+02  0.15167796864E+03  0.12509000000E+03 0.  0.
         25    1    3    3    0    0 -0.74697012794E+02  0.53790440800E+02  0.37174128159E+02  0.15969495655E+03  0.12509000000E+03 0.  0.
         25    1    4    4    0    0  0.74932357234E+01 -0.27479207772E+02 -0.10290607473E+03  0.16446405004E+03  0.12509000000E+03 0.  0.
<mgrwt>
<rscale>  2 0.46244377E+03</rscale>
<asrwt>0</asrwt>
<pdfrwt beam="1">  1       21 0.26745308E-01 0.46244377E+03</pdfrwt>
<pdfrwt beam="2">  1       21 0.43230717E-01 0.46244377E+03</pdfrwt>
<totfact> 0.63189316E+04</totfact>
</mgrwt>
</event>
<event>
 7    0  0.4831799E-002  0.4653575E+03  0.7546771E-02  0.1023239E+00
         21   -1    0    0  502  501  0.00000000000E+00  0.00000000000E+00  0.18719114011E+02  0.18719114011E+02  0.00000000000E+00 0.  1.
         21   -1    0    0  501  502 -0.00000000000E+00 -0.00000000000E+00 -0.28921994880E+04  0.28921994880E+04  0.00000000000E+00 0.  1.
      99926    2    1    2    0    0  0.00000000000E+00  0.00000000000E+00 -0.28734803740E+04  0.29109186020E+04  0.46535754838E+03 0.  0.
      99925    2    3    3    0    0 -0.36582936852E+02  0.91890393030E+02 -0.13392267856E+04  0.13683999677E+04  0.26307400621E+03 0.  0.
         25    1    4    4    0    0 -0.24406685470E+01  0.84609609401E+02 -0.74189561685E+03  0.75711383376E+03  0.12509000000E+03 0.  0.
         25    1    3    3    0    0  0.36582936852E+02 -0.91890393030E+02 -0.15342535884E+04  0.15425186343E+04  0.12509000000E+03 0.  0.
         25    1    4    4    0    0 -0.34142268305E+02  0.72807836290E+01 -0.59733116877E+03  0.61128613396E+03  0.12509000000E+03 0.  0.
<mgrwt>
<rscale>  2 0.46535755E+03</rscale>
<asrwt>0</asrwt>
<pdfrwt beam="1">  1       21 0.27528109E-02 0.46535755E+03</pdfrwt>
<pdfrwt beam="2">  1       21 0.42532345E+00 0.46535755E+03</pdfrwt>
<totfact> 0.34852388E+03</totfact>
</mgrwt>
</event>
<event>
 7    0  0.4831799E-002  0.4571196E+03  0.7546771E-02  0.1025620E+00
         21   -1    0    0  502  501  0.00000000000E+00  0.00000000000E+00  0.15355211846E+04  0.15355211846E+04  0.00000000000E+00 0. -1.
         21   -1    0    0  501  502 -0.00000000000E+00 -0.00000000000E+00 -0.34020755490E+02  0.34020755490E+02  0.00000000000E+00 0. -1.
      99926    2    1    2    0    0  0.00000000000E+00  0.00000000000E+00  0.15015004291E+04  0.15695419401E+04  0.45711963761E+03 0.  0.
      99925    2    3    3    0    0  0.32354549622E+02  0.10443077539E+03  0.10672809638E+04  0.11046261887E+04  0.26297862528E+03 0.  0.
         25    1    4    4    0    0 -0.22350140411E+02  0.38045373476E+02  0.47077766459E+03  0.48910744913E+03  0.12509000000E+03 0.  0.
         25    1    3    3    0    0 -0.32354549622E+02 -0.10443077539E+03  0.43421946531E+03  0.46491575138E+03  0.12509000000E+03 0.  0.
         25    1    4    4    0    0  0.54704690033E+02  0.66385401919E+02  0.59650329926E+03  0.61551873962E+03  0.12509000000E+03 0.  0.
<mgrwt>
<rscale>  2 0.45711964E+03</rscale>
<asrwt>0</asrwt>
<pdfrwt beam="1">  1       21 0.22581189E+00 0.45711964E+03</pdfrwt>
<pdfrwt beam="2">  1       21 0.50030533E-02 0.45711964E+03</pdfrwt>
<totfact> 0.21764607E+04</totfact>
</mgrwt>
</event>
<event>
 7    0  0.4831799E-002  0.4547711E+03  0.7546771E-02  0.1026309E+00
         21   -1    0    0  502  501  0.00000000000E+00  0.00000000000E+00  0.40222106449E+02  0.40222106449E+02  0.00000000000E+00 0. -1.
         21   -1    0    0  501  502 -0.00000000000E+00 -0.00000000000E+00 -0.12854669122E+04  0.12854669122E+04  0.00000000000E+00 0. -1.
      99926    2    1    2    0    0  0.00000000000E+00  0.00000000000E+00 -0.12452448057E+04  0.13256890186E+04  0.45477109397E+03 0.  0.
      99925    2    3    3    0    0  0.83202214070E+02  0.53652598240E+02 -0.62552317128E+03  0.68576431835E+03  0.26304420310E+03 0.  0.
         25    1    4    4    0    0  0.53336597831E+02 -0.11044516719E+02 -0.28090722347E+03  0.31228696789E+03  0.12509000000E+03 0.  0.
         25    1    3    3    0    0 -0.83202214070E+02 -0.53652598240E+02 -0.61972163447E+03  0.63992470030E+03  0.12509000000E+03 0.  0.
         25    1    4    4    0    0  0.29865616239E+02  0.64697114959E+02 -0.34461594781E+03  0.37347735046E+03  0.12509000000E+03 0.  0.
<mgrwt>
<rscale>  2 0.45477109E+03</rscale>
<asrwt>0</asrwt>
<pdfrwt beam="1">  1       21 0.59150162E-02 0.45477109E+03</pdfrwt>
<pdfrwt beam="2">  1       21 0.18903924E+00 0.45477109E+03</pdfrwt>
<totfact> 0.28428265E+04</totfact>
</mgrwt>
</event>
<event>
 7    0  0.4831799E-002  0.4403904E+03  0.7546771E-02  0.1030627E+00
         21   -1    0    0  502  501  0.00000000000E+00  0.00000000000E+00  0.93201948473E+03  0.93201948473E+03  0.00000000000E+00 0. -1.
         21   -1    0    0  501  502 -0.00000000000E+00 -0.00000000000E+00 -0.52022438090E+02  0.52022438090E+02  0.00000000000E+00 0. -1.
      99926    2    1    2    0    0  0.35527136788E-14  0.71054273576E-14  0.87999704664E+03  0.98404192282E+03  0.44039039927E+03 0.  0.
      99925    2    3    3    0    0  0.24458101464E+02  0.62238660289E+02  0.39805112006E+03  0.48165637983E+03  0.26282375175E+03 0.  0.
         25    1    4    4    0    0  0.10933396905E+02  0.72287059142E+02  0.21891924608E+03  0.26252257520E+03  0.12509000000E+03 0.  0.
         25    1    3    3    0    0 -0.24458101464E+02 -0.62238660289E+02  0.48194592658E+03  0.50238554299E+03  0.12509000000E+03 0.  0.
         25    1    4    4    0    0  0.13524704559E+02 -0.10048398852E+02  0.17913187399E+03  0.21913380463E+03  0.12509000000E+03 0.  0.
<mgrwt>
<rscale>  2 0.44039040E+03</rscale>
<asrwt>0</asrwt>
<pdfrwt beam="1">  1       21 0.13706168E+00 0.44039040E+03</pdfrwt>
<pdfrwt beam="2">  1       21 0.76503591E-02 0.44039040E+03</pdfrwt>
<totfact> 0.44678214E+04</totfact>
</mgrwt>
</event>
<event>
 7    0  0.4831799E-002  0.4973413E+03  0.7546771E-02  0.1014475E+00
         21   -1    0    0  502  501  0.00000000000E+00  0.00000000000E+00  0.73814164262E+03  0.73814164262E+03  0.00000000000E+00 0.  1.
         21   -1    0    0  501  502 -0.00000000000E+00 -0.00000000000E+00 -0.83774012787E+02  0.83774012787E+02  0.00000000000E+00 0.  1.
      99926    2    1    2    0    0  0.00000000000E+00 -0.14210854715E-13  0.65436762984E+03  0.82191565541E+03  0.49734128084E+03 0.  0.
      99925    2    3    3    0    0 -0.10617535434E+03  0.10445372724E+03  0.37867469799E+03  0.48451694798E+03  0.26301779214E+03 0.  0.
         25    1    4    4    0    0 -0.49456707929E+02  0.44087118982E+02  0.12041082353E+03  0.18583840976E+03  0.12509000000E+03 0.  0.
         25    1    3    3    0    0  0.10617535434E+03 -0.10445372724E+03  0.27569293185E+03  0.33739870743E+03  0.12509000000E+03 0.  0.
         25    1    4    4    0    0 -0.56718646410E+02  0.60366608258E+02  0.25826387445E+03  0.29867853822E+03  0.12509000000E+03 0.  0.
<mgrwt>
<rscale>  2 0.49734128E+03</rscale>
<asrwt>0</asrwt>
<pdfrwt beam="1">  1       21 0.10855024E+00 0.49734128E+03</pdfrwt>
<pdfrwt beam="2">  1       21 0.12319708E-01 0.49734128E+03</pdfrwt>
<totfact> 0.33955942E+04</totfact>
</mgrwt>
</event>
<event>
 7    0  0.4831799E-002  0.4530229E+03  0.7546771E-02  0.1026824E+00
         21   -1    0    0  502  501  0.00000000000E+00  0.00000000000E+00  0.40218971555E+03  0.40218971555E+03  0.00000000000E+00 0. -1.
         21   -1    0    0  501  502 -0.00000000000E+00 -0.00000000000E+00 -0.12757023575E+03  0.12757023575E+03  0.00000000000E+00 0. -1.
      99926    2    1    2    0    0  0.14210854715E-13 -0.35527136788E-14  0.27461947980E+03  0.52975995130E+03  0.45302289933E+03 0.  0.
      99925    2    3    3    0    0 -0.10230329527E+03  0.31031744387E+02  0.20926793592E+03  0.35270836060E+03  0.26302316485E+03 0.  0.
         25    1    4    4    0    0 -0.87578552051E+02  0.30635319576E+02  0.93630391397E+02  0.18172144584E+03  0.12509000000E+03 0.  0.
         25    1    3    3    0    0  0.10230329527E+03 -0.31031744387E+02  0.65351543882E+02  0.17705159070E+03  0.12509000000E+03 0.  0.
         25    1    4    4    0    0 -0.14724743219E+02  0.39642481165E+00  0.11563754452E+03  0.17098691476E+03  0.12509000000E+03 0.  0.
<mgrwt>
<rscale>  2 0.45302290E+03</rscale>
<asrwt>0</asrwt>
<pdfrwt beam="1">  1       21 0.59145546E-01 0.45302290E+03</pdfrwt>
<pdfrwt beam="2">  1       21 0.18760329E-01 0.45302290E+03</pdfrwt>
<totfact> 0.64223264E+04</totfact>
</mgrwt>
</event>
<event>
 7    0  0.4831799E-002  0.4583464E+03  0.7546771E-02  0.1025262E+00
         21   -1    0    0  502  501  0.00000000000E+00  0.00000000000E+00  0.12278591740E+03  0.12278591740E+03  0.00000000000E+00 0.  1.
         21   -1    0    0  501  502 -0.00000000000E+00 -0.00000000000E+00 -0.42773929599E+03  0.42773929599E+03  0.00000000000E+00 0.  1.
      99926    2    1    2    0    0 -0.71054273576E-14  0.00000000000E+00 -0.30495337859E+03  0.55052521339E+03  0.45834642735E+03 0.  0.
      99925    2    3    3    0    0 -0.63991849503E+02 -0.96989592421E+02 -0.18511110199E+03  0.34193082899E+03  0.26296127832E+03 0.  0.
         25    1    4    4    0    0 -0.24353089067E+02 -0.60434457463E+02 -0.48856380769E+02  0.14926436493E+03  0.12509000000E+03 0.  0.
         25    1    4    4    0    0 -0.39638760436E+02 -0.36555134958E+02 -0.13625472122E+03  0.19266646407E+03  0.12509000000E+03 0.  0.
         25    1    3    3    0    0  0.63991849503E+02  0.96989592421E+02 -0.11984227660E+03  0.20859438440E+03  0.12509000000E+03 0.  0.
<mgrwt>
<rscale>  2 0.45834643E+03</rscale>
<asrwt>0</asrwt>
<pdfrwt beam="1">  1       21 0.18056752E-01 0.45834643E+03</pdfrwt>
<pdfrwt beam="2">  1       21 0.62902839E-01 0.45834643E+03</pdfrwt>
<totfact> 0.60221458E+04</totfact>
</mgrwt>
</event>
<event>
 7    0  0.4831799E-002  0.4534306E+03  0.7546771E-02  0.1026704E+00
         21   -1    0    0  502  501  0.00000000000E+00  0.00000000000E+00  0.13122512279E+03  0.13122512279E+03  0.00000000000E+00 0. -1.
         21   -1    0    0  501  502 -0.00000000000E+00 -0.00000000000E+00 -0.39169194227E+03  0.39169194227E+03  0.00000000000E+00 0. -1.
      99926    2    1    2    0    0  0.35527136788E-14  0.00000000000E+00 -0.26046681949E+03  0.52291706506E+03  0.45343058221E+03 0.  0.
      99925    2    3    3    0    0 -0.27770577087E+02 -0.86232972661E+02 -0.23937782063E+03  0.36703382511E+03  0.26306797076E+03 0.  0.
         25    1    4    4    0    0 -0.32831978557E+02 -0.19144529956E+02 -0.15106822078E+03  0.19978380133E+03  0.12509000000E+03 0.  0.
         25    1    4    4    0    0  0.50614014706E+01 -0.67088442704E+02 -0.88309599853E+02  0.16725002378E+03  0.12509000000E+03 0.  0.
         25    1    3    3    0    0  0.27770577087E+02  0.86232972661E+02 -0.21088998854E+02  0.15588323995E+03  0.12509000000E+03 0.  0.
<mgrwt>
<rscale>  2 0.45343058E+03</rscale>
<asrwt>0</asrwt>
<pdfrwt beam="1">  1       21 0.19297812E-01 0.45343058E+03</pdfrwt>
<pdfrwt beam="2">  1       21 0.57601755E-01 0.45343058E+03</pdfrwt>
<totfact> 0.64487112E+04</totfact>
</mgrwt>
</event>
<event>
 7    0  0.4831799E-002  0.4476837E+03  0.7546771E-02  0.1028415E+00
         21   -1    0    0  502  501  0.00000000000E+00  0.00000000000E+00  0.31800744953E+02  0.31800744953E+02  0.00000000000E+00 0. -1.
         21   -1    0    0  501  502 -0.00000000000E+00 -0.00000000000E+00 -0.15755977207E+04  0.15755977207E+04  0.00000000000E+00 0. -1.
      99926    2    1    2    0    0  0.00000000000E+00  0.00000000000E+00 -0.15437969757E+04  0.16073984656E+04  0.44768373329E+03 0.  0.
      99925    2    3    3    0    0  0.26443745117E+02  0.95911733194E+02 -0.84534800976E+03  0.89089529161E+03  0.26302629297E+03 0.  0.
         25    1    4    4    0    0  0.53903356126E+02  0.48895214990E+02 -0.44491253878E+03  0.46785787277E+03  0.12509000000E+03 0.  0.
         25    1    4    4    0    0 -0.27459611009E+02  0.47016518204E+02 -0.40043547098E+03  0.42303741884E+03  0.12509000000E+03 0.  0.
         25    1    3    3    0    0 -0.26443745117E+02 -0.95911733194E+02 -0.69844896594E+03  0.71650317400E+03  0.12509000000E+03 0.  0.
<mgrwt>
<rscale>  2 0.44768373E+03</rscale>
<asrwt>0</asrwt>
<pdfrwt beam="1">  1       21 0.46765794E-02 0.44768373E+03</pdfrwt>
<pdfrwt beam="2">  1       21 0.23170558E+00 0.44768373E+03</pdfrwt>
<totfact> 0.22515310E+04</totfact>
</mgrwt>
</event>
<event>
 7    0  0.4831799E-002  0.4513339E+03  0.7546771E-02  0.1027325E+00
         21   -1    0    0  502  501  0.00000000000E+00  0.00000000000E+00  0.12699928859E+03  0.12699928859E+03  0.00000000000E+00 0. -1.
         21   -1    0    0  501  502 -0.00000000000E+00 -0.00000000000E+00 -0.40099102365E+03  0.40099102365E+03  0.00000000000E+00 0. -1.
      99926    2    1    2    0    0 -0.71054273576E-14  0.35527136788E-14 -0.27399173506E+03  0.52799031224E+03  0.45133391069E+03 0.  0.
      99925    2    3    3    0    0  0.34219580782E+02 -0.30113397589E+02 -0.56256683413E+02  0.27277695593E+03  0.26299174290E+03 0.  0.
         25    1    4    4    0    0 -0.19363397826E+02 -0.25270204404E+02 -0.12177036030E+02  0.12965073356E+03  0.12509000000E+03 0.  0.
         25    1    3    3    0    0 -0.34219580782E+02  0.30113397589E+02 -0.21773505165E+03  0.25521335631E+03  0.12509000000E+03 0.  0.
         25    1    4    4    0    0  0.53582978608E+02 -0.48431931854E+01 -0.44079647384E+02  0.14312622237E+03  0.12509000000E+03 0.  0.
<mgrwt>
<rscale>  2 0.45133391E+03</rscale>
<asrwt>0</asrwt>
<pdfrwt beam="1">  1       21 0.18676366E-01 0.45133391E+03</pdfrwt>
<pdfrwt beam="2">  1       21 0.58969268E-01 0.45133391E+03</pdfrwt>
<totfact> 0.65216984E+04</totfact>
</mgrwt>
</event>
<event>
 7    0  0.4831799E-002  0.4559106E+03  0.7546771E-02  0.1025974E+00
         21   -1    0    0  502  501  0.00000000000E+00  0.00000000000E+00  0.43259480374E+02  0.43259480374E+02  0.00000000000E+00 0.  1.
         21   -1    0    0  501  502 -0.00000000000E+00 -0.00000000000E+00 -0.12012075059E+04  0.12012075059E+04  0.00000000000E+00 0.  1.
      99926    2    1    2    0    0  0.14210854715E-13  0.00000000000E+00 -0.11579480255E+04  0.12444669863E+04  0.45591057249E+03 0.  0.
      99925    2    3    3    0    0 -0.81483432886E+02  0.16499857234E+02 -0.94284831944E+03  0.98211762610E+03  0.26206923306E+03 0.  0.
         25    1    3    3    0    0  0.81483432886E+02 -0.16499857234E+02 -0.21509970611E+03  0.26234936019E+03  0.12509000000E+03 0.  0.
         25    1    4    4    0    0 -0.50348903680E+01  0.13787766017E+02 -0.37217656623E+03  0.39291011334E+03  0.12509000000E+03 0.  0.
         25    1    4    4    0    0 -0.76448542518E+02  0.27120912176E+01 -0.57067175321E+03  0.58920751277E+03  0.12509000000E+03 0.  0.
<mgrwt>
<rscale>  2 0.45591057E+03</rscale>
<asrwt>0</asrwt>
<pdfrwt beam="1">  1       21 0.63616893E-02 0.45591057E+03</pdfrwt>
<pdfrwt beam="2">  1       21 0.17664813E+00 0.45591057E+03</pdfrwt>
<totfact> 0.30553936E+04</totfact>
</mgrwt>
</event>
<event>
 7    0  0.4831799E-002  0.4523829E+03  0.7546771E-02  0.1027014E+00
         21   -1    0    0  502  501  0.00000000000E+00  0.00000000000E+00  0.37297913779E+02  0.37297913779E+02  0.00000000000E+00 0. -1.
         21   -1    0    0  501  502 -0.00000000000E+00 -0.00000000000E+00 -0.13717276321E+04  0.13717276321E+04  0.00000000000E+00 0. -1.
      99926    2    1    2    0    0  0.26645352591E-14 -0.14210854715E-13 -0.13344297183E+04  0.14090255459E+04  0.45238293049E+03 0.  0.
      99925    2    3    3    0    0  0.50363769690E+01  0.83003054875E+02 -0.10694556909E+04  0.11044379303E+04  0.26293116027E+03 0.  0.
         25    1    4    4    0    0 -0.23188525483E+02  0.70881941662E+02 -0.62119708387E+03  0.63804018877E+03  0.12509000000E+03 0.  0.
         25    1    3    3    0    0 -0.50363769690E+01 -0.83003054875E+02 -0.26497402744E+03  0.30458761552E+03  0.12509000000E+03 0.  0.
         25    1    4    4    0    0  0.28224902452E+02  0.12121113213E+02 -0.44825860700E+03  0.46639774158E+03  0.12509000000E+03 0.  0.
<mgrwt>
<rscale>  2 0.45238293E+03</rscale>
<asrwt>0</asrwt>
<pdfrwt beam="1">  1       21 0.54849889E-02 0.45238293E+03</pdfrwt>
<pdfrwt beam="2">  1       21 0.20172459E+00 0.45238293E+03</pdfrwt>
<totfact> 0.26629959E+04</totfact>
</mgrwt>
</event>
<event>
 7    0  0.4831799E-002  0.4560851E+03  0.7546771E-02  0.1025923E+00
         21   -1    0    0  502  501  0.00000000000E+00  0.00000000000E+00  0.45483914004E+02  0.45483914004E+02  0.00000000000E+00 0. -1.
         21   -1    0    0  501  502 -0.00000000000E+00 -0.00000000000E+00 -0.11433363680E+04  0.11433363680E+04  0.00000000000E+00 0. -1.
      99926    2    1    2    0    0 -0.35527136788E-14  0.14210854715E-13 -0.10978524540E+04  0.11888202820E+04  0.45608513696E+03 0.  0.
      99925    2    3    3    0    0  0.23844207743E+02 -0.83821817742E+02 -0.49798612463E+03  0.56988428807E+03  0.26302714327E+03 0.  0.
         25    1    3    3    0    0 -0.23844207743E+02  0.83821817742E+02 -0.59986632935E+03  0.61893599391E+03  0.12509000000E+03 0.  0.
         25    1    4    4    0    0  0.58175827274E+01 -0.11252560076E+02 -0.28834580457E+03  0.31456521659E+03  0.12509000000E+03 0.  0.
         25    1    4    4    0    0  0.18026625015E+02 -0.72569257666E+02 -0.20964032006E+03  0.25531907148E+03  0.12509000000E+03 0.  0.
<mgrwt>
<rscale>  2 0.45608514E+03</rscale>
<asrwt>0</asrwt>
<pdfrwt beam="1">  1       21 0.66888113E-02 0.45608514E+03</pdfrwt>
<pdfrwt beam="2">  1       21 0.16813769E+00 0.45608514E+03</pdfrwt>
<totfact> 0.32238888E+04</totfact>
</mgrwt>
</event>
<event>
 7    0  0.4831799E-002  0.4547598E+03  0.7546771E-02  0.1026312E+00
         21   -1    0    0  502  501  0.00000000000E+00  0.00000000000E+00  0.42300257524E+02  0.42300257524E+02  0.00000000000E+00 0. -1.
         21   -1    0    0  501  502 -0.00000000000E+00 -0.00000000000E+00 -0.12222531500E+04  0.12222531500E+04  0.00000000000E+00 0. -1.
      99926    2    1    2    0    0 -0.35527136788E-14  0.00000000000E+00 -0.11799528924E+04  0.12645534075E+04  0.45475981794E+03 0.  0.
      99925    2    3    3    0    0  0.17976159588E+02  0.69128195152E+02 -0.49934138325E+03  0.56886570153E+03  0.26299148213E+03 0.  0.
         25    1    4    4    0    0  0.23429870363E+02 -0.21624244687E+01 -0.26043211021E+03  0.28987243235E+03  0.12509000000E+03 0.  0.
         25    1    4    4    0    0 -0.54537107754E+01  0.71290619621E+02 -0.23890927304E+03  0.27899326919E+03  0.12509000000E+03 0.  0.
         25    1    3    3    0    0 -0.17976159588E+02 -0.69128195152E+02 -0.68061150919E+03  0.69568770596E+03  0.12509000000E+03 0.  0.
<mgrwt>
<rscale>  2 0.45475982E+03</rscale>
<asrwt>0</asrwt>
<pdfrwt beam="1">  1       21 0.62206260E-02 0.45475982E+03</pdfrwt>
<pdfrwt beam="2">  1       21 0.17974311E+00 0.45475982E+03</pdfrwt>
<totfact> 0.30218211E+04</totfact>
</mgrwt>
</event>
<event>
 7    0  0.4831799E-002  0.4369925E+03  0.7546771E-02  0.1031674E+00
         21   -1    0    0  502  501  0.00000000000E+00  0.00000000000E+00  0.19649034054E+03  0.19649034054E+03  0.00000000000E+00 0.  1.
         21   -1    0    0  501  502 -0.00000000000E+00 -0.00000000000E+00 -0.24296667664E+03  0.24296667664E+03  0.00000000000E+00 0.  1.
      99926    2    1    2    0    0  0.00000000000E+00 -0.71054273576E-14 -0.46476336102E+02  0.43945701717E+03  0.43699247147E+03 0.  0.
      99925    2    3    3    0    0 -0.46243278349E+02 -0.45779536898E+02 -0.99836456097E+02  0.28869555891E+03  0.26295170845E+03 0.  0.
         25    1    4    4    0    0 -0.17611218126E+02 -0.18465921136E+02 -0.67817019741E+01  0.12784617643E+03  0.12509000000E+03 0.  0.
         25    1    3    3    0    0  0.46243278349E+02  0.45779536898E+02  0.53360119995E+02  0.15076145826E+03  0.12509000000E+03 0.  0.
         25    1    4    4    0    0 -0.28632060224E+02 -0.27313615762E+02 -0.93054754123E+02  0.16084938248E+03  0.12509000000E+03 0.  0.
<mgrwt>
<rscale>  2 0.43699247E+03</rscale>
<asrwt>0</asrwt>
<pdfrwt beam="1">  1       21 0.28895638E-01 0.43699247E+03</pdfrwt>
<pdfrwt beam="2">  1       21 0.35730393E-01 0.43699247E+03</pdfrwt>
<totfact> 0.80683461E+04</totfact>
</mgrwt>
</event>
<event>
 7    0  0.4831799E-002  0.4618874E+03  0.7546771E-02  0.1024235E+00
         21   -1    0    0  502  501  0.00000000000E+00  0.00000000000E+00  0.61406098644E+03  0.61406098644E+03  0.00000000000E+00 0. -1.
         21   -1    0    0  501  502 -0.00000000000E+00 -0.00000000000E+00 -0.86856182489E+02  0.86856182489E+02  0.00000000000E+00 0. -1.
      99926    2    1    2    0    0  0.00000000000E+00  0.00000000000E+00  0.52720480395E+03  0.70091716893E+03  0.46188740229E+03 0.  0.
      99925    2    3    3    0    0 -0.10280980548E+03 -0.30557290685E+02  0.24987205207E+03  0.37832676690E+03  0.26304276464E+03 0.  0.
         25    1    3    3    0    0  0.10280980548E+03  0.30557290685E+02  0.27733275188E+03  0.32259040203E+03  0.12509000000E+03 0.  0.
         25    1    4    4    0    0 -0.42275180703E+02 -0.82246954148E+01  0.17352034730E+03  0.21820095221E+03  0.12509000000E+03 0.  0.
         25    1    4    4    0    0 -0.60534624777E+02 -0.22332595270E+02  0.76351704774E+02  0.16012581469E+03  0.12509000000E+03 0.  0.
<mgrwt>
<rscale>  2 0.46188740E+03</rscale>
<asrwt>0</asrwt>
<pdfrwt beam="1">  1       21 0.90303084E-01 0.46188740E+03</pdfrwt>
<pdfrwt beam="2">  1       21 0.12772968E-01 0.46188740E+03</pdfrwt>
<totfact> 0.50082866E+04</totfact>
</mgrwt>
</event>
<event>
 7    0  0.4831799E-002  0.4558716E+03  0.7546771E-02  0.1025985E+00
         21   -1    0    0  502  501  0.00000000000E+00  0.00000000000E+00  0.14300811933E+03  0.14300811933E+03  0.00000000000E+00 0. -1.
         21   -1    0    0  501  502 -0.00000000000E+00 -0.00000000000E+00 -0.36329918079E+03  0.36329918079E+03  0.00000000000E+00 0. -1.
      99926    2    1    2    0    0  0.00000000000E+00  0.00000000000E+00 -0.22029106146E+03  0.50630730012E+03  0.45587161613E+03 0.  0.
      99925    2    3    3    0    0 -0.42494562696E+02  0.83291445316E+02 -0.21108340068E+03  0.34986068993E+03  0.26287458530E+03 0.  0.
         25    1    4    4    0    0 -0.33360368837E+02  0.36666564865E+02 -0.57951486499E+02  0.14650335858E+03  0.12509000000E+03 0.  0.
         25    1    3    3    0    0  0.42494562696E+02 -0.83291445316E+02 -0.92076607787E+01  0.15644661019E+03  0.12509000000E+03 0.  0.
         25    1    4    4    0    0 -0.91341938591E+01  0.46624880451E+02 -0.15313191418E+03  0.20335733135E+03  0.12509000000E+03 0.  0.
<mgrwt>
<rscale>  2 0.45587162E+03</rscale>
<asrwt>0</asrwt>
<pdfrwt beam="1">  1       21 0.21030606E-01 0.45587162E+03</pdfrwt>
<pdfrwt beam="2">  1       21 0.53426349E-01 0.45587162E+03</pdfrwt>
<totfact> 0.64383222E+04</totfact>
</mgrwt>
</event>
<event>
 7    0  0.4831799E-002  0.4529084E+03  0.7546771E-02  0.1026858E+00
         21   -1    0    0  502  501  0.00000000000E+00  0.00000000000E+00  0.94744803146E+03  0.94744803146E+03  0.00000000000E+00 0.  1.
         21   -1    0    0  501  502 -0.00000000000E+00 -0.00000000000E+00 -0.54125935944E+02  0.54125935944E+02  0.00000000000E+00 0.  1.
      99926    2    1    2    0    0  0.00000000000E+00  0.00000000000E+00  0.89332209551E+03  0.10015739674E+04  0.45290842987E+03 0.  0.
      99925    2    3    3    0    0  0.98082411711E+02  0.52510222376E+02  0.56836173017E+03  0.63602748597E+03  0.26290382966E+03 0.  0.
         25    1    3    3    0    0 -0.98082411711E+02 -0.52510222376E+02  0.32496036534E+03  0.36554648143E+03  0.12509000000E+03 0.  0.
         25    1    4    4    0    0  0.25376875464E+02  0.51865302534E+02  0.32345995441E+03  0.35157907450E+03  0.12509000000E+03 0.  0.
         25    1    4    4    0    0  0.72705536247E+02  0.64491984257E+00  0.24490177576E+03  0.28444841148E+03  0.12509000000E+03 0.  0.
<mgrwt>
<rscale>  2 0.45290843E+03</rscale>
<asrwt>0</asrwt>
<pdfrwt beam="1">  1       21 0.13933058E+00 0.45290843E+03</pdfrwt>
<pdfrwt beam="2">  1       21 0.79596971E-02 0.45290843E+03</pdfrwt>
<totfact> 0.39750981E+04</totfact>
</mgrwt>
</event>
<event>
 7    0  0.4831799E-002  0.4588189E+03  0.7546771E-02  0.1025124E+00
         21   -1    0    0  502  501  0.00000000000E+00  0.00000000000E+00  0.99547688653E+03  0.99547688653E+03  0.00000000000E+00 0. -1.
         21   -1    0    0  501  502 -0.00000000000E+00 -0.00000000000E+00 -0.52867811503E+02  0.52867811503E+02  0.00000000000E+00 0. -1.
      99926    2    1    2    0    0  0.35527136788E-14  0.00000000000E+00  0.94260907503E+03  0.10483446980E+04  0.45881885050E+03 0.  0.
      99925    2    3    3    0    0  0.21344052372E+02 -0.91221939666E+02  0.43218571111E+03  0.51453150095E+03  0.26302312775E+03 0.  0.
         25    1    3    3    0    0 -0.21344052372E+02  0.91221939666E+02  0.51042336392E+03  0.53381319708E+03  0.12509000000E+03 0.  0.
         25    1    4    4    0    0  0.36249752361E+02 -0.67387539713E+02  0.27533218705E+03  0.31194622354E+03  0.12509000000E+03 0.  0.
         25    1    4    4    0    0 -0.14905699989E+02 -0.23834399953E+02  0.15685352406E+03  0.20258527741E+03  0.12509000000E+03 0.  0.
<mgrwt>
<rscale>  2 0.45881885E+03</rscale>
<asrwt>0</asrwt>
<pdfrwt beam="1">  1       21 0.14639365E+00 0.45881885E+03</pdfrwt>
<pdfrwt beam="2">  1       21 0.77746788E-02 0.45881885E+03</pdfrwt>
<totfact> 0.36245672E+04</totfact>
</mgrwt>
</event>
<event>
 7    0  0.4831799E-002  0.4566953E+03  0.7546771E-02  0.1025744E+00
         21   -1    0    0  502  501  0.00000000000E+00  0.00000000000E+00  0.88081852227E+02  0.88081852227E+02  0.00000000000E+00 0. -1.
         21   -1    0    0  501  502 -0.00000000000E+00 -0.00000000000E+00 -0.59197958168E+03  0.59197958168E+03  0.00000000000E+00 0. -1.
      99926    2    1    2    0    0  0.00000000000E+00  0.00000000000E+00 -0.50389772945E+03  0.68006143391E+03  0.45669533843E+03 0.  0.
      99925    2    3    3    0    0  0.78575244447E+02 -0.59221037124E+01 -0.19299021828E+03  0.33579390864E+03  0.26325497977E+03 0.  0.
         25    1    4    4    0    0  0.49466457489E+02 -0.62671213657E+01 -0.14704870681E+03  0.19939166859E+03  0.12509000000E+03 0.  0.
         25    1    4    4    0    0  0.29108786958E+02  0.34501765335E+00 -0.45941511472E+02  0.13640224005E+03  0.12509000000E+03 0.  0.
         25    1    3    3    0    0 -0.78575244447E+02  0.59221037124E+01 -0.31090751117E+03  0.34426752527E+03  0.12509000000E+03 0.  0.
<mgrwt>
<rscale>  2 0.45669534E+03</rscale>
<asrwt>0</asrwt>
<pdfrwt beam="1">  1       21 0.12953214E-01 0.45669534E+03</pdfrwt>
<pdfrwt beam="2">  1       21 0.87055818E-01 0.45669534E+03</pdfrwt>
<totfact> 0.53284257E+04</totfact>
</mgrwt>
</event>
<event>
 7    0  0.4831799E-002  0.4506590E+03  0.7546771E-02  0.1027526E+00
         21   -1    0    0  502  501  0.00000000000E+00  0.00000000000E+00  0.18844303864E+04  0.18844303864E+04  0.00000000000E+00 0. -1.
         21   -1    0    0  501  502 -0.00000000000E+00 -0.00000000000E+00 -0.26943624210E+02  0.26943624210E+02  0.00000000000E+00 0. -1.
      99926    2    1    2    0    0  0.00000000000E+00  0.00000000000E+00  0.18574867622E+04  0.19113740106E+04  0.45065900271E+03 0.  0.
      99925    2    3    3    0    0  0.37614019869E+02  0.94783968839E+02  0.10096211037E+04  0.10482850823E+04  0.26299814729E+03 0.  0.
         25    1    4    4    0    0  0.14297965688E+02  0.56746525851E+02  0.65989600720E+03  0.67419199672E+03  0.12509000000E+03 0.  0.
         25    1    4    4    0    0  0.23316054181E+02  0.38037442988E+02  0.34972509647E+03  0.37409308554E+03  0.12509000000E+03 0.  0.
         25    1    3    3    0    0 -0.37614019869E+02 -0.94783968839E+02  0.84786565855E+03  0.86308892837E+03  0.12509000000E+03 0.  0.
<mgrwt>
<rscale>  2 0.45065900E+03</rscale>
<asrwt>0</asrwt>
<pdfrwt beam="1">  1       21 0.27712203E+00 0.45065900E+03</pdfrwt>
<pdfrwt beam="2">  1       21 0.39622989E-02 0.45065900E+03</pdfrwt>
<totfact> 0.15734595E+04</totfact>
</mgrwt>
</event>
<event>
 7    0  0.4831799E-002  0.4557810E+03  0.7546771E-02  0.1026012E+00
         21   -1    0    0  502  501  0.00000000000E+00  0.00000000000E+00  0.33647475001E+03  0.33647475001E+03  0.00000000000E+00 0. -1.
         21   -1    0    0  501  502 -0.00000000000E+00 -0.00000000000E+00 -0.15434761494E+03  0.15434761494E+03  0.00000000000E+00 0. -1.
      99926    2    1    2    0    0 -0.17763568394E-14  0.00000000000E+00  0.18212713507E+03  0.49082236495E+03  0.45578097877E+03 0.  0.
      99925    2    3    3    0    0 -0.15362141127E+02  0.11212005367E+03  0.10126857395E+03  0.30375949632E+03  0.26307338466E+03 0.  0.
         25    1    3    3    0    0  0.15362141127E+02 -0.11212005367E+03  0.80858561125E+02  0.18706286863E+03  0.12509000000E+03 0.  0.
         25    1    4    4    0    0 -0.23394013015E+02  0.21570439709E+02  0.66786080135E+02  0.14532877318E+03  0.12509000000E+03 0.  0.
         25    1    4    4    0    0  0.80318718876E+01  0.90549613959E+02  0.34482493811E+02  0.15843072314E+03  0.12509000000E+03 0.  0.
<mgrwt>
<rscale>  2 0.45578098E+03</rscale>
<asrwt>0</asrwt>
<pdfrwt beam="1">  1       21 0.49481581E-01 0.45578098E+03</pdfrwt>
<pdfrwt beam="2">  1       21 0.22698179E-01 0.45578098E+03</pdfrwt>
<totfact> 0.65513226E+04</totfact>
</mgrwt>
</event>
<event>
 7    0  0.4831799E-002  0.4676135E+03  0.7546771E-02  0.1022596E+00
         21   -1    0    0  502  501  0.00000000000E+00  0.00000000000E+00  0.47658355793E+03  0.47658355793E+03  0.00000000000E+00 0.  1.
         21   -1    0    0  501  502 -0.00000000000E+00 -0.00000000000E+00 -0.11470307014E+03  0.11470307014E+03  0.00000000000E+00 0.  1.
      99926    2    1    2    0    0  0.00000000000E+00  0.00000000000E+00  0.36188048779E+03  0.59128662808E+03  0.46761350398E+03 0.  0.
      99925    2    3    3    0    0 -0.35004899750E+02  0.46787692331E+02  0.36453289442E+03  0.45319617033E+03  0.26284616513E+03 0.  0.
         25    1    4    4    0    0 -0.23699094594E+01 -0.94003920337E+01  0.20464741255E+03  0.24004594436E+03  0.12509000000E+03 0.  0.
         25    1    4    4    0    0 -0.32634990291E+02  0.56188084365E+02  0.15988548188E+03  0.21315022597E+03  0.12509000000E+03 0.  0.
         25    1    3    3    0    0  0.35004899750E+02 -0.46787692331E+02 -0.26524066348E+01  0.13809045775E+03  0.12509000000E+03 0.  0.
<mgrwt>
<rscale>  2 0.46761350E+03</rscale>
<asrwt>0</asrwt>
<pdfrwt beam="1">  1       21 0.70085817E-01 0.46761350E+03</pdfrwt>
<pdfrwt beam="2">  1       21 0.16868099E-01 0.46761350E+03</pdfrwt>
<totfact> 0.53664399E+04</totfact>
</mgrwt>
</event>
<event>
 7    0  0.4831799E-002  0.4405838E+03  0.7546771E-02  0.1030568E+00
         21   -1    0    0  502  501  0.00000000000E+00  0.00000000000E+00  0.10842422235E+04  0.10842422235E+04  0.00000000000E+00 0. -1.
         21   -1    0    0  501  502 -0.00000000000E+00 -0.00000000000E+00 -0.44758008205E+02  0.44758008205E+02  0.00000000000E+00 0. -1.
      99926    2    1    2    0    0  0.00000000000E+00 -0.35527136788E-14  0.10394842153E+04  0.11290002317E+04  0.44058380513E+03 0.  0.
      99925    2    3    3    0    0  0.50383980358E+02 -0.17025097591E+02  0.44848391718E+03  0.52257030179E+03  0.26289445966E+03 0.  0.
         25    1    4    4    0    0  0.31780418621E+02  0.19933059527E+02  0.27765723625E+03  0.30683606504E+03  0.12509000000E+03 0.  0.
         25    1    3    3    0    0 -0.50383980358E+02  0.17025097591E+02  0.59100029813E+03  0.60642992993E+03  0.12509000000E+03 0.  0.
         25    1    4    4    0    0  0.18603561737E+02 -0.36958157118E+02  0.17082668093E+03  0.21573423675E+03  0.12509000000E+03 0.  0.
<mgrwt>
<rscale>  2 0.44058381E+03</rscale>
<asrwt>0</asrwt>
<pdfrwt beam="1">  1       21 0.15944737E+00 0.44058381E+03</pdfrwt>
<pdfrwt beam="2">  1       21 0.65820607E-02 0.44058381E+03</pdfrwt>
<totfact> 0.38656164E+04</totfact>
</mgrwt>
</event>
<event>
 7    0  0.4831799E-002  0.4586605E+03  0.7546771E-02  0.1025170E+00
         21   -1    0    0  502  501  0.00000000000E+00  0.00000000000E+00  0.96738323559E+03  0.96738323559E+03  0.00000000000E+00 0. -1.
         21   -1    0    0  501  502 -0.00000000000E+00 -0.00000000000E+00 -0.54365604565E+02  0.54365604565E+02  0.00000000000E+00 0. -1.
      99926    2    1    2    0    0  0.00000000000E+00  0.17763568394E-14  0.91301763103E+03  0.10217488402E+04  0.45866054746E+03 0.  0.
      99925    2    3    3    0    0  0.90112452754E+02 -0.89789842154E+01  0.40934265262E+03  0.49493115986E+03  0.26304860663E+03 0.  0.
         25    1    3    3    0    0 -0.90112452754E+02  0.89789842154E+01  0.50367497840E+03  0.52681768029E+03  0.12509000000E+03 0.  0.
         25    1    4    4    0    0  0.17022348372E+02  0.21220540950E+02  0.15915009311E+03  0.20424576358E+03  0.12509000000E+03 0.  0.
         25    1    4    4    0    0  0.73090104383E+02 -0.30199525165E+02  0.25019255951E+03  0.29068539628E+03  0.12509000000E+03 0.  0.
<mgrwt>
<rscale>  2 0.45866055E+03</rscale>
<asrwt>0</asrwt>
<pdfrwt beam="1">  1       21 0.14226223E+00 0.45866055E+03</pdfrwt>
<pdfrwt beam="2">  1       21 0.79949425E-02 0.45866055E+03</pdfrwt>
<totfact> 0.37255166E+04</totfact>
</mgrwt>
</event>
<event>
 7    0  0.4831799E-002  0.4309502E+03  0.7546771E-02  0.1033560E+00
         21   -1    0    0  502  501  0.00000000000E+00  0.00000000000E+00  0.78796519287E+02  0.78796519287E+02  0.00000000000E+00 0. -1.
         21   -1    0    0  501  502 -0.00000000000E+00 -0.00000000000E+00 -0.58923306129E+03  0.58923306129E+03  0.00000000000E+00 0. -1.
      99926    2    1    2    0    0  0.35527136788E-14  0.00000000000E+00 -0.51043654201E+03  0.66802958058E+03  0.43095017939E+03 0.  0.
      99925    2    3    3    0    0 -0.25230196602E+02  0.84988761009E+02 -0.32155346440E+03  0.42475200778E+03  0.26297905873E+03 0.  0.
         25    1    4    4    0    0 -0.25492807926E+02  0.80086418814E+02 -0.15257295596E+03  0.21445216885E+03  0.12509000000E+03 0.  0.
         25    1    4    4    0    0  0.26261132467E+00  0.49023421950E+01 -0.16898050843E+03  0.21029983893E+03  0.12509000000E+03 0.  0.
         25    1    3    3    0    0  0.25230196602E+02 -0.84988761009E+02 -0.18888307761E+03  0.24327757280E+03  0.12509000000E+03 0.  0.
<mgrwt>
<rscale>  2 0.43095018E+03</rscale>
<asrwt>0</asrwt>
<pdfrwt beam="1">  1       21 0.11587724E-01 0.43095018E+03</pdfrwt>
<pdfrwt beam="2">  1       21 0.86651920E-01 0.43095018E+03</pdfrwt>
<totfact> 0.66383802E+04</totfact>
</mgrwt>
</event>
<event>
 7    0  0.4831799E-002  0.4555159E+03  0.7546771E-02  0.1026090E+00
         21   -1    0    0  502  501  0.00000000000E+00  0.00000000000E+00  0.18927714276E+03  0.18927714276E+03  0.00000000000E+00 0. -1.
         21   -1    0    0  501  502 -0.00000000000E+00 -0.00000000000E+00 -0.27406202947E+03  0.27406202947E+03  0.00000000000E+00 0. -1.
      99926    2    1    2    0    0  0.00000000000E+00  0.00000000000E+00 -0.84784886710E+02  0.46333917223E+03  0.45551587404E+03 0.  0.
      99925    2    3    3    0    0  0.31471038198E+02 -0.93292775864E+02 -0.11105222920E+03  0.30199652549E+03  0.26301204445E+03 0.  0.
         25    1    4    4    0    0  0.49434690348E+02 -0.23941057572E+02 -0.57323948401E+02  0.14815703158E+03  0.12509000000E+03 0.  0.
         25    1    4    4    0    0 -0.17963652150E+02 -0.69351718292E+02 -0.53728280800E+02  0.15383949391E+03  0.12509000000E+03 0.  0.
         25    1    3    3    0    0 -0.31471038198E+02  0.93292775864E+02  0.26267342492E+02  0.16134264673E+03  0.12509000000E+03 0.  0.
<mgrwt>
<rscale>  2 0.45551587E+03</rscale>
<asrwt>0</asrwt>
<pdfrwt beam="1">  1       21 0.27834874E-01 0.45551587E+03</pdfrwt>
<pdfrwt beam="2">  1       21 0.40303240E-01 0.45551587E+03</pdfrwt>
<totfact> 0.67655745E+04</totfact>
</mgrwt>
</event>
<event>
 7    0  0.4831799E-002  0.4598193E+03  0.7546771E-02  0.1024834E+00
         21   -1    0    0  502  501  0.00000000000E+00  0.00000000000E+00  0.57850140912E+02  0.57850140912E+02  0.00000000000E+00 0.  1.
         21   -1    0    0  501  502 -0.00000000000E+00 -0.00000000000E+00 -0.91371327581E+03  0.91371327581E+03  0.00000000000E+00 0.  1.
      99926    2    1    2    0    0  0.00000000000E+00  0.00000000000E+00 -0.85586313490E+03  0.97156341672E+03  0.45981927650E+03 0.  0.
      99925    2    3    3    0    0 -0.16155255805E+02  0.36140990127E+02 -0.30216094763E+03  0.40252845844E+03  0.26298433057E+03 0.  0.
         25    1    4    4    0    0 -0.41537404985E+02 -0.45823600348E+01 -0.14485705841E+03  0.19590158117E+03  0.12509000000E+03 0.  0.
         25    1    3    3    0    0  0.16155255805E+02 -0.36140990127E+02 -0.55370218727E+03  0.56903495828E+03  0.12509000000E+03 0.  0.
         25    1    4    4    0    0  0.25382149180E+02  0.40723350161E+02 -0.15730388922E+03  0.20662687727E+03  0.12509000000E+03 0.  0.
<mgrwt>
<rscale>  2 0.45981928E+03</rscale>
<asrwt>0</asrwt>
<pdfrwt beam="1">  1       21 0.85073746E-02 0.45981928E+03</pdfrwt>
<pdfrwt beam="2">  1       21 0.13436958E+00 0.45981928E+03</pdfrwt>
<totfact> 0.38797260E+04</totfact>
</mgrwt>
</event>
<event>
 7    0  0.4831799E-002  0.4490333E+03  0.7546771E-02  0.1028011E+00
         21   -1    0    0  502  501  0.00000000000E+00  0.00000000000E+00  0.67607756675E+02  0.67607756675E+02  0.00000000000E+00 0.  1.
         21   -1    0    0  501  502 -0.00000000000E+00 -0.00000000000E+00 -0.74559082018E+03  0.74559082018E+03  0.00000000000E+00 0.  1.
      99926    2    1    2    0    0  0.00000000000E+00  0.35527136788E-14 -0.67798306350E+03  0.81319857686E+03  0.44903328496E+03 0.  0.
      99925    2    3    3    0    0 -0.10316245567E+03 -0.17248433605E+02 -0.38471604368E+03  0.47764969258E+03  0.26306423899E+03 0.  0.
         25    1    3    3    0    0  0.10316245567E+03  0.17248433605E+02 -0.29326701982E+03  0.33554888427E+03  0.12509000000E+03 0.  0.
         25    1    4    4    0    0 -0.28399656683E+02 -0.35754431405E+02 -0.21794554483E+03  0.25540690765E+03  0.12509000000E+03 0.  0.
         25    1    4    4    0    0 -0.74762798985E+02  0.18505997800E+02 -0.16677049885E+03  0.22224278493E+03  0.12509000000E+03 0.  0.
<mgrwt>
<rscale>  2 0.44903328E+03</rscale>
<asrwt>0</asrwt>
<pdfrwt beam="1">  1       21 0.99423181E-02 0.44903328E+03</pdfrwt>
<pdfrwt beam="2">  1       21 0.10964570E+00 0.44903328E+03</pdfrwt>
<totfact> 0.49405978E+04</totfact>
</mgrwt>
</event>
<event>
 7    0  0.4831799E-002  0.4691240E+03  0.7546771E-02  0.1022168E+00
         21   -1    0    0  502  501  0.00000000000E+00  0.00000000000E+00  0.13085445716E+04  0.13085445716E+04  0.00000000000E+00 0. -1.
         21   -1    0    0  501  502 -0.00000000000E+00 -0.00000000000E+00 -0.42046204867E+02  0.42046204867E+02  0.00000000000E+00 0. -1.
      99926    2    1    2    0    0 -0.14210854715E-13 -0.71054273576E-14  0.12664983667E+04  0.13505907765E+04  0.46912400551E+03 0.  0.
      99925    2    3    3    0    0 -0.10435785430E+03 -0.32355091248E+02  0.60675586153E+03  0.67026357948E+03  0.26298892904E+03 0.  0.
         25    1    3    3    0    0  0.10435785430E+03  0.32355091248E+02  0.65974250522E+03  0.68032719700E+03  0.12509000000E+03 0.  0.
         25    1    4    4    0    0 -0.89400593883E+01 -0.98629815761E+01  0.26138338212E+03  0.29007927127E+03  0.12509000000E+03 0.  0.
         25    1    4    4    0    0 -0.95417794914E+02 -0.22492109672E+02  0.34537247940E+03  0.38018430822E+03  0.12509000000E+03 0.  0.
<mgrwt>
<rscale>  2 0.46912401E+03</rscale>
<asrwt>0</asrwt>
<pdfrwt beam="1">  1       21 0.19243300E+00 0.46912401E+03</pdfrwt>
<pdfrwt beam="2">  1       21 0.61832663E-02 0.46912401E+03</pdfrwt>
<totfact> 0.24837784E+04</totfact>
</mgrwt>
</event>
<event>
 7    0  0.4831799E-002  0.4531735E+03  0.7546771E-02  0.1026780E+00
         21   -1    0    0  502  501  0.00000000000E+00  0.00000000000E+00  0.24369238936E+04  0.24369238936E+04  0.00000000000E+00 0.  1.
         21   -1    0    0  501  502 -0.00000000000E+00 -0.00000000000E+00 -0.21068182351E+02  0.21068182351E+02  0.00000000000E+00 0.  1.
      99926    2    1    2    0    0  0.00000000000E+00  0.14210854715E-13  0.24158557112E+04  0.24579920759E+04  0.45317350746E+03 0.  0.
      99925    2    3    3    0    0 -0.65567835490E+02  0.90193869733E+02  0.15198800549E+04  0.15464801671E+04  0.26292860367E+03 0.  0.
         25    1    3    3    0    0  0.65567835490E+02 -0.90193869733E+02  0.89597565632E+03  0.91151190886E+03  0.12509000000E+03 0.  0.
         25    1    4    4    0    0 -0.71642266714E+02  0.62619262225E+02  0.80857574619E+03  0.82370870568E+03  0.12509000000E+03 0.  0.
         25    1    4    4    0    0  0.60744312241E+01  0.27574607508E+02  0.71130430872E+03  0.72277146139E+03  0.12509000000E+03 0.  0.
<mgrwt>
<rscale>  2 0.45317351E+03</rscale>
<asrwt>0</asrwt>
<pdfrwt beam="1">  1       21 0.35837097E+00 0.45317351E+03</pdfrwt>
<pdfrwt beam="2">  1       21 0.30982638E-02 0.45317351E+03</pdfrwt>
<totfact> 0.76797500E+03</totfact>
</mgrwt>
</event>
<event>
 7    0  0.4831799E-002  0.4518348E+03  0.7546771E-02  0.1027176E+00
         21   -1    0    0  502  501  0.00000000000E+00  0.00000000000E+00  0.11707981172E+03  0.11707981172E+03  0.00000000000E+00 0.  1.
         21   -1    0    0  501  502 -0.00000000000E+00 -0.00000000000E+00 -0.43593068678E+03  0.43593068678E+03  0.00000000000E+00 0.  1.
      99926    2    1    2    0    0  0.00000000000E+00  0.00000000000E+00 -0.31885087506E+03  0.55301049849E+03  0.45183484916E+03 0.  0.
      99925    2    3    3    0    0 -0.67752568086E+02  0.14626045781E+02 -0.30587336197E+03  0.40941295101E+03  0.26316557373E+03 0.  0.
         25    1    4    4    0    0 -0.38405666551E+02  0.29835993528E+02 -0.20645285241E+03  0.24624270568E+03  0.12509000000E+03 0.  0.
         25    1    3    3    0    0  0.67752568086E+02 -0.14626045781E+02 -0.12977513092E+02  0.14359754748E+03  0.12509000000E+03 0.  0.
         25    1    4    4    0    0 -0.29346901535E+02 -0.15209947748E+02 -0.99420509558E+02  0.16317024533E+03  0.12509000000E+03 0.  0.
<mgrwt>
<rscale>  2 0.45183485E+03</rscale>
<asrwt>0</asrwt>
<pdfrwt beam="1">  1       21 0.17217620E-01 0.45183485E+03</pdfrwt>
<pdfrwt beam="2">  1       21 0.64107453E-01 0.45183485E+03</pdfrwt>
<totfact> 0.63236664E+04</totfact>
</mgrwt>
</event>
<event>
 7    0  0.4831799E-002  0.4468547E+03  0.7546771E-02  0.1028664E+00
         21   -1    0    0  502  501  0.00000000000E+00  0.00000000000E+00  0.96862711874E+02  0.96862711874E+02  0.00000000000E+00 0. -1.
         21   -1    0    0  501  502 -0.00000000000E+00 -0.00000000000E+00 -0.51536630085E+03  0.51536630085E+03  0.00000000000E+00 0. -1.
      99926    2    1    2    0    0  0.00000000000E+00  0.00000000000E+00 -0.41850358897E+03  0.61222901272E+03  0.44685468559E+03 0.  0.
      99925    2    3    3    0    0  0.63066046421E+02  0.69078908405E+02 -0.33204213711E+03  0.43370082852E+03  0.26285966986E+03 0.  0.
         25    1    4    4    0    0  0.39717863790E+02  0.73761649852E+01 -0.11502695754E+03  0.17467291025E+03  0.12509000000E+03 0.  0.
         25    1    4    4    0    0  0.23348182631E+02  0.61702743420E+02 -0.21701517957E+03  0.25902791827E+03  0.12509000000E+03 0.  0.
         25    1    3    3    0    0 -0.63066046421E+02 -0.69078908405E+02 -0.86461451864E+02  0.17852818421E+03  0.12509000000E+03 0.  0.
<mgrwt>
<rscale>  2 0.44685469E+03</rscale>
<asrwt>0</asrwt>
<pdfrwt beam="1">  1       21 0.14244517E-01 0.44685469E+03</pdfrwt>
<pdfrwt beam="2">  1       21 0.75789160E-01 0.44685469E+03</pdfrwt>
<totfact> 0.61813411E+04</totfact>
</mgrwt>
</event>
<event>
 6    0  0.4831799E-002  0.4618958E+03  0.7546771E-02  0.1024233E+00
         21   -1    0    0  502  501  0.00000000000E+00  0.00000000000E+00  0.55646737787E+03  0.55646737787E+03  0.00000000000E+00 0. -1.
         21   -1    0    0  501  502 -0.00000000000E+00 -0.00000000000E+00 -0.95849146521E+02  0.95849146521E+02  0.00000000000E+00 0. -1.
      99926    2    1    2    0    0 -0.71054273576E-14  0.14210854715E-13  0.46061823135E+03  0.65231652439E+03  0.46189575982E+03 0.  0.
         25    1    3    3    0    0 -0.35617321481E+02  0.11319326838E+03  0.21897674589E+03  0.27871066169E+03  0.12509000000E+03 0.  0.
         25    1    3    3    0    0 -0.92332268482E+01 -0.51571050524E+02  0.14255778767E+03  0.19676142065E+03  0.12509000000E+03 0.  0.
         25    1    3    3    0    0  0.44850548329E+02 -0.61622217855E+02  0.99083697783E+02  0.17684444205E+03  0.12509000000E+03 0.  0.
<mgrwt>
<rscale>  2 0.46189576E+03</rscale>
<asrwt>0</asrwt>
<pdfrwt beam="1">  1       21 0.81833437E-01 0.46189576E+03</pdfrwt>
<pdfrwt beam="2">  1       21 0.14095463E-01 0.46189576E+03</pdfrwt>
<totfact> 0.52645368E+04</totfact>
</mgrwt>
</event>
<event>
 7    0  0.4831799E-002  0.4299406E+03  0.7546771E-02  0.1033879E+00
         21   -1    0    0  502  501  0.00000000000E+00  0.00000000000E+00  0.68158434694E+03  0.68158434694E+03  0.00000000000E+00 0.  1.
         21   -1    0    0  501  502 -0.00000000000E+00 -0.00000000000E+00 -0.67801185029E+02  0.67801185029E+02  0.00000000000E+00 0.  1.
      99926    2    1    2    0    0  0.35527136788E-14 -0.14210854715E-13  0.61378316191E+03  0.74938553197E+03  0.42994058389E+03 0.  0.
      99925    2    3    3    0    0  0.29061319524E+02 -0.64149240083E+02  0.30476897942E+03  0.40865549459E+03  0.26297432791E+03 0.  0.
         25    1    4    4    0    0  0.39069378045E+02 -0.55395226834E+02  0.12590814221E+03  0.18998793602E+03  0.12509000000E+03 0.  0.
         25    1    4    4    0    0 -0.10008058520E+02 -0.87540132489E+01  0.17886083721E+03  0.21866755857E+03  0.12509000000E+03 0.  0.
         25    1    3    3    0    0 -0.29061319524E+02  0.64149240083E+02  0.30901418249E+03  0.34073003738E+03  0.12509000000E+03 0.  0.
<mgrwt>
<rscale>  2 0.42994058E+03</rscale>
<asrwt>0</asrwt>
<pdfrwt beam="1">  1       21 0.10023299E+00 0.42994058E+03</pdfrwt>
<pdfrwt beam="2">  1       21 0.99707629E-02 0.42994058E+03</pdfrwt>
<totfact> 0.61558601E+04</totfact>
</mgrwt>
</event>
<event>
 7    0  0.4831799E-002  0.4566067E+03  0.7546771E-02  0.1025770E+00
         21   -1    0    0  502  501  0.00000000000E+00  0.00000000000E+00  0.79093511291E+02  0.79093511291E+02  0.00000000000E+00 0.  1.
         21   -1    0    0  501  502 -0.00000000000E+00 -0.00000000000E+00 -0.65899753762E+03  0.65899753762E+03  0.00000000000E+00 0.  1.
      99926    2    1    2    0    0  0.00000000000E+00 -0.71054273576E-14 -0.57990402633E+03  0.73809104891E+03  0.45660674188E+03 0.  0.
      99925    2    3    3    0    0 -0.10413788211E+03 -0.47999770533E+02 -0.36663899366E+03  0.46555085238E+03  0.26299195429E+03 0.  0.
         25    1    4    4    0    0 -0.91832028612E+02 -0.38813418600E+02 -0.22337004335E+03  0.27473857994E+03  0.12509000000E+03 0.  0.
         25    1    4    4    0    0 -0.12305853502E+02 -0.91863519329E+01 -0.14326895030E+03  0.19081227244E+03  0.12509000000E+03 0.  0.
         25    1    3    3    0    0  0.10413788211E+03  0.47999770533E+02 -0.21326503267E+03  0.27254019653E+03  0.12509000000E+03 0.  0.
<mgrwt>
<rscale>  2 0.45660674E+03</rscale>
<asrwt>0</asrwt>
<pdfrwt beam="1">  1       21 0.11631399E-01 0.45660674E+03</pdfrwt>
<pdfrwt beam="2">  1       21 0.96911401E-01 0.45660674E+03</pdfrwt>
<totfact> 0.50245467E+04</totfact>
</mgrwt>
</event>
<event>
 7    0  0.4831799E-002  0.4597496E+03  0.7546771E-02  0.1024854E+00
         21   -1    0    0  502  501  0.00000000000E+00  0.00000000000E+00  0.40680258350E+02  0.40680258350E+02  0.00000000000E+00 0.  1.
         21   -1    0    0  501  502 -0.00000000000E+00 -0.00000000000E+00 -0.12989695066E+04  0.12989695066E+04  0.00000000000E+00 0.  1.
      99926    2    1    2    0    0 -0.71054273576E-14  0.17763568394E-14 -0.12582892482E+04  0.13396497649E+04  0.45974956277E+03 0.  0.
      99925    2    3    3    0    0 -0.54540088367E+02 -0.12609335663E+02 -0.10897617651E+04  0.11224341180E+04  0.26295252056E+03 0.  0.
         25    1    4    4    0    0 -0.27897906174E+02 -0.42777901089E+02 -0.62598073715E+03  0.64039646577E+03  0.12509000000E+03 0.  0.
         25    1    3    3    0    0  0.54540088367E+02  0.12609335663E+02 -0.16852748311E+03  0.21721564688E+03  0.12509000000E+03 0.  0.
         25    1    4    4    0    0 -0.26642182193E+02  0.30168565426E+02 -0.46378102796E+03  0.48203765227E+03  0.12509000000E+03 0.  0.
<mgrwt>
<rscale>  2 0.45974956E+03</rscale>
<asrwt>0</asrwt>
<pdfrwt beam="1">  1       21 0.59823906E-02 0.45974956E+03</pdfrwt>
<pdfrwt beam="2">  1       21 0.19102494E+00 0.45974956E+03</pdfrwt>
<totfact> 0.26974670E+04</totfact>
</mgrwt>
</event>
<event>
 7    0  0.4831799E-002  0.4556467E+03  0.7546771E-02  0.1026051E+00
         21   -1    0    0  502  501  0.00000000000E+00  0.00000000000E+00  0.16899540736E+02  0.16899540736E+02  0.00000000000E+00 0. -1.
         21   -1    0    0  501  502 -0.00000000000E+00 -0.00000000000E+00 -0.30712958977E+04  0.30712958977E+04  0.00000000000E+00 0. -1.
      99926    2    1    2    0    0  0.00000000000E+00  0.71054273576E-14 -0.30543963570E+04  0.30881954385E+04  0.45564674974E+03 0.  0.
      99925    2    3    3    0    0 -0.30924552091E+02 -0.60082488436E+02 -0.25411107763E+04  0.25555831697E+04  0.26304966594E+03 0.  0.
         25    1    3    3    0    0  0.30924552091E+02  0.60082488436E+02 -0.51328558074E+03  0.53261226876E+03  0.12509000000E+03 0.  0.
         25    1    4    4    0    0 -0.67544782942E+01 -0.46448120095E+02 -0.95424614924E+03  0.96355397995E+03  0.12509000000E+03 0.  0.
         25    1    4    4    0    0 -0.24170073797E+02 -0.13634368340E+02 -0.15868646270E+04  0.15920291898E+04  0.12509000000E+03 0.  0.
<mgrwt>
<rscale>  2 0.45564675E+03</rscale>
<asrwt>0</asrwt>
<pdfrwt beam="1">  1       21 0.24852265E-02 0.45564675E+03</pdfrwt>
<pdfrwt beam="2">  1       21 0.45166118E+00 0.45564675E+03</pdfrwt>
<totfact> 0.27718012E+03</totfact>
</mgrwt>
</event>
<event>
 7    0  0.4831799E-002  0.4441419E+03  0.7546771E-02  0.1029484E+00
         21   -1    0    0  502  501  0.00000000000E+00  0.00000000000E+00  0.15068968562E+04  0.15068968562E+04  0.00000000000E+00 0.  1.
         21   -1    0    0  501  502 -0.00000000000E+00 -0.00000000000E+00 -0.32726530908E+02  0.32726530908E+02  0.00000000000E+00 0.  1.
      99926    2    1    2    0    0  0.00000000000E+00  0.00000000000E+00  0.14741703253E+04  0.15396233871E+04  0.44414189867E+03 0.  0.
      99925    2    3    3    0    0 -0.34483543595E+02  0.62256163899E+02  0.11945527614E+04  0.12251421717E+04  0.26258731180E+03 0.  0.
         25    1    4    4    0    0 -0.38575528431E+02  0.25652380481E+02  0.75351043027E+03  0.76522649761E+03  0.12509000000E+03 0.  0.
         25    1    3    3    0    0  0.34483543595E+02 -0.62256163899E+02  0.27961756385E+03  0.31448121539E+03  0.12509000000E+03 0.  0.
         25    1    4    4    0    0  0.40919848365E+01  0.36603783417E+02  0.44104233116E+03  0.45991567409E+03  0.12509000000E+03 0.  0.
<mgrwt>
<rscale>  2 0.44414190E+03</rscale>
<asrwt>0</asrwt>
<pdfrwt beam="1">  1       21 0.22160243E+00 0.44414190E+03</pdfrwt>
<pdfrwt beam="2">  1       21 0.48127262E-02 0.44414190E+03</pdfrwt>
<totfact> 0.24855495E+04</totfact>
</mgrwt>
</event>
<event>
 7    0  0.4831799E-002  0.4607408E+03  0.7546771E-02  0.1024567E+00
         21   -1    0    0  502  501  0.00000000000E+00  0.00000000000E+00  0.53833984021E+03  0.53833984021E+03  0.00000000000E+00 0.  1.
         21   -1    0    0  501  502 -0.00000000000E+00 -0.00000000000E+00 -0.98581827783E+02  0.98581827783E+02  0.00000000000E+00 0.  1.
      99926    2    1    2    0    0  0.00000000000E+00  0.00000000000E+00  0.43975801243E+03  0.63692166800E+03  0.46074081832E+03 0.  0.
      99925    2    3    3    0    0  0.46174023063E+02 -0.33080745215E+02  0.13167784666E+03  0.29959797664E+03  0.26304660461E+03 0.  0.
         25    1    4    4    0    0  0.34450169665E+02  0.19640017365E+02  0.81090759105E+02  0.15425875594E+03  0.12509000000E+03 0.  0.
         25    1    4    4    0    0  0.11723853398E+02 -0.52720762579E+02  0.50587087553E+02  0.14533922070E+03  0.12509000000E+03 0.  0.
         25    1    3    3    0    0 -0.46174023063E+02  0.33080745215E+02  0.30808016577E+03  0.33732369136E+03  0.12509000000E+03 0.  0.
<mgrwt>
<rscale>  2 0.46074082E+03</rscale>
<asrwt>0</asrwt>
<pdfrwt beam="1">  1       21 0.79167622E-01 0.46074082E+03</pdfrwt>
<pdfrwt beam="2">  1       21 0.14497328E-01 0.46074082E+03</pdfrwt>
<totfact> 0.53973826E+04</totfact>
</mgrwt>
</event>
<event>
 7    0  0.4831799E-002  0.4497090E+03  0.7546771E-02  0.1027809E+00
         21   -1    0    0  502  501  0.00000000000E+00  0.00000000000E+00  0.46492020504E+03  0.46492020504E+03  0.00000000000E+00 0.  1.
         21   -1    0    0  501  502 -0.00000000000E+00 -0.00000000000E+00 -0.10874884918E+03  0.10874884918E+03  0.00000000000E+00 0.  1.
      99926    2    1    2    0    0  0.17763568394E-14 -0.35527136788E-14  0.35617135586E+03  0.57366905422E+03  0.44970896036E+03 0.  0.
      99925    2    3    3    0    0 -0.13663034371E+02  0.28917712492E+02  0.93032321690E+02  0.28056058964E+03  0.26274763362E+03 0.  0.
         25    1    4    4    0    0 -0.45313905099E+02  0.11635145050E+02  0.35230484060E+02  0.13812104004E+03  0.12509000000E+03 0.  0.
         25    1    3    3    0    0  0.13663034371E+02 -0.28917712492E+02  0.26313903417E+03  0.29310846458E+03  0.12509000000E+03 0.  0.
         25    1    4    4    0    0  0.31650870728E+02  0.17282567442E+02  0.57801837630E+02  0.14243954959E+03  0.12509000000E+03 0.  0.
<mgrwt>
<rscale>  2 0.44970896E+03</rscale>
<asrwt>0</asrwt>
<pdfrwt beam="1">  1       21 0.68370617E-01 0.44970896E+03</pdfrwt>
<pdfrwt beam="2">  1       21 0.15992478E-01 0.44970896E+03</pdfrwt>
<totfact> 0.62920304E+04</totfact>
</mgrwt>
</event>
<event>
 7    0  0.4831799E-002  0.4512358E+03  0.7546771E-02  0.1027354E+00
         21   -1    0    0  502  501  0.00000000000E+00  0.00000000000E+00  0.31095628022E+03  0.31095628022E+03  0.00000000000E+00 0.  1.
         21   -1    0    0  501  502 -0.00000000000E+00 -0.00000000000E+00 -0.16369966906E+03  0.16369966906E+03  0.00000000000E+00 0.  1.
      99926    2    1    2    0    0  0.00000000000E+00 -0.71054273576E-14  0.14725661117E+03  0.47465594928E+03  0.45123581491E+03 0.  0.
      99925    2    3    3    0    0 -0.89376338231E+02 -0.48895282014E+02  0.50560785274E+02  0.28656961462E+03  0.26303397609E+03 0.  0.
         25    1    3    3    0    0  0.89376338231E+02  0.48895282014E+02  0.96695825893E+02  0.18808633465E+03  0.12509000000E+03 0.  0.
         25    1    4    4    0    0 -0.29191447377E+02  0.71201412684E+01  0.46593649316E+02  0.13682585015E+03  0.12509000000E+03 0.  0.
         25    1    4    4    0    0 -0.60184890854E+02 -0.56015423282E+02  0.39671359577E+01  0.14974376448E+03  0.12509000000E+03 0.  0.
<mgrwt>
<rscale>  2 0.45123581E+03</rscale>
<asrwt>0</asrwt>
<pdfrwt beam="1">  1       21 0.45728865E-01 0.45123581E+03</pdfrwt>
<pdfrwt beam="2">  1       21 0.24073481E-01 0.45123581E+03</pdfrwt>
<totfact> 0.69133567E+04</totfact>
</mgrwt>
</event>
<event>
 7    0  0.4831799E-002  0.4569877E+03  0.7546771E-02  0.1025659E+00
         21   -1    0    0  502  501  0.00000000000E+00  0.00000000000E+00  0.77539747392E+03  0.77539747392E+03  0.00000000000E+00 0. -1.
         21   -1    0    0  501  502 -0.00000000000E+00 -0.00000000000E+00 -0.67332475458E+02  0.67332475458E+02  0.00000000000E+00 0. -1.
      99926    2    1    2    0    0  0.00000000000E+00  0.00000000000E+00  0.70806499846E+03  0.84272994938E+03  0.45698766453E+03 0.  0.
      99925    2    3    3    0    0 -0.48897960752E+02  0.10410641299E+03  0.44377483227E+03  0.52852308148E+03  0.26300454388E+03 0.  0.
         25    1    4    4    0    0 -0.54167118152E+02  0.57064278655E+02  0.18095688544E+03  0.23363071518E+03  0.12509000000E+03 0.  0.
         25    1    3    3    0    0  0.48897960752E+02 -0.10410641299E+03  0.26429016619E+03  0.31420686790E+03  0.12509000000E+03 0.  0.
         25    1    4    4    0    0  0.52691573993E+01  0.47042134337E+02  0.26281794683E+03  0.29489236630E+03  0.12509000000E+03 0.  0.
<mgrwt>
<rscale>  2 0.45698766E+03</rscale>
<asrwt>0</asrwt>
<pdfrwt beam="1">  1       21 0.11402904E+00 0.45698766E+03</pdfrwt>
<pdfrwt beam="2">  1       21 0.99018350E-02 0.45698766E+03</pdfrwt>
<totfact> 0.45059603E+04</totfact>
</mgrwt>
</event>
<event>
 7    0  0.4831799E-002  0.4617764E+03  0.7546771E-02  0.1024267E+00
         21   -1    0    0  502  501  0.00000000000E+00  0.00000000000E+00  0.11520112318E+03  0.11520112318E+03  0.00000000000E+00 0.  1.
         21   -1    0    0  501  502 -0.00000000000E+00 -0.00000000000E+00 -0.46275034000E+03  0.46275034000E+03  0.00000000000E+00 0.  1.
      99926    2    1    2    0    0  0.00000000000E+00  0.00000000000E+00 -0.34754921682E+03  0.57795146319E+03  0.46177639144E+03 0.  0.
      99925    2    3    3    0    0  0.10627500843E+03  0.49459877026E+02 -0.24402664895E+03  0.37768891798E+03  0.26336145602E+03 0.  0.
         25    1    4    4    0    0  0.20301838931E+02  0.47313488549E+02 -0.97870479367E+02  0.16696367777E+03  0.12509000000E+03 0.  0.
         25    1    4    4    0    0  0.85973169500E+02  0.21463884772E+01 -0.14615616958E+03  0.21072524021E+03  0.12509000000E+03 0.  0.
         25    1    3    3    0    0 -0.10627500843E+03 -0.49459877026E+02 -0.10352256787E+03  0.20026254520E+03  0.12509000000E+03 0.  0.
<mgrwt>
<rscale>  2 0.46177639E+03</rscale>
<asrwt>0</asrwt>
<pdfrwt beam="1">  1       21 0.16941342E-01 0.46177639E+03</pdfrwt>
<pdfrwt beam="2">  1       21 0.68051521E-01 0.46177639E+03</pdfrwt>
<totfact> 0.56943650E+04</totfact>
</mgrwt>
</event>
<event>
 7    0  0.4831799E-002  0.4555286E+03  0.7546771E-02  0.1026086E+00
         21   -1    0    0  502  501  0.00000000000E+00  0.00000000000E+00  0.35467335865E+03  0.35467335865E+03  0.00000000000E+00 0.  1.
         21   -1    0    0  501  502 -0.00000000000E+00 -0.00000000000E+00 -0.14626576490E+03  0.14626576490E+03  0.00000000000E+00 0.  1.
      99926    2    1    2    0    0  0.00000000000E+00  0.00000000000E+00  0.20840759375E+03  0.50093912355E+03  0.45552857251E+03 0.  0.
      99925    2    3    3    0    0 -0.34425186140E+02 -0.65814042272E+02  0.22576686509E+03  0.35442825705E+03  0.26292989640E+03 0.  0.
         25    1    4    4    0    0 -0.65917194748E+01  0.71603453479E+01  0.95794821692E+02  0.15785714198E+03  0.12509000000E+03 0.  0.
         25    1    3    3    0    0  0.34425186140E+02  0.65814042272E+02 -0.17359271340E+02  0.14651086650E+03  0.12509000000E+03 0.  0.
         25    1    4    4    0    0 -0.27833466666E+02 -0.72974387620E+02  0.12997204339E+03  0.19657111507E+03  0.12509000000E+03 0.  0.
<mgrwt>
<rscale>  2 0.45552857E+03</rscale>
<asrwt>0</asrwt>
<pdfrwt beam="1">  1       21 0.52157846E-01 0.45552857E+03</pdfrwt>
<pdfrwt beam="2">  1       21 0.21509671E-01 0.45552857E+03</pdfrwt>
<totfact> 0.64931867E+04</totfact>
</mgrwt>
</event>
<event>
 7    0  0.4831799E-002  0.4499998E+03  0.7546771E-02  0.1027722E+00
         21   -1    0    0  502  501  0.00000000000E+00  0.00000000000E+00  0.15969466941E+03  0.15969466941E+03  0.00000000000E+00 0. -1.
         21   -1    0    0  501  502 -0.00000000000E+00 -0.00000000000E+00 -0.31701091331E+03  0.31701091331E+03  0.00000000000E+00 0. -1.
      99926    2    1    2    0    0  0.00000000000E+00 -0.71054273576E-14 -0.15731624390E+03  0.47670558272E+03  0.44999979112E+03 0.  0.
      99925    2    3    3    0    0 -0.28216277824E+02 -0.55582931259E+02 -0.19346563680E+03  0.33234524437E+03  0.26294255695E+03 0.  0.
         25    1    4    4    0    0 -0.25713789668E+01 -0.64543482527E+02 -0.84162828626E+02  0.16402244648E+03  0.12509000000E+03 0.  0.
         25    1    3    3    0    0  0.28216277824E+02  0.55582931259E+02  0.36149392903E+02  0.14436033835E+03  0.12509000000E+03 0.  0.
         25    1    4    4    0    0 -0.25644898857E+02  0.89605512671E+01 -0.10930280817E+03  0.16832279789E+03  0.12509000000E+03 0.  0.
<mgrwt>
<rscale>  2 0.44999979E+03</rscale>
<asrwt>0</asrwt>
<pdfrwt beam="1">  1       21 0.23484510E-01 0.44999979E+03</pdfrwt>
<pdfrwt beam="2">  1       21 0.46619251E-01 0.44999979E+03</pdfrwt>
<totfact> 0.69664788E+04</totfact>
</mgrwt>
</event>
<event>
 7    0  0.4831799E-002  0.4440108E+03  0.7546771E-02  0.1029523E+00
         21   -1    0    0  502  501  0.00000000000E+00  0.00000000000E+00  0.15152728352E+04  0.15152728352E+04  0.00000000000E+00 0.  1.
         21   -1    0    0  501  502 -0.00000000000E+00 -0.00000000000E+00 -0.32526425246E+02  0.32526425246E+02  0.00000000000E+00 0.  1.
      99926    2    1    2    0    0  0.00000000000E+00  0.71054273576E-14  0.14827464100E+04  0.15477992605E+04  0.44401084943E+03 0.  0.
      99925    2    3    3    0    0  0.65881047233E+02  0.59942046674E+02  0.11196827544E+04  0.11535961562E+04  0.26298528412E+03 0.  0.
         25    1    4    4    0    0  0.10095822374E+02  0.39738575407E+02  0.68024571941E+03  0.69286566294E+03  0.12509000000E+03 0.  0.
         25    1    4    4    0    0  0.55785224859E+02  0.20203471267E+02  0.43943703504E+03  0.46073049327E+03  0.12509000000E+03 0.  0.
         25    1    3    3    0    0 -0.65881047233E+02 -0.59942046674E+02  0.36306365554E+03  0.39420310427E+03  0.12509000000E+03 0.  0.
<mgrwt>
<rscale>  2 0.44401085E+03</rscale>
<asrwt>0</asrwt>
<pdfrwt beam="1">  1       21 0.22283419E+00 0.44401085E+03</pdfrwt>
<pdfrwt beam="2">  1       21 0.47832989E-02 0.44401085E+03</pdfrwt>
<totfact> 0.24671014E+04</totfact>
</mgrwt>
</event>
<event>
 7    0  0.4831799E-002  0.4550156E+03  0.7546771E-02  0.1026237E+00
         21   -1    0    0  502  501  0.00000000000E+00  0.00000000000E+00  0.36710562526E+03  0.36710562526E+03  0.00000000000E+00 0. -1.
         21   -1    0    0  501  502 -0.00000000000E+00 -0.00000000000E+00 -0.14099430768E+03  0.14099430768E+03  0.00000000000E+00 0. -1.
      99926    2    1    2    0    0  0.00000000000E+00 -0.17763568394E-14  0.22611131758E+03  0.50809993294E+03  0.45501561942E+03 0.  0.
      99925    2    3    3    0    0 -0.99313054207E+02  0.10957344214E+02  0.20167414099E+03  0.34614984857E+03  0.26299070780E+03 0.  0.
         25    1    4    4    0    0 -0.61130660969E+02 -0.20095574654E+02  0.66794536449E+02  0.15572349865E+03  0.12509000000E+03 0.  0.
         25    1    4    4    0    0 -0.38182393238E+02  0.31052918868E+02  0.13487960454E+03  0.19042634992E+03  0.12509000000E+03 0.  0.
         25    1    3    3    0    0  0.99313054207E+02 -0.10957344214E+02  0.24437176590E+02  0.16195008437E+03  0.12509000000E+03 0.  0.
<mgrwt>
<rscale>  2 0.45501562E+03</rscale>
<asrwt>0</asrwt>
<pdfrwt beam="1">  1       21 0.53986121E-01 0.45501562E+03</pdfrwt>
<pdfrwt beam="2">  1       21 0.20734457E-01 0.45501562E+03</pdfrwt>
<totfact> 0.64697260E+04</totfact>
</mgrwt>
</event>
<event>
 7    0  0.4831799E-002  0.4537143E+03  0.7546771E-02  0.1026620E+00
         21   -1    0    0  502  501  0.00000000000E+00  0.00000000000E+00  0.14743553701E+03  0.14743553701E+03  0.00000000000E+00 0. -1.
         21   -1    0    0  501  502 -0.00000000000E+00 -0.00000000000E+00 -0.34906221671E+03  0.34906221671E+03  0.00000000000E+00 0. -1.
      99926    2    1    2    0    0  0.00000000000E+00  0.11102230246E-14 -0.20162667970E+03  0.49649775372E+03  0.45371433907E+03 0.  0.
      99925    2    3    3    0    0 -0.10624271118E+03  0.16649686186E+01 -0.88712018863E+02  0.29728049911E+03  0.26308855365E+03 0.  0.
         25    1    4    4    0    0 -0.17083626082E+02 -0.17950615422E+02 -0.54542411432E+02  0.13869555731E+03  0.12509000000E+03 0.  0.
         25    1    3    3    0    0  0.10624271118E+03 -0.16649686186E+01 -0.11291466084E+03  0.19921725461E+03  0.12509000000E+03 0.  0.
         25    1    4    4    0    0 -0.89159085101E+02  0.19615584040E+02 -0.34169607431E+02  0.15858494180E+03  0.12509000000E+03 0.  0.
<mgrwt>
<rscale>  2 0.45371434E+03</rscale>
<asrwt>0</asrwt>
<pdfrwt beam="1">  1       21 0.21681697E-01 0.45371434E+03</pdfrwt>
<pdfrwt beam="2">  1       21 0.51332678E-01 0.45371434E+03</pdfrwt>
<totfact> 0.66190374E+04</totfact>
</mgrwt>
</event>
<event>
 7    0  0.4831799E-002  0.4340635E+03  0.7546771E-02  0.1032584E+00
         21   -1    0    0  502  501  0.00000000000E+00  0.00000000000E+00  0.47428586918E+02  0.47428586918E+02  0.00000000000E+00 0.  1.
         21   -1    0    0  501  502 -0.00000000000E+00 -0.00000000000E+00 -0.99313076548E+03  0.99313076548E+03  0.00000000000E+00 0.  1.
      99926    2    1    2    0    0  0.00000000000E+00  0.00000000000E+00 -0.94570217856E+03  0.10405593524E+04  0.43406353835E+03 0.  0.
      99925    2    3    3    0    0  0.73804143272E+02  0.17827094086E+02 -0.48087387150E+03  0.55324249449E+03  0.26281689553E+03 0.  0.
         25    1    3    3    0    0 -0.73804143272E+02 -0.17827094086E+02 -0.46482830707E+03  0.48731685790E+03  0.12509000000E+03 0.  0.
         25    1    4    4    0    0  0.22332491335E+02  0.33941867193E+01 -0.15732490860E+03  0.20225947602E+03  0.12509000000E+03 0.  0.
         25    1    4    4    0    0  0.51471651938E+02  0.14432907367E+02 -0.32354896289E+03  0.35098301848E+03  0.12509000000E+03 0.  0.
<mgrwt>
<rscale>  2 0.43406354E+03</rscale>
<asrwt>0</asrwt>
<pdfrwt beam="1">  1       21 0.69747928E-02 0.43406354E+03</pdfrwt>
<pdfrwt beam="2">  1       21 0.14604863E+00 0.43406354E+03</pdfrwt>
<totfact> 0.44459245E+04</totfact>
</mgrwt>
</event>
<event>
 7    0  0.4831799E-002  0.4753794E+03  0.7546771E-02  0.1020413E+00
         21   -1    0    0  502  501  0.00000000000E+00  0.00000000000E+00  0.12676114432E+04  0.12676114432E+04  0.00000000000E+00 0. -1.
         21   -1    0    0  501  502 -0.00000000000E+00 -0.00000000000E+00 -0.44569171935E+02  0.44569171935E+02  0.00000000000E+00 0. -1.
      99926    2    1    2    0    0 -0.17763568394E-14  0.00000000000E+00  0.12230422713E+04  0.13121806151E+04  0.47537939526E+03 0.  0.
      99925    2    3    3    0    0  0.65995172746E+01  0.35332512462E+02  0.11052469054E+04  0.11366380380E+04  0.26283715007E+03 0.  0.
         25    1    3    3    0    0 -0.65995172746E+01 -0.35332512462E+02  0.11779536583E+03  0.17554257710E+03  0.12509000000E+03 0.  0.
         25    1    4    4    0    0 -0.24871251904E+02  0.33513309638E+02  0.45525775622E+03  0.47397136389E+03  0.12509000000E+03 0.  0.
         25    1    4    4    0    0  0.31470769179E+02  0.18192028244E+01  0.64998914922E+03  0.66266667414E+03  0.12509000000E+03 0.  0.
<mgrwt>
<rscale>  2 0.47537940E+03</rscale>
<asrwt>0</asrwt>
<pdfrwt beam="1">  1       21 0.18641342E+00 0.47537940E+03</pdfrwt>
<pdfrwt beam="2">  1       21 0.65542908E-02 0.47537940E+03</pdfrwt>
<totfact> 0.24621644E+04</totfact>
</mgrwt>
</event>
<event>
 7    0  0.4831799E-002  0.4547398E+03  0.7546771E-02  0.1026318E+00
         21   -1    0    0  502  501  0.00000000000E+00  0.00000000000E+00  0.70474541191E+02  0.70474541191E+02  0.00000000000E+00 0. -1.
         21   -1    0    0  501  502 -0.00000000000E+00 -0.00000000000E+00 -0.73355656677E+03  0.73355656677E+03  0.00000000000E+00 0. -1.
      99926    2    1    2    0    0  0.00000000000E+00  0.00000000000E+00 -0.66308202558E+03  0.80403110796E+03  0.45473976066E+03 0.  0.
      99925    2    3    3    0    0 -0.41981365447E+02  0.98583904209E+02 -0.47941446755E+03  0.55732784251E+03  0.26323918994E+03 0.  0.
         25    1    3    3    0    0  0.41981365447E+02 -0.98583904209E+02 -0.18366755803E+03  0.24670326546E+03  0.12509000000E+03 0.  0.
         25    1    4    4    0    0 -0.24213331967E+02  0.54568992934E+02 -0.16410511328E+03  0.21480702209E+03  0.12509000000E+03 0.  0.
         25    1    4    4    0    0 -0.17768033481E+02  0.44014911274E+02 -0.31530935427E+03  0.34252082042E+03  0.12509000000E+03 0.  0.
<mgrwt>
<rscale>  2 0.45473976E+03</rscale>
<asrwt>0</asrwt>
<pdfrwt beam="1">  1       21 0.10363903E-01 0.45473976E+03</pdfrwt>
<pdfrwt beam="2">  1       21 0.10787596E+00 0.45473976E+03</pdfrwt>
<totfact> 0.47667719E+04</totfact>
</mgrwt>
</event>
<event>
 7    0  0.4831799E-002  0.4409109E+03  0.7546771E-02  0.1030468E+00
         21   -1    0    0  502  501  0.00000000000E+00  0.00000000000E+00  0.14927129064E+03  0.14927129064E+03  0.00000000000E+00 0.  1.
         21   -1    0    0  501  502 -0.00000000000E+00 -0.00000000000E+00 -0.32558572778E+03  0.32558572778E+03  0.00000000000E+00 0.  1.
      99926    2    1    2    0    0 -0.71054273576E-14  0.00000000000E+00 -0.17631443714E+03  0.47485701842E+03  0.44091088351E+03 0.  0.
      99925    2    3    3    0    0 -0.54981616360E+02  0.75421932462E+02 -0.75770128758E+02  0.28920112145E+03  0.26302990362E+03 0.  0.
         25    1    4    4    0    0  0.83589381145E+01  0.20776249070E+02 -0.49817725041E+02  0.13649482847E+03  0.12509000000E+03 0.  0.
         25    1    3    3    0    0  0.54981616360E+02 -0.75421932462E+02 -0.10054430838E+03  0.18565589697E+03  0.12509000000E+03 0.  0.
         25    1    4    4    0    0 -0.63340554474E+02  0.54645683392E+02 -0.25952403717E+02  0.15270629297E+03  0.12509000000E+03 0.  0.
<mgrwt>
<rscale>  2 0.44091088E+03</rscale>
<asrwt>0</asrwt>
<pdfrwt beam="1">  1       21 0.21951660E-01 0.44091088E+03</pdfrwt>
<pdfrwt beam="2">  1       21 0.47880254E-01 0.44091088E+03</pdfrwt>
<totfact> 0.75134197E+04</totfact>
</mgrwt>
</event>
<event>
 7    0  0.4831799E-002  0.4570330E+03  0.7546771E-02  0.1025645E+00
         21   -1    0    0  502  501  0.00000000000E+00  0.00000000000E+00  0.11088324958E+03  0.11088324958E+03  0.00000000000E+00 0. -1.
         21   -1    0    0  501  502 -0.00000000000E+00 -0.00000000000E+00 -0.47094383483E+03  0.47094383483E+03  0.00000000000E+00 0. -1.
      99926    2    1    2    0    0 -0.26645352591E-14  0.14210854715E-13 -0.36006058525E+03  0.58182708441E+03  0.45703296500E+03 0.  0.
      99925    2    3    3    0    0  0.65454813451E+01  0.11288315112E+03 -0.25320583995E+03  0.38220019787E+03  0.26301776505E+03 0.  0.
         25    1    4    4    0    0  0.36793779898E+02  0.70660799050E+02 -0.15763392054E+03  0.21643172542E+03  0.12509000000E+03 0.  0.
         25    1    4    4    0    0 -0.30248298552E+02  0.42222352075E+02 -0.95571919408E+02  0.16576847245E+03  0.12509000000E+03 0.  0.
         25    1    3    3    0    0 -0.65454813451E+01 -0.11288315112E+03 -0.10685474530E+03  0.19962688654E+03  0.12509000000E+03 0.  0.
<mgrwt>
<rscale>  2 0.45703296E+03</rscale>
<asrwt>0</asrwt>
<pdfrwt beam="1">  1       21 0.16306361E-01 0.45703296E+03</pdfrwt>
<pdfrwt beam="2">  1       21 0.69256445E-01 0.45703296E+03</pdfrwt>
<totfact> 0.58859368E+04</totfact>
</mgrwt>
</event>
<event>
 7    0  0.4831799E-002  0.4419101E+03  0.7546771E-02  0.1030162E+00
         21   -1    0    0  502  501  0.00000000000E+00  0.00000000000E+00  0.37119324565E+03  0.37119324565E+03  0.00000000000E+00 0. -1.
         21   -1    0    0  501  502 -0.00000000000E+00 -0.00000000000E+00 -0.13152484311E+03  0.13152484311E+03  0.00000000000E+00 0. -1.
      99926    2    1    2    0    0  0.00000000000E+00  0.00000000000E+00  0.23966840255E+03  0.50271808876E+03  0.44191009672E+03 0.  0.
      99925    2    3    3    0    0  0.98037501690E+02  0.10120009514E+02  0.13125961527E+03  0.31006882302E+03  0.26305859058E+03 0.  0.
         25    1    4    4    0    0  0.52790870168E+02  0.11368492276E+02  0.11051338108E+03  0.17543327532E+03  0.12509000000E+03 0.  0.
         25    1    4    4    0    0  0.45246631522E+02 -0.12484827617E+01  0.20746234189E+02  0.13463554771E+03  0.12509000000E+03 0.  0.
         25    1    3    3    0    0 -0.98037501690E+02 -0.10120009514E+02  0.10840878728E+03  0.19264926574E+03  0.12509000000E+03 0.  0.
<mgrwt>
<rscale>  2 0.44191010E+03</rscale>
<asrwt>0</asrwt>
<pdfrwt beam="1">  1       21 0.54587242E-01 0.44191010E+03</pdfrwt>
<pdfrwt beam="2">  1       21 0.19341889E-01 0.44191010E+03</pdfrwt>
<totfact> 0.72304447E+04</totfact>
</mgrwt>
</event>
<event>
 7    0  0.4831799E-002  0.4564299E+03  0.7546771E-02  0.1025822E+00
         21   -1    0    0  502  501  0.00000000000E+00  0.00000000000E+00  0.52427064264E+03  0.52427064264E+03  0.00000000000E+00 0. -1.
         21   -1    0    0  501  502 -0.00000000000E+00 -0.00000000000E+00 -0.99341953514E+02  0.99341953514E+02  0.00000000000E+00 0. -1.
      99926    2    1    2    0    0 -0.35527136788E-14  0.17763568394E-14  0.42492868912E+03  0.62361259615E+03  0.45642992807E+03 0.  0.
      99925    2    3    3    0    0 -0.25633270364E+02 -0.73882405151E+01  0.11598308737E+03  0.28923774125E+03  0.26361855731E+03 0.  0.
         25    1    3    3    0    0  0.25633270364E+02  0.73882405151E+01  0.30894560175E+03  0.33437485490E+03  0.12509000000E+03 0.  0.
         25    1    4    4    0    0 -0.40849475244E+02 -0.33819321458E+02  0.66903685226E+02  0.15144648338E+03  0.12509000000E+03 0.  0.
         25    1    4    4    0    0  0.15216204880E+02  0.26431080942E+02  0.49079402147E+02  0.13779125787E+03  0.12509000000E+03 0.  0.
<mgrwt>
<rscale>  2 0.45642993E+03</rscale>
<asrwt>0</asrwt>
<pdfrwt beam="1">  1       21 0.77098623E-01 0.45642993E+03</pdfrwt>
<pdfrwt beam="2">  1       21 0.14609111E-01 0.45642993E+03</pdfrwt>
<totfact> 0.56606079E+04</totfact>
</mgrwt>
</event>
<event>
 7    0  0.4831799E-002  0.4690933E+03  0.7546771E-02  0.1022176E+00
         21   -1    0    0  502  501  0.00000000000E+00  0.00000000000E+00  0.11206360001E+03  0.11206360001E+03  0.00000000000E+00 0. -1.
         21   -1    0    0  501  502 -0.00000000000E+00 -0.00000000000E+00 -0.49090089047E+03  0.49090089047E+03  0.00000000000E+00 0. -1.
      99926    2    1    2    0    0  0.00000000000E+00  0.00000000000E+00 -0.37883729046E+03  0.60296449048E+03  0.46909325739E+03 0.  0.
      99925    2    3    3    0    0  0.65705295339E+02 -0.91599925983E+02 -0.30755676995E+03  0.42010893825E+03  0.26304490297E+03 0.  0.
         25    1    4    4    0    0  0.19662501483E+01 -0.15731607384E+02 -0.14826871489E+03  0.19463419414E+03  0.12509000000E+03 0.  0.
         25    1    4    4    0    0  0.63739045191E+02 -0.75868318599E+02 -0.15928805506E+03  0.22547474411E+03  0.12509000000E+03 0.  0.
         25    1    3    3    0    0 -0.65705295339E+02  0.91599925983E+02 -0.71280520506E+02  0.18285555222E+03  0.12509000000E+03 0.  0.
<mgrwt>
<rscale>  2 0.46909326E+03</rscale>
<asrwt>0</asrwt>
<pdfrwt beam="1">  1       21 0.16479941E-01 0.46909326E+03</pdfrwt>
<pdfrwt beam="2">  1       21 0.72191307E-01 0.46909326E+03</pdfrwt>
<totfact> 0.52411577E+04</totfact>
</mgrwt>
</event>
<event>
 7    0  0.4831799E-002  0.4539751E+03  0.7546771E-02  0.1026543E+00
         21   -1    0    0  502  501  0.00000000000E+00  0.00000000000E+00  0.30285341404E+04  0.30285341404E+04  0.00000000000E+00 0. -1.
         21   -1    0    0  501  502 -0.00000000000E+00 -0.00000000000E+00 -0.17012635267E+02  0.17012635267E+02  0.00000000000E+00 0. -1.
      99926    2    1    2    0    0  0.00000000000E+00  0.00000000000E+00  0.30115215052E+04  0.30455467757E+04  0.45397509501E+03 0.  0.
      99925    2    3    3    0    0 -0.82648735633E+02 -0.37485659632E+02  0.23394905236E+04  0.23559750706E+04  0.26299550400E+03 0.  0.
         25    1    3    3    0    0  0.82648735633E+02  0.37485659632E+02  0.67203098155E+03  0.68957170508E+03  0.12509000000E+03 0.  0.
         25    1    4    4    0    0 -0.33992980512E+02  0.13481198828E+02  0.13214002561E+04  0.13278115116E+04  0.12509000000E+03 0.  0.
         25    1    4    4    0    0 -0.48655755121E+02 -0.50966858460E+02  0.10180902675E+04  0.10281635590E+04  0.12509000000E+03 0.  0.
<mgrwt>
<rscale>  2 0.45397510E+03</rscale>
<asrwt>0</asrwt>
<pdfrwt beam="1">  1       21 0.44537230E+00 0.45397510E+03</pdfrwt>
<pdfrwt beam="2">  1       21 0.25018602E-02 0.45397510E+03</pdfrwt>
<totfact> 0.30258257E+03</totfact>
</mgrwt>
</event>
<event>
 7    0  0.4831799E-002  0.4547475E+03  0.7546771E-02  0.1026316E+00
         21   -1    0    0  502  501  0.00000000000E+00  0.00000000000E+00  0.18836299550E+04  0.18836299550E+04  0.00000000000E+00 0. -1.
         21   -1    0    0  501  502 -0.00000000000E+00 -0.00000000000E+00 -0.27446377895E+02  0.27446377895E+02  0.00000000000E+00 0. -1.
      99926    2    1    2    0    0 -0.35527136788E-14  0.00000000000E+00  0.18561835771E+04  0.19110763329E+04  0.45474748843E+03 0.  0.
      99925    2    3    3    0    0 -0.29497469830E+02 -0.73845609342E+02  0.83120585302E+03  0.87543637725E+03  0.26298746316E+03 0.  0.
         25    1    4    4    0    0 -0.29751276933E+02 -0.11199617361E+02  0.48880276836E+03  0.50555536231E+03  0.12509000000E+03 0.  0.
         25    1    3    3    0    0  0.29497469830E+02  0.73845609342E+02  0.10249777241E+04  0.10356399556E+04  0.12509000000E+03 0.  0.
         25    1    4    4    0    0  0.25380710240E+00 -0.62645991981E+02  0.34240308466E+03  0.36988101494E+03  0.12509000000E+03 0.  0.
<mgrwt>
<rscale>  2 0.45474749E+03</rscale>
<asrwt>0</asrwt>
<pdfrwt beam="1">  1       21 0.27700432E+00 0.45474749E+03</pdfrwt>
<pdfrwt beam="2">  1       21 0.40362333E-02 0.45474749E+03</pdfrwt>
<totfact> 0.15246224E+04</totfact>
</mgrwt>
</event>
<event>
 7    0  0.4831799E-002  0.4540586E+03  0.7546771E-02  0.1026519E+00
         21   -1    0    0  502  501  0.00000000000E+00  0.00000000000E+00  0.17772138933E+03  0.17772138933E+03  0.00000000000E+00 0.  1.
         21   -1    0    0  501  502 -0.00000000000E+00 -0.00000000000E+00 -0.29001750553E+03  0.29001750553E+03  0.00000000000E+00 0.  1.
      99926    2    1    2    0    0  0.00000000000E+00  0.00000000000E+00 -0.11229611621E+03  0.46773889486E+03  0.45405864825E+03 0.  0.
      99925    2    3    3    0    0  0.84087918031E+02  0.20973884854E+02 -0.14417778520E+03  0.31225696433E+03  0.26307127593E+03 0.  0.
         25    1    4    4    0    0  0.79531496414E+02  0.92397256014E+01 -0.99784434705E+02  0.17892756345E+03  0.12509000000E+03 0.  0.
         25    1    4    4    0    0  0.45564216173E+01  0.11734159253E+02 -0.44393350496E+02  0.13332940088E+03  0.12509000000E+03 0.  0.
         25    1    3    3    0    0 -0.84087918031E+02 -0.20973884854E+02  0.31881668991E+02  0.15548193053E+03  0.12509000000E+03 0.  0.
<mgrwt>
<rscale>  2 0.45405865E+03</rscale>
<asrwt>0</asrwt>
<pdfrwt beam="1">  1       21 0.26135499E-01 0.45405865E+03</pdfrwt>
<pdfrwt beam="2">  1       21 0.42649633E-01 0.45405865E+03</pdfrwt>
<totfact> 0.68111518E+04</totfact>
</mgrwt>
</event>
<event>
 7    0  0.4831799E-002  0.4489399E+03  0.7546771E-02  0.1028039E+00
         21   -1    0    0  502  501  0.00000000000E+00  0.00000000000E+00  0.30592454248E+03  0.30592454248E+03  0.00000000000E+00 0.  1.
         21   -1    0    0  501  502 -0.00000000000E+00 -0.00000000000E+00 -0.16470320329E+03  0.16470320329E+03  0.00000000000E+00 0.  1.
      99926    2    1    2    0    0  0.00000000000E+00 -0.14210854715E-13  0.14122133920E+03  0.47062774577E+03  0.44893987174E+03 0.  0.
      99925    2    3    3    0    0 -0.67602239354E+02  0.78903381093E+02  0.11732798501E+03  0.30626775432E+03  0.26313166848E+03 0.  0.
         25    1    4    4    0    0 -0.90825192690E+01  0.72023175237E+02  0.60520219462E+02  0.15678021237E+03  0.12509000000E+03 0.  0.
         25    1    3    3    0    0  0.67602239354E+02 -0.78903381093E+02  0.23893354184E+02  0.16435999144E+03  0.12509000000E+03 0.  0.
         25    1    4    4    0    0 -0.58519720085E+02  0.68802058564E+01  0.56807765551E+02  0.14948754195E+03  0.12509000000E+03 0.  0.
<mgrwt>
<rscale>  2 0.44893987E+03</rscale>
<asrwt>0</asrwt>
<pdfrwt beam="1">  1       21 0.44988903E-01 0.44893987E+03</pdfrwt>
<pdfrwt beam="2">  1       21 0.24221059E-01 0.44893987E+03</pdfrwt>
<totfact> 0.70729617E+04</totfact>
</mgrwt>
</event>
<event>
 7    0  0.4831799E-002  0.4406132E+03  0.7546771E-02  0.1030559E+00
         21   -1    0    0  502  501  0.00000000000E+00  0.00000000000E+00  0.72993311177E+03  0.72993311177E+03  0.00000000000E+00 0. -1.
         21   -1    0    0  501  502 -0.00000000000E+00 -0.00000000000E+00 -0.66492381490E+02  0.66492381490E+02  0.00000000000E+00 0. -1.
      99926    2    1    2    0    0  0.00000000000E+00  0.00000000000E+00  0.66344073028E+03  0.79642549326E+03  0.44061316789E+03 0.  0.
      99925    2    3    3    0    0 -0.47727144004E+02 -0.86031119254E+02  0.43577069509E+03  0.51864790817E+03  0.26347736182E+03 0.  0.
         25    1    3    3    0    0  0.47727144004E+02  0.86031119254E+02  0.22767003518E+03  0.27777758508E+03  0.12509000000E+03 0.  0.
         25    1    4    4    0    0 -0.20202598283E+02  0.41838691436E+00  0.19825025256E+03  0.23528491402E+03  0.12509000000E+03 0.  0.
         25    1    4    4    0    0 -0.27524545721E+02 -0.86449506169E+02  0.23752044254E+03  0.28336299416E+03  0.12509000000E+03 0.  0.
<mgrwt>
<rscale>  2 0.44061317E+03</rscale>
<asrwt>0</asrwt>
<pdfrwt beam="1">  1       21 0.10734310E+00 0.44061317E+03</pdfrwt>
<pdfrwt beam="2">  1       21 0.97782918E-02 0.44061317E+03</pdfrwt>
<totfact> 0.53755584E+04</totfact>
</mgrwt>
</event>
<event>
 7    0  0.4831799E-002  0.4504741E+03  0.7546771E-02  0.1027581E+00
         21   -1    0    0  502  501  0.00000000000E+00  0.00000000000E+00  0.18740130318E+03  0.18740130318E+03  0.00000000000E+00 0. -1.
         21   -1    0    0  501  502 -0.00000000000E+00 -0.00000000000E+00 -0.27071175436E+03  0.27071175436E+03  0.00000000000E+00 0. -1.
      99926    2    1    2    0    0  0.00000000000E+00  0.00000000000E+00 -0.83310451180E+02  0.45811305755E+03  0.45047413047E+03 0.  0.
      99925    2    3    3    0    0 -0.83524332982E+02 -0.68204247722E+02 -0.37357696695E+02  0.28668582123E+03  0.26299245043E+03 0.  0.
         25    1    4    4    0    0 -0.40774014899E+01 -0.12166590324E+02 -0.13448885174E+02  0.12646355892E+03  0.12509000000E+03 0.  0.
         25    1    4    4    0    0 -0.79446931492E+02 -0.56037657398E+02 -0.23908811521E+02  0.16022226231E+03  0.12509000000E+03 0.  0.
         25    1    3    3    0    0  0.83524332982E+02  0.68204247722E+02 -0.45952754486E+02  0.17142723632E+03  0.12509000000E+03 0.  0.
<mgrwt>
<rscale>  2 0.45047413E+03</rscale>
<asrwt>0</asrwt>
<pdfrwt beam="1">  1       21 0.27559015E-01 0.45047413E+03</pdfrwt>
<pdfrwt beam="2">  1       21 0.39810552E-01 0.45047413E+03</pdfrwt>
<totfact> 0.70838969E+04</totfact>
</mgrwt>
</event>
<event>
 7    0  0.4831799E-002  0.4065827E+03  0.7546771E-02  0.1041524E+00
         21   -1    0    0  502  501  0.00000000000E+00  0.00000000000E+00  0.31205548103E+03  0.31205548103E+03  0.00000000000E+00 0.  1.
         21   -1    0    0  501  502 -0.00000000000E+00 -0.00000000000E+00 -0.13243599244E+03  0.13243599244E+03  0.00000000000E+00 0.  1.
      99926    2    1    2    0    0 -0.88817841970E-15  0.71054273576E-14  0.17961948859E+03  0.44449147347E+03  0.40658272136E+03 0.  0.
      99925    2    3    3    0    0  0.22282443022E+01  0.57761663162E+02  0.11798583085E+03  0.29353588175E+03  0.26249053848E+03 0.  0.
         25    1    4    4    0    0 -0.16468456133E+02  0.33907834936E+02  0.97926265086E+02  0.16327281712E+03  0.12509000000E+03 0.  0.
         25    1    4    4    0    0  0.18696700435E+02  0.23853828226E+02  0.20059565761E+02  0.13026306463E+03  0.12509000000E+03 0.  0.
         25    1    3    3    0    0 -0.22282443022E+01 -0.57761663162E+02  0.61633657747E+02  0.15095559172E+03  0.12509000000E+03 0.  0.
<mgrwt>
<rscale>  2 0.40658272E+03</rscale>
<asrwt>0</asrwt>
<pdfrwt beam="1">  1       21 0.45890512E-01 0.40658272E+03</pdfrwt>
<pdfrwt beam="2">  1       21 0.19475881E-01 0.40658272E+03</pdfrwt>
<totfact> 0.10393361E+05</totfact>
</mgrwt>
</event>
<event>
 7    0  0.4831799E-002  0.4433308E+03  0.7546771E-02  0.1029730E+00
         21   -1    0    0  502  501  0.00000000000E+00  0.00000000000E+00  0.48243151922E+03  0.48243151922E+03  0.00000000000E+00 0.  1.
         21   -1    0    0  501  502 -0.00000000000E+00 -0.00000000000E+00 -0.10184980565E+03  0.10184980565E+03  0.00000000000E+00 0.  1.
      99926    2    1    2    0    0 -0.14210854715E-13  0.00000000000E+00  0.38058171357E+03  0.58428132488E+03  0.44333083120E+03 0.  0.
      99925    2    3    3    0    0 -0.65592564880E+02  0.64750080566E+02  0.29926138825E+03  0.40890897554E+03  0.26297188876E+03 0.  0.
         25    1    3    3    0    0  0.65592564880E+02 -0.64750080566E+02  0.81320325323E+02  0.17537234934E+03  0.12509000000E+03 0.  0.
         25    1    4    4    0    0  0.53736703792E+01  0.24237481518E+02  0.16050161168E+03  0.20499904219E+03  0.12509000000E+03 0.  0.
         25    1    4    4    0    0 -0.70966235259E+02  0.40512599048E+02  0.13875977656E+03  0.20390993335E+03  0.12509000000E+03 0.  0.
<mgrwt>
<rscale>  2 0.44333083E+03</rscale>
<asrwt>0</asrwt>
<pdfrwt beam="1">  1       21 0.70945811E-01 0.44333083E+03</pdfrwt>
<pdfrwt beam="2">  1       21 0.14977913E-01 0.44333083E+03</pdfrwt>
<totfact> 0.65491360E+04</totfact>
</mgrwt>
</event>
<event>
 7    0  0.4831799E-002  0.4505428E+03  0.7546771E-02  0.1027560E+00
         21   -1    0    0  502  501  0.00000000000E+00  0.00000000000E+00  0.18735492542E+03  0.18735492542E+03  0.00000000000E+00 0.  1.
         21   -1    0    0  501  502 -0.00000000000E+00 -0.00000000000E+00 -0.27086130283E+03  0.27086130283E+03  0.00000000000E+00 0.  1.
      99926    2    1    2    0    0  0.00000000000E+00  0.17763568394E-14 -0.83506377409E+02  0.45821622825E+03  0.45054278017E+03 0.  0.
      99925    2    3    3    0    0  0.59349872121E+01 -0.10174408356E+02 -0.16316048743E+03  0.30945121891E+03  0.26267845281E+03 0.  0.
         25    1    4    4    0    0 -0.13664144813E+02  0.20558071787E+02 -0.50267362329E+02  0.13705348950E+03  0.12509000000E+03 0.  0.
         25    1    4    4    0    0  0.19599132025E+02 -0.30732480143E+02 -0.11289312510E+03  0.17239772941E+03  0.12509000000E+03 0.  0.
         25    1    3    3    0    0 -0.59349872121E+01  0.10174408356E+02  0.79654110021E+02  0.14876500933E+03  0.12509000000E+03 0.  0.
<mgrwt>
<rscale>  2 0.45054278E+03</rscale>
<asrwt>0</asrwt>
<pdfrwt beam="1">  1       21 0.27552195E-01 0.45054278E+03</pdfrwt>
<pdfrwt beam="2">  1       21 0.39832545E-01 0.45054278E+03</pdfrwt>
<totfact> 0.70791942E+04</totfact>
</mgrwt>
</event>
<event>
 7    0  0.4831799E-002  0.4511078E+03  0.7546771E-02  0.1027392E+00
         21   -1    0    0  502  501  0.00000000000E+00  0.00000000000E+00  0.17735574723E+03  0.17735574723E+03  0.00000000000E+00 0. -1.
         21   -1    0    0  501  502 -0.00000000000E+00 -0.00000000000E+00 -0.28685042057E+03  0.28685042057E+03  0.00000000000E+00 0. -1.
      99926    2    1    2    0    0 -0.35527136788E-14 -0.17763568394E-14 -0.10949467334E+03  0.46420616780E+03  0.45110783936E+03 0.  0.
      99925    2    3    3    0    0  0.29716260180E+02  0.10245592424E+02 -0.17711814509E+03  0.31857488574E+03  0.26292792210E+03 0.  0.
         25    1    4    4    0    0  0.48382101280E+02  0.28094016310E+02 -0.88884027695E+02  0.16333395225E+03  0.12509000000E+03 0.  0.
         25    1    4    4    0    0 -0.18665841100E+02 -0.17848423886E+02 -0.88234117396E+02  0.15524093349E+03  0.12509000000E+03 0.  0.
         25    1    3    3    0    0 -0.29716260180E+02 -0.10245592424E+02  0.67623471754E+02  0.14563128206E+03  0.12509000000E+03 0.  0.
<mgrwt>
<rscale>  2 0.45110784E+03</rscale>
<asrwt>0</asrwt>
<pdfrwt beam="1">  1       21 0.26081728E-01 0.45110784E+03</pdfrwt>
<pdfrwt beam="2">  1       21 0.42183885E-01 0.45110784E+03</pdfrwt>
<totfact> 0.70005717E+04</totfact>
</mgrwt>
</event>
<event>
 7    0  0.4831799E-002  0.4149184E+03  0.7546771E-02  0.1038733E+00
         21   -1    0    0  502  501  0.00000000000E+00  0.00000000000E+00  0.16149066227E+03  0.16149066227E+03  0.00000000000E+00 0. -1.
         21   -1    0    0  501  502 -0.00000000000E+00 -0.00000000000E+00 -0.26651272160E+03  0.26651272160E+03  0.00000000000E+00 0. -1.
      99926    2    1    2    0    0 -0.71054273576E-14  0.71054273576E-14 -0.10502205933E+03  0.42800338387E+03  0.41491838192E+03 0.  0.
      99925    2    3    3    0    0  0.46656329860E+02 -0.37555510633E+02 -0.33182453355E+02  0.27181226190E+03  0.26304676583E+03 0.  0.
         25    1    4    4    0    0  0.37854725400E+02 -0.47140977168E+02 -0.43603870776E+02  0.14561613101E+03  0.12509000000E+03 0.  0.
         25    1    4    4    0    0  0.88016044599E+01  0.95854665348E+01  0.10421417422E+02  0.12619613089E+03  0.12509000000E+03 0.  0.
         25    1    3    3    0    0 -0.46656329860E+02  0.37555510633E+02 -0.71839605979E+02  0.15619112197E+03  0.12509000000E+03 0.  0.
<mgrwt>
<rscale>  2 0.41491838E+03</rscale>
<asrwt>0</asrwt>
<pdfrwt beam="1">  1       21 0.23748627E-01 0.41491838E+03</pdfrwt>
<pdfrwt beam="2">  1       21 0.39193046E-01 0.41491838E+03</pdfrwt>
<totfact> 0.98462625E+04</totfact>
</mgrwt>
</event>
<event>
 7    0  0.4831799E-002  0.4442483E+03  0.7546771E-02  0.1029451E+00
         21   -1    0    0  502  501  0.00000000000E+00  0.00000000000E+00  0.30523318758E+03  0.30523318758E+03  0.00000000000E+00 0. -1.
         21   -1    0    0  501  502 -0.00000000000E+00 -0.00000000000E+00 -0.16164410353E+03  0.16164410353E+03  0.00000000000E+00 0. -1.
      99926    2    1    2    0    0  0.00000000000E+00 -0.35527136788E-14  0.14358908405E+03  0.46687729111E+03  0.44424833134E+03 0.  0.
      99925    2    3    3    0    0  0.32626715447E+02 -0.18023110194E+02  0.19221930510E+03  0.32758715664E+03  0.26263234546E+03 0.  0.
         25    1    4    4    0    0 -0.64325685112E+01 -0.35166280267E+02  0.70794197150E+02  0.14811269917E+03  0.12509000000E+03 0.  0.
         25    1    3    3    0    0 -0.32626715447E+02  0.18023110194E+02 -0.48630221047E+02  0.13929013447E+03  0.12509000000E+03 0.  0.
         25    1    4    4    0    0  0.39059283958E+02  0.17143170073E+02  0.12142510795E+03  0.17947445747E+03  0.12509000000E+03 0.  0.
<mgrwt>
<rscale>  2 0.44424833E+03</rscale>
<asrwt>0</asrwt>
<pdfrwt beam="1">  1       21 0.44887233E-01 0.44424833E+03</pdfrwt>
<pdfrwt beam="2">  1       21 0.23771192E-01 0.44424833E+03</pdfrwt>
<totfact> 0.73763577E+04</totfact>
</mgrwt>
</event>
<event>
 7    0  0.4831799E-002  0.4472306E+03  0.7546771E-02  0.1028551E+00
         21   -1    0    0  502  501  0.00000000000E+00  0.00000000000E+00  0.11866880552E+04  0.11866880552E+04  0.00000000000E+00 0.  1.
         21   -1    0    0  501  502 -0.00000000000E+00 -0.00000000000E+00 -0.42137274387E+02  0.42137274387E+02  0.00000000000E+00 0.  1.
      99926    2    1    2    0    0  0.00000000000E+00  0.00000000000E+00  0.11445507808E+04  0.12288253296E+04  0.44723059016E+03 0.  0.
      99925    2    3    3    0    0 -0.63679367393E+02  0.84047717782E+01  0.95632133010E+03  0.99387100161E+03  0.26287521645E+03 0.  0.
         25    1    3    3    0    0  0.63679367393E+02 -0.84047717782E+01  0.18822945074E+03  0.23495432800E+03  0.12509000000E+03 0.  0.
         25    1    4    4    0    0  0.41306458595E+01 -0.26568416234E+01  0.37754649410E+03  0.39775995820E+03  0.12509000000E+03 0.  0.
         25    1    4    4    0    0 -0.67810013253E+02  0.11061613402E+02  0.57877483600E+03  0.59611104341E+03  0.12509000000E+03 0.  0.
<mgrwt>
<rscale>  2 0.44723059E+03</rscale>
<asrwt>0</asrwt>
<pdfrwt beam="1">  1       21 0.17451293E+00 0.44723059E+03</pdfrwt>
<pdfrwt beam="2">  1       21 0.61966588E-02 0.44723059E+03</pdfrwt>
<totfact> 0.33218233E+04</totfact>
</mgrwt>
</event>
<event>
 6    0  0.4831799E-002  0.4591462E+03  0.7546771E-02  0.1025029E+00
         21   -1    0    0  502  501  0.00000000000E+00  0.00000000000E+00  0.61478178072E+02  0.61478178072E+02  0.00000000000E+00 0. -1.
         21   -1    0    0  501  502 -0.00000000000E+00 -0.00000000000E+00 -0.85727652697E+03  0.85727652697E+03  0.00000000000E+00 0. -1.
      99926    2    1    2    0    0  0.00000000000E+00  0.00000000000E+00 -0.79579834890E+03  0.91875470505E+03  0.45914615966E+03 0.  0.
         25    1    3    3    0    0  0.86526136261E+02  0.20794757211E+02 -0.17407317009E+03  0.23209517623E+03  0.12509000000E+03 0.  0.
         25    1    3    3    0    0  0.83835927634E+00  0.25273245312E+02 -0.21792912111E+03  0.25254712372E+03  0.12509000000E+03 0.  0.
         25    1    3    3    0    0 -0.87364495537E+02 -0.46068002523E+02 -0.40379605771E+03  0.43411240510E+03  0.12509000000E+03 0.  0.
<mgrwt>
<rscale>  2 0.45914616E+03</rscale>
<asrwt>0</asrwt>
<pdfrwt beam="1">  1       21 0.90409084E-02 0.45914616E+03</pdfrwt>
<pdfrwt beam="2">  1       21 0.12607008E+00 0.45914616E+03</pdfrwt>
<totfact> 0.41083231E+04</totfact>
</mgrwt>
</event>
<event>
 7    0  0.4831799E-002  0.4536800E+03  0.7546771E-02  0.1026630E+00
         21   -1    0    0  502  501  0.00000000000E+00  0.00000000000E+00  0.31178556811E+03  0.31178556811E+03  0.00000000000E+00 0. -1.
         21   -1    0    0  501  502 -0.00000000000E+00 -0.00000000000E+00 -0.16503774158E+03  0.16503774158E+03  0.00000000000E+00 0. -1.
      99926    2    1    2    0    0  0.00000000000E+00  0.00000000000E+00  0.14674782652E+03  0.47682330969E+03  0.45368000185E+03 0.  0.
      99925    2    3    3    0    0 -0.26150297193E+02  0.80669138924E+02  0.15687023916E+02  0.27678383834E+03  0.26300544183E+03 0.  0.
         25    1    4    4    0    0  0.14443634901E+02  0.70707914066E+02  0.59925943053E+01  0.14453943056E+03  0.12509000000E+03 0.  0.
         25    1    3    3    0    0  0.26150297193E+02 -0.80669138924E+02  0.13106080261E+03  0.20003947135E+03  0.12509000000E+03 0.  0.
         25    1    4    4    0    0 -0.40593932094E+02  0.99612248585E+01  0.96944296106E+01  0.13224440778E+03  0.12509000000E+03 0.  0.
<mgrwt>
<rscale>  2 0.45368000E+03</rscale>
<asrwt>0</asrwt>
<pdfrwt beam="1">  1       21 0.45850819E-01 0.45368000E+03</pdfrwt>
<pdfrwt beam="2">  1       21 0.24270256E-01 0.45368000E+03</pdfrwt>
<totfact> 0.67637907E+04</totfact>
</mgrwt>
</event>
<event>
 6    0  0.4831799E-002  0.4572542E+03  0.7546771E-02  0.1025581E+00
         21   -1    0    0  502  501  0.00000000000E+00  0.00000000000E+00  0.99094770258E+02  0.99094770258E+02  0.00000000000E+00 0.  1.
         21   -1    0    0  501  502 -0.00000000000E+00 -0.00000000000E+00 -0.52747838250E+03  0.52747838250E+03  0.00000000000E+00 0.  1.
      99926    2    1    2    0    0  0.00000000000E+00  0.14210854715E-13 -0.42838361224E+03  0.62657315276E+03  0.45725419246E+03 0.  0.
         25    1    3    3    0    0  0.53602306651E+02 -0.71551888002E+02 -0.23208775372E+03  0.27839740208E+03  0.12509000000E+03 0.  0.
         25    1    3    3    0    0 -0.39965006553E+01 -0.16096986213E+02 -0.99213875503E+02  0.16051786871E+03  0.12509000000E+03 0.  0.
         25    1    3    3    0    0 -0.49605805996E+02  0.87648874215E+02 -0.97081983015E+02  0.18765788197E+03  0.12509000000E+03 0.  0.
<mgrwt>
<rscale>  2 0.45725419E+03</rscale>
<asrwt>0</asrwt>
<pdfrwt beam="1">  1       21 0.14572760E-01 0.45725419E+03</pdfrwt>
<pdfrwt beam="2">  1       21 0.77570351E-01 0.45725419E+03</pdfrwt>
<totfact> 0.56067214E+04</totfact>
</mgrwt>
</event>
<event>
 7    0  0.4831799E-002  0.4524445E+03  0.7546771E-02  0.1026996E+00
         21   -1    0    0  502  501  0.00000000000E+00  0.00000000000E+00  0.38826565271E+03  0.38826565271E+03  0.00000000000E+00 0. -1.
         21   -1    0    0  501  502 -0.00000000000E+00 -0.00000000000E+00 -0.13180798606E+03  0.13180798606E+03  0.00000000000E+00 0. -1.
      99926    2    1    2    0    0  0.00000000000E+00 -0.71054273576E-14  0.25645766665E+03  0.52007363877E+03  0.45244453247E+03 0.  0.
      99925    2    3    3    0    0 -0.45803632147E+02  0.60645036145E+02  0.69087473669E+02  0.28231138264E+03  0.26296548180E+03 0.  0.
         25    1    4    4    0    0 -0.36029473004E+02  0.31671970783E+01  0.61731192358E+02  0.14410552478E+03  0.12509000000E+03 0.  0.
         25    1    3    3    0    0  0.45803632147E+02 -0.60645036145E+02  0.18737019298E+03  0.23776225614E+03  0.12509000000E+03 0.  0.
         25    1    4    4    0    0 -0.97741591434E+01  0.57477839067E+02  0.73562813112E+01  0.13820585786E+03  0.12509000000E+03 0.  0.
<mgrwt>
<rscale>  2 0.45244453E+03</rscale>
<asrwt>0</asrwt>
<pdfrwt beam="1">  1       21 0.57097890E-01 0.45244453E+03</pdfrwt>
<pdfrwt beam="2">  1       21 0.19383527E-01 0.45244453E+03</pdfrwt>
<totfact> 0.65193949E+04</totfact>
</mgrwt>
</event>
<event>
 7    0  0.4831799E-002  0.4238914E+03  0.7546771E-02  0.1035807E+00
         21   -1    0    0  502  501  0.00000000000E+00  0.00000000000E+00  0.55659372317E+03  0.55659372317E+03  0.00000000000E+00 0. -1.
         21   -1    0    0  501  502 -0.00000000000E+00 -0.00000000000E+00 -0.80706931898E+02  0.80706931898E+02  0.00000000000E+00 0. -1.
      99926    2    1    2    0    0  0.00000000000E+00  0.00000000000E+00  0.47588679127E+03  0.63730065507E+03  0.42389136208E+03 0.  0.
      99925    2    3    3    0    0 -0.18311360673E+02  0.75940323276E+02  0.33901456934E+03  0.43609490996E+03  0.26295561153E+03 0.  0.
         25    1    4    4    0    0 -0.55514827709E+01  0.77966268315E+02  0.16384624288E+03  0.22046010379E+03  0.12509000000E+03 0.  0.
         25    1    3    3    0    0  0.18311360673E+02 -0.75940323276E+02  0.13687222193E+03  0.20120574511E+03  0.12509000000E+03 0.  0.
         25    1    4    4    0    0 -0.12759877902E+02 -0.20259450390E+01  0.17516832646E+03  0.21563480617E+03  0.12509000000E+03 0.  0.
<mgrwt>
<rscale>  2 0.42389136E+03</rscale>
<asrwt>0</asrwt>
<pdfrwt beam="1">  1       21 0.81852016E-01 0.42389136E+03</pdfrwt>
<pdfrwt beam="2">  1       21 0.11868667E-01 0.42389136E+03</pdfrwt>
<totfact> 0.72702271E+04</totfact>
</mgrwt>
</event>
<event>
 7    0  0.4831799E-002  0.4465392E+03  0.7546771E-02  0.1028759E+00
         21   -1    0    0  502  501  0.00000000000E+00  0.00000000000E+00  0.15131854245E+03  0.15131854245E+03  0.00000000000E+00 0. -1.
         21   -1    0    0  501  502 -0.00000000000E+00 -0.00000000000E+00 -0.32943298222E+03  0.32943298222E+03  0.00000000000E+00 0. -1.
      99926    2    1    2    0    0  0.00000000000E+00 -0.71054273576E-14 -0.17811443977E+03  0.48075152467E+03  0.44653921980E+03 0.  0.
      99925    2    3    3    0    0  0.84754232487E+02  0.51493101468E+02 -0.15059269684E+03  0.31876456884E+03  0.26286473819E+03 0.  0.
         25    1    4    4    0    0  0.71547373828E+02  0.22676487347E+01 -0.59946735386E+02  0.15609384394E+03  0.12509000000E+03 0.  0.
         25    1    3    3    0    0 -0.84754232487E+02 -0.51493101468E+02 -0.27521742926E+02  0.16198695582E+03  0.12509000000E+03 0.  0.
         25    1    4    4    0    0  0.13206858658E+02  0.49225452733E+02 -0.90645961457E+02  0.16267072490E+03  0.12509000000E+03 0.  0.
<mgrwt>
<rscale>  2 0.44653922E+03</rscale>
<asrwt>0</asrwt>
<pdfrwt beam="1">  1       21 0.22252727E-01 0.44653922E+03</pdfrwt>
<pdfrwt beam="2">  1       21 0.48446026E-01 0.44653922E+03</pdfrwt>
<totfact> 0.71316372E+04</totfact>
</mgrwt>
</event>
<event>
 7    0  0.4831799E-002  0.4562045E+03  0.7546771E-02  0.1025888E+00
         21   -1    0    0  502  501  0.00000000000E+00  0.00000000000E+00  0.59188442000E+03  0.59188442000E+03  0.00000000000E+00 0.  1.
         21   -1    0    0  501  502 -0.00000000000E+00 -0.00000000000E+00 -0.87906749973E+02  0.87906749973E+02  0.00000000000E+00 0.  1.
      99926    2    1    2    0    0  0.00000000000E+00  0.00000000000E+00  0.50397767003E+03  0.67979116997E+03  0.45620449679E+03 0.  0.
      99925    2    3    3    0    0 -0.96108276904E+02  0.57376529426E+02  0.35080327180E+03  0.45254951140E+03  0.26307652451E+03 0.  0.
         25    1    3    3    0    0  0.96108276904E+02 -0.57376529426E+02  0.15317439823E+03  0.22724165858E+03  0.12509000000E+03 0.  0.
         25    1    4    4    0    0 -0.32791301426E+02  0.65938249961E+02  0.18826352595E+03  0.23772628285E+03  0.12509000000E+03 0.  0.
         25    1    4    4    0    0 -0.63316975478E+02 -0.85617205347E+01  0.16253974585E+03  0.21482322854E+03  0.12509000000E+03 0.  0.
<mgrwt>
<rscale>  2 0.45620450E+03</rscale>
<asrwt>0</asrwt>
<pdfrwt beam="1">  1       21 0.87041824E-01 0.45620450E+03</pdfrwt>
<pdfrwt beam="2">  1       21 0.12927464E-01 0.45620450E+03</pdfrwt>
<totfact> 0.53505051E+04</totfact>
</mgrwt>
</event>
<event>
 7    0  0.4831799E-002  0.4517677E+03  0.7546771E-02  0.1027196E+00
         21   -1    0    0  502  501  0.00000000000E+00  0.00000000000E+00  0.11790920757E+03  0.11790920757E+03  0.00000000000E+00 0. -1.
         21   -1    0    0  501  502 -0.00000000000E+00 -0.00000000000E+00 -0.43273554600E+03  0.43273554600E+03  0.00000000000E+00 0. -1.
      99926    2    1    2    0    0 -0.88817841970E-15  0.00000000000E+00 -0.31482633844E+03  0.55064475357E+03  0.45176766292E+03 0.  0.
      99925    2    3    3    0    0  0.33135005623E+01 -0.53590940992E+02 -0.81389339604E+02  0.28041650048E+03  0.26291865833E+03 0.  0.
         25    1    4    4    0    0 -0.10612699588E+02  0.11962994690E+02 -0.31403251499E+02  0.12995928185E+03  0.12509000000E+03 0.  0.
         25    1    4    4    0    0  0.13926200150E+02 -0.65553935682E+02 -0.49986088105E+02  0.15045721863E+03  0.12509000000E+03 0.  0.
         25    1    3    3    0    0 -0.33135005623E+01  0.53590940992E+02 -0.23343699883E+03  0.27022825309E+03  0.12509000000E+03 0.  0.
<mgrwt>
<rscale>  2 0.45176766E+03</rscale>
<asrwt>0</asrwt>
<pdfrwt beam="1">  1       21 0.17339589E-01 0.45176766E+03</pdfrwt>
<pdfrwt beam="2">  1       21 0.63637581E-01 0.45176766E+03</pdfrwt>
<totfact> 0.63430561E+04</totfact>
</mgrwt>
</event>
<event>
 7    0  0.4831799E-002  0.4859881E+03  0.7546771E-02  0.1017502E+00
         21   -1    0    0  502  501  0.00000000000E+00  0.00000000000E+00  0.12799286567E+04  0.12799286567E+04  0.00000000000E+00 0.  1.
         21   -1    0    0  501  502 -0.00000000000E+00 -0.00000000000E+00 -0.46132340698E+02  0.46132340698E+02  0.00000000000E+00 0.  1.
      99926    2    1    2    0    0 -0.71054273576E-14 -0.14210854715E-13  0.12337963160E+04  0.13260609974E+04  0.48598808571E+03 0.  0.
      99925    2    3    3    0    0 -0.43529805630E+02 -0.93793841945E+02  0.49629828746E+03  0.57091665426E+03  0.26256752887E+03 0.  0.
         25    1    4    4    0    0 -0.48276027605E+02 -0.19456310431E+02  0.26468328161E+03  0.29734469984E+03  0.12509000000E+03 0.  0.
         25    1    3    3    0    0  0.43529805630E+02  0.93793841945E+02  0.73749802859E+03  0.75514434318E+03  0.12509000000E+03 0.  0.
         25    1    4    4    0    0  0.47462219751E+01 -0.74337531514E+02  0.23161500585E+03  0.27357195443E+03  0.12509000000E+03 0.  0.
<mgrwt>
<rscale>  2 0.48598809E+03</rscale>
<asrwt>0</asrwt>
<pdfrwt beam="1">  1       21 0.18822478E+00 0.48598809E+03</pdfrwt>
<pdfrwt beam="2">  1       21 0.67841686E-02 0.48598809E+03</pdfrwt>
<totfact> 0.22447933E+04</totfact>
</mgrwt>
</event>
<event>
 7    0  0.4831799E-002  0.4610551E+03  0.7546771E-02  0.1024476E+00
         21   -1    0    0  502  501  0.00000000000E+00  0.00000000000E+00  0.12868918472E+03  0.12868918472E+03  0.00000000000E+00 0.  1.
         21   -1    0    0  501  502 -0.00000000000E+00 -0.00000000000E+00 -0.41295587665E+03  0.41295587665E+03  0.00000000000E+00 0.  1.
      99926    2    1    2    0    0 -0.14210854715E-13  0.00000000000E+00 -0.28426669193E+03  0.54164506138E+03  0.46105511642E+03 0.  0.
      99925    2    3    3    0    0 -0.89639563150E+02  0.52909954509E+02 -0.24514325625E+03  0.37427461629E+03  0.26296683774E+03 0.  0.
         25    1    3    3    0    0  0.89639563150E+02 -0.52909954509E+02 -0.39123435684E+02  0.16737044508E+03  0.12509000000E+03 0.  0.
         25    1    4    4    0    0 -0.84404277486E+02  0.39457485046E+02 -0.12053902795E+03  0.19712468273E+03  0.12509000000E+03 0.  0.
         25    1    4    4    0    0 -0.52352856646E+01  0.13452469464E+02 -0.12460422830E+03  0.17714993356E+03  0.12509000000E+03 0.  0.
<mgrwt>
<rscale>  2 0.46105512E+03</rscale>
<asrwt>0</asrwt>
<pdfrwt beam="1">  1       21 0.18924880E-01 0.46105512E+03</pdfrwt>
<pdfrwt beam="2">  1       21 0.60728805E-01 0.46105512E+03</pdfrwt>
<totfact> 0.59517400E+04</totfact>
</mgrwt>
</event>
<event>
 7    0  0.4831799E-002  0.4510154E+03  0.7546771E-02  0.1027420E+00
         21   -1    0    0  502  501  0.00000000000E+00  0.00000000000E+00  0.73082355332E+03  0.73082355332E+03  0.00000000000E+00 0.  1.
         21   -1    0    0  501  502 -0.00000000000E+00 -0.00000000000E+00 -0.69584146318E+02  0.69584146318E+02  0.00000000000E+00 0.  1.
      99926    2    1    2    0    0  0.22204460493E-15  0.14210854715E-13  0.66123940700E+03  0.80040769964E+03  0.45101544571E+03 0.  0.
      99925    2    3    3    0    0 -0.12241433832E+01 -0.10817642043E+03  0.44730638651E+03  0.53000340637E+03  0.26290106672E+03 0.  0.
         25    1    3    3    0    0  0.12241433832E+01  0.10817642043E+03  0.21393302049E+03  0.27040429327E+03  0.12509000000E+03 0.  0.
         25    1    4    4    0    0 -0.33656474576E+01 -0.84686762383E+02  0.29549812320E+03  0.33188827069E+03  0.12509000000E+03 0.  0.
         25    1    4    4    0    0  0.21415040744E+01 -0.23489658045E+02  0.15180826331E+03  0.19811513567E+03  0.12509000000E+03 0.  0.
<mgrwt>
<rscale>  2 0.45101545E+03</rscale>
<asrwt>0</asrwt>
<pdfrwt beam="1">  1       21 0.10747405E+00 0.45101545E+03</pdfrwt>
<pdfrwt beam="2">  1       21 0.10232963E-01 0.45101545E+03</pdfrwt>
<totfact> 0.49267726E+04</totfact>
</mgrwt>
</event>
<event>
 7    0  0.4831799E-002  0.4516126E+03  0.7546771E-02  0.1027242E+00
         21   -1    0    0  502  501  0.00000000000E+00  0.00000000000E+00  0.39023585104E+03  0.39023585104E+03  0.00000000000E+00 0.  1.
         21   -1    0    0  501  502 -0.00000000000E+00 -0.00000000000E+00 -0.13066066965E+03  0.13066066965E+03  0.00000000000E+00 0.  1.
      99926    2    1    2    0    0  0.14210854715E-13  0.71054273576E-14  0.25957518140E+03  0.52089652069E+03  0.45161256677E+03 0.  0.
      99925    2    3    3    0    0 -0.90448259461E+02 -0.39004277957E+02  0.10612822426E+03  0.29977280398E+03  0.26248488086E+03 0.  0.
         25    1    4    4    0    0 -0.47087166309E+01 -0.25072275638E+02  0.56392256691E+02  0.13956498749E+03  0.12509000000E+03 0.  0.
         25    1    3    3    0    0  0.90448259461E+02  0.39004277957E+02  0.15344695714E+03  0.22112371671E+03  0.12509000000E+03 0.  0.
         25    1    4    4    0    0 -0.85739542830E+02 -0.13932002319E+02  0.49735967569E+02  0.16020781649E+03  0.12509000000E+03 0.  0.
<mgrwt>
<rscale>  2 0.45161257E+03</rscale>
<asrwt>0</asrwt>
<pdfrwt beam="1">  1       21 0.57387625E-01 0.45161257E+03</pdfrwt>
<pdfrwt beam="2">  1       21 0.19214804E-01 0.45161257E+03</pdfrwt>
<totfact> 0.65570195E+04</totfact>
</mgrwt>
</event>
<event>
 7    0  0.4831799E-002  0.4535848E+03  0.7546771E-02  0.1026658E+00
         21   -1    0    0  502  501  0.00000000000E+00  0.00000000000E+00  0.46041249514E+03  0.46041249514E+03  0.00000000000E+00 0.  1.
         21   -1    0    0  501  502 -0.00000000000E+00 -0.00000000000E+00 -0.11171458233E+03  0.11171458233E+03  0.00000000000E+00 0.  1.
      99926    2    1    2    0    0  0.00000000000E+00  0.00000000000E+00  0.34869791280E+03  0.57212707747E+03  0.45358478632E+03 0.  0.
      99925    2    3    3    0    0  0.10028068107E+03  0.49629555908E+02  0.22052011977E+03  0.36094856876E+03  0.26293618665E+03 0.  0.
         25    1    4    4    0    0  0.70617723341E+02  0.14776694347E+02  0.71701523229E+02  0.16122602172E+03  0.12509000000E+03 0.  0.
         25    1    4    4    0    0  0.29662957725E+02  0.34852861561E+02  0.14881859654E+03  0.19972254704E+03  0.12509000000E+03 0.  0.
         25    1    3    3    0    0 -0.10028068107E+03 -0.49629555908E+02  0.12817779303E+03  0.21117850871E+03  0.12509000000E+03 0.  0.
<mgrwt>
<rscale>  2 0.45358479E+03</rscale>
<asrwt>0</asrwt>
<pdfrwt beam="1">  1       21 0.67707719E-01 0.45358479E+03</pdfrwt>
<pdfrwt beam="2">  1       21 0.16428615E-01 0.45358479E+03</pdfrwt>
<totfact> 0.61108556E+04</totfact>
</mgrwt>
</event>
<event>
 7    0  0.4831799E-002  0.4208792E+03  0.7546771E-02  0.1036781E+00
         21   -1    0    0  502  501  0.00000000000E+00  0.00000000000E+00  0.15219663857E+03  0.15219663857E+03  0.00000000000E+00 0. -1.
         21   -1    0    0  501  502 -0.00000000000E+00 -0.00000000000E+00 -0.29097105854E+03  0.29097105854E+03  0.00000000000E+00 0. -1.
      99926    2    1    2    0    0  0.00000000000E+00  0.00000000000E+00 -0.13877441997E+03  0.44316769711E+03  0.42087916096E+03 0.  0.
      99925    2    3    3    0    0 -0.37336485819E+02  0.30508291134E+02 -0.27141829886E+02  0.26871394316E+03  0.26295576684E+03 0.  0.
         25    1    4    4    0    0 -0.41735511216E+02  0.36953688321E+02  0.11837374173E+02  0.13745930127E+03  0.12509000000E+03 0.  0.
         25    1    3    3    0    0  0.37336485819E+02 -0.30508291134E+02 -0.11163259008E+03  0.17445375396E+03  0.12509000000E+03 0.  0.
         25    1    4    4    0    0  0.43990253968E+01 -0.64453971874E+01 -0.38979204059E+02  0.13125464189E+03  0.12509000000E+03 0.  0.
<mgrwt>
<rscale>  2 0.42087916E+03</rscale>
<asrwt>0</asrwt>
<pdfrwt beam="1">  1       21 0.22381859E-01 0.42087916E+03</pdfrwt>
<pdfrwt beam="2">  1       21 0.42789861E-01 0.42087916E+03</pdfrwt>
<totfact> 0.91970895E+04</totfact>
</mgrwt>
</event>
<event>
 7    0  0.4831799E-002  0.4579637E+03  0.7546771E-02  0.1025373E+00
         21   -1    0    0  502  501  0.00000000000E+00  0.00000000000E+00  0.32778671005E+03  0.32778671005E+03  0.00000000000E+00 0.  1.
         21   -1    0    0  501  502 -0.00000000000E+00 -0.00000000000E+00 -0.15995976033E+03  0.15995976033E+03  0.00000000000E+00 0.  1.
      99926    2    1    2    0    0 -0.14210854715E-13  0.00000000000E+00  0.16782694972E+03  0.48774647037E+03  0.45796368230E+03 0.  0.
      99925    2    3    3    0    0 -0.94013498383E+02  0.36383848487E+02  0.44593578360E+02  0.28527105402E+03  0.26311340658E+03 0.  0.
         25    1    3    3    0    0  0.94013498383E+02 -0.36383848487E+02  0.12323337136E+03  0.20247541635E+03  0.12509000000E+03 0.  0.
         25    1    4    4    0    0 -0.85255529378E+02  0.19004183596E+02  0.50810337894E+01  0.15265316665E+03  0.12509000000E+03 0.  0.
         25    1    4    4    0    0 -0.87579690050E+01  0.17379664891E+02  0.39512544571E+02  0.13261788737E+03  0.12509000000E+03 0.  0.
<mgrwt>
<rscale>  2 0.45796368E+03</rscale>
<asrwt>0</asrwt>
<pdfrwt beam="1">  1       21 0.48203928E-01 0.45796368E+03</pdfrwt>
<pdfrwt beam="2">  1       21 0.23523494E-01 0.45796368E+03</pdfrwt>
<totfact> 0.64606949E+04</totfact>
</mgrwt>
</event>
<event>
 7    0  0.4831799E-002  0.4356023E+03  0.7546771E-02  0.1032105E+00
         21   -1    0    0  502  501  0.00000000000E+00  0.00000000000E+00  0.10398394098E+03  0.10398394098E+03  0.00000000000E+00 0. -1.
         21   -1    0    0  501  502 -0.00000000000E+00 -0.00000000000E+00 -0.45619862772E+03  0.45619862772E+03  0.00000000000E+00 0. -1.
      99926    2    1    2    0    0 -0.88817841970E-15  0.00000000000E+00 -0.35221468674E+03  0.56018256870E+03  0.43560225518E+03 0.  0.
      99925    2    3    3    0    0  0.17042921171E+01 -0.58740128612E+02 -0.31997491887E+03  0.41826633266E+03  0.26288679885E+03 0.  0.
         25    1    3    3    0    0 -0.17042921171E+01  0.58740128612E+02 -0.32239767872E+02  0.14191623605E+03  0.12509000000E+03 0.  0.
         25    1    4    4    0    0  0.29262284712E+02 -0.47404422620E+02 -0.12965587140E+03  0.18857787166E+03  0.12509000000E+03 0.  0.
         25    1    4    4    0    0 -0.27557992595E+02 -0.11335705992E+02 -0.19031904747E+03  0.22968846100E+03  0.12509000000E+03 0.  0.
<mgrwt>
<rscale>  2 0.43560226E+03</rscale>
<asrwt>0</asrwt>
<pdfrwt beam="1">  1       21 0.15291756E-01 0.43560226E+03</pdfrwt>
<pdfrwt beam="2">  1       21 0.67088033E-01 0.43560226E+03</pdfrwt>
<totfact> 0.71562393E+04</totfact>
</mgrwt>
</event>
<event>
 7    0  0.4831799E-002  0.4403657E+03  0.7546771E-02  0.1030635E+00
         21   -1    0    0  502  501  0.00000000000E+00  0.00000000000E+00  0.11264518944E+03  0.11264518944E+03  0.00000000000E+00 0. -1.
         21   -1    0    0  501  502 -0.00000000000E+00 -0.00000000000E+00 -0.43038224485E+03  0.43038224485E+03  0.00000000000E+00 0. -1.
      99926    2    1    2    0    0 -0.17763568394E-14  0.00000000000E+00 -0.31773705540E+03  0.54302743429E+03  0.44036570940E+03 0.  0.
      99925    2    3    3    0    0  0.13926723864E+02  0.20201292707E+02 -0.84835728250E+02  0.27752304232E+03  0.26309673576E+03 0.  0.
         25    1    4    4    0    0  0.14126649607E+02  0.36228493999E+02 -0.11166308556E+02  0.13146961837E+03  0.12509000000E+03 0.  0.
         25    1    3    3    0    0 -0.13926723864E+02 -0.20201292707E+02 -0.23290132715E+03  0.26550439197E+03  0.12509000000E+03 0.  0.
         25    1    4    4    0    0 -0.19992574348E+00 -0.16027201292E+02 -0.73669419694E+02  0.14605342396E+03  0.12509000000E+03 0.  0.
<mgrwt>
<rscale>  2 0.44036571E+03</rscale>
<asrwt>0</asrwt>
<pdfrwt beam="1">  1       21 0.16565469E-01 0.44036571E+03</pdfrwt>
<pdfrwt beam="2">  1       21 0.63291507E-01 0.44036571E+03</pdfrwt>
<totfact> 0.70101768E+04</totfact>
</mgrwt>
</event>
<event>
 7    0  0.4831799E-002  0.4552554E+03  0.7546771E-02  0.1026166E+00
         21   -1    0    0  502  501  0.00000000000E+00  0.00000000000E+00  0.37461926775E+03  0.37461926775E+03  0.00000000000E+00 0.  1.
         21   -1    0    0  501  502 -0.00000000000E+00 -0.00000000000E+00 -0.13831210106E+03  0.13831210106E+03  0.00000000000E+00 0.  1.
      99926    2    1    2    0    0  0.00000000000E+00  0.00000000000E+00  0.23630716669E+03  0.51293136881E+03  0.45525543608E+03 0.  0.
      99925    2    3    3    0    0 -0.10610037322E+03 -0.32444524620E+02  0.12257944917E+03  0.31071505343E+03  0.26307448887E+03 0.  0.
         25    1    4    4    0    0 -0.35892879528E+02 -0.39171690516E+02  0.91356959254E+02  0.16375689983E+03  0.12509000000E+03 0.  0.
         25    1    4    4    0    0 -0.70207493691E+02  0.67271658955E+01  0.31222489913E+02  0.14695815359E+03  0.12509000000E+03 0.  0.
         25    1    3    3    0    0  0.10610037322E+03  0.32444524620E+02  0.11372771752E+03  0.20221631538E+03  0.12509000000E+03 0.  0.
<mgrwt>
<rscale>  2 0.45525544E+03</rscale>
<asrwt>0</asrwt>
<pdfrwt beam="1">  1       21 0.55091069E-01 0.45525544E+03</pdfrwt>
<pdfrwt beam="2">  1       21 0.20340015E-01 0.45525544E+03</pdfrwt>
<totfact> 0.64241092E+04</totfact>
</mgrwt>
</event>
<event>
 7    0  0.4831799E-002  0.4555881E+03  0.7546771E-02  0.1026069E+00
         21   -1    0    0  502  501  0.00000000000E+00  0.00000000000E+00  0.86384453757E+03  0.86384453757E+03  0.00000000000E+00 0. -1.
         21   -1    0    0  501  502 -0.00000000000E+00 -0.00000000000E+00 -0.60068823610E+02  0.60068823610E+02  0.00000000000E+00 0. -1.
      99926    2    1    2    0    0  0.35527136788E-14  0.00000000000E+00  0.80377571396E+03  0.92391336118E+03  0.45558808217E+03 0.  0.
      99925    2    3    3    0    0  0.16869331656E+02 -0.91111810214E+02  0.37189042228E+03  0.46482911011E+03  0.26301649969E+03 0.  0.
         25    1    4    4    0    0  0.45336658687E+02 -0.44324880897E+02  0.16014764939E+03  0.21287293251E+03  0.12509000000E+03 0.  0.
         25    1    4    4    0    0 -0.28467327032E+02 -0.46786929316E+02  0.21174277289E+03  0.25195617761E+03  0.12509000000E+03 0.  0.
         25    1    3    3    0    0 -0.16869331656E+02  0.91111810214E+02  0.43188529168E+03  0.45908425107E+03  0.12509000000E+03 0.  0.
<mgrwt>
<rscale>  2 0.45558808E+03</rscale>
<asrwt>0</asrwt>
<pdfrwt beam="1">  1       21 0.12703595E+00 0.45558808E+03</pdfrwt>
<pdfrwt beam="2">  1       21 0.88336511E-02 0.45558808E+03</pdfrwt>
<totfact> 0.42022009E+04</totfact>
</mgrwt>
</event>
<event>
 7    0  0.4831799E-002  0.4557253E+03  0.7546771E-02  0.1026028E+00
         21   -1    0    0  502  501  0.00000000000E+00  0.00000000000E+00  0.57319162571E+03  0.57319162571E+03  0.00000000000E+00 0. -1.
         21   -1    0    0  501  502 -0.00000000000E+00 -0.00000000000E+00 -0.90582962659E+02  0.90582962659E+02  0.00000000000E+00 0. -1.
      99926    2    1    2    0    0  0.00000000000E+00  0.14210854715E-13  0.48260866305E+03  0.66377458837E+03  0.45572533670E+03 0.  0.
      99925    2    3    3    0    0 -0.41309739225E+02  0.89050023998E+02  0.21956356246E+03  0.35640407194E+03  0.26301958711E+03 0.  0.
         25    1    4    4    0    0 -0.10708397892E+02  0.60713025849E+02  0.66883441490E+02  0.15466623464E+03  0.12509000000E+03 0.  0.
         25    1    4    4    0    0 -0.30601341334E+02  0.28336998149E+02  0.15268012097E+03  0.20173783729E+03  0.12509000000E+03 0.  0.
         25    1    3    3    0    0  0.41309739225E+02 -0.89050023998E+02  0.26304510059E+03  0.30737051643E+03  0.12509000000E+03 0.  0.
<mgrwt>
<rscale>  2 0.45572534E+03</rscale>
<asrwt>0</asrwt>
<pdfrwt beam="1">  1       21 0.84292884E-01 0.45572534E+03</pdfrwt>
<pdfrwt beam="2">  1       21 0.13321024E-01 0.45572534E+03</pdfrwt>
<totfact> 0.54601070E+04</totfact>
</mgrwt>
</event>
<event>
 7    0  0.4831799E-002  0.4498195E+03  0.7546771E-02  0.1027776E+00
         21   -1    0    0  502  501  0.00000000000E+00  0.00000000000E+00  0.15438211397E+03  0.15438211397E+03  0.00000000000E+00 0. -1.
         21   -1    0    0  501  502 -0.00000000000E+00 -0.00000000000E+00 -0.32765715210E+03  0.32765715210E+03  0.00000000000E+00 0. -1.
      99926    2    1    2    0    0  0.00000000000E+00  0.00000000000E+00 -0.17327503813E+03  0.48203926607E+03  0.44981953625E+03 0.  0.
      99925    2    3    3    0    0 -0.26398103660E+01  0.29193100607E+02 -0.22103865875E+03  0.34496965865E+03  0.26322380403E+03 0.  0.
         25    1    4    4    0    0 -0.37705935325E+00 -0.13325027121E+02 -0.68798145245E+02  0.14338197729E+03  0.12509000000E+03 0.  0.
         25    1    3    3    0    0  0.26398103660E+01 -0.29193100607E+02  0.47763620612E+02  0.13706960741E+03  0.12509000000E+03 0.  0.
         25    1    4    4    0    0 -0.22627510128E+01  0.42518127729E+02 -0.15224051350E+03  0.20158768137E+03  0.12509000000E+03 0.  0.
<mgrwt>
<rscale>  2 0.44981954E+03</rscale>
<asrwt>0</asrwt>
<pdfrwt beam="1">  1       21 0.22703252E-01 0.44981954E+03</pdfrwt>
<pdfrwt beam="2">  1       21 0.48184875E-01 0.44981954E+03</pdfrwt>
<totfact> 0.69360784E+04</totfact>
</mgrwt>
</event>
<event>
 7    0  0.4831799E-002  0.4442742E+03  0.7546771E-02  0.1029443E+00
         21   -1    0    0  502  501  0.00000000000E+00  0.00000000000E+00  0.12505181395E+03  0.12505181395E+03  0.00000000000E+00 0.  1.
         21   -1    0    0  501  502 -0.00000000000E+00 -0.00000000000E+00 -0.39459548151E+03  0.39459548151E+03  0.00000000000E+00 0.  1.
      99926    2    1    2    0    0  0.00000000000E+00 -0.71054273576E-14 -0.26954366756E+03  0.51964729546E+03  0.44427415293E+03 0.  0.
      99925    2    3    3    0    0 -0.51770350390E+02 -0.43346581586E+02 -0.80220497390E+02  0.28289876605E+03  0.26274947824E+03 0.  0.
         25    1    4    4    0    0  0.64490861525E+01 -0.22374351139E+02 -0.12721728315E+02  0.12787319020E+03  0.12509000000E+03 0.  0.
         25    1    3    3    0    0  0.51770350390E+02  0.43346581586E+02 -0.18932317017E+03  0.23674852941E+03  0.12509000000E+03 0.  0.
         25    1    4    4    0    0 -0.58219436542E+02 -0.20972230447E+02 -0.67498769075E+02  0.15502557585E+03  0.12509000000E+03 0.  0.
<mgrwt>
<rscale>  2 0.44427415E+03</rscale>
<asrwt>0</asrwt>
<pdfrwt beam="1">  1       21 0.18389973E-01 0.44427415E+03</pdfrwt>
<pdfrwt beam="2">  1       21 0.58028747E-01 0.44427415E+03</pdfrwt>
<totfact> 0.69646958E+04</totfact>
</mgrwt>
</event>
<event>
 7    0  0.4831799E-002  0.4595055E+03  0.7546771E-02  0.1024925E+00
         21   -1    0    0  502  501  0.00000000000E+00  0.00000000000E+00  0.64328458438E+02  0.64328458438E+02  0.00000000000E+00 0.  1.
         21   -1    0    0  501  502 -0.00000000000E+00 -0.00000000000E+00 -0.82057519884E+03  0.82057519884E+03  0.00000000000E+00 0.  1.
      99926    2    1    2    0    0  0.00000000000E+00  0.00000000000E+00 -0.75624674040E+03  0.88490365728E+03  0.45950554980E+03 0.  0.
      99925    2    3    3    0    0 -0.70284453230E+02  0.57767355056E+02 -0.33186328247E+03  0.43321150643E+03  0.26317674550E+03 0.  0.
         25    1    3    3    0    0  0.70284453230E+02 -0.57767355056E+02 -0.42438345793E+03  0.45169215085E+03  0.12509000000E+03 0.  0.
         25    1    4    4    0    0 -0.10664552502E+02  0.45753197769E+02 -0.11897232100E+03  0.17891061749E+03  0.12509000000E+03 0.  0.
         25    1    4    4    0    0 -0.59619900728E+02  0.12014157287E+02 -0.21289096147E+03  0.25430088894E+03  0.12509000000E+03 0.  0.
<mgrwt>
<rscale>  2 0.45950555E+03</rscale>
<asrwt>0</asrwt>
<pdfrwt beam="1">  1       21 0.94600680E-02 0.45950555E+03</pdfrwt>
<pdfrwt beam="2">  1       21 0.12067282E+00 0.45950555E+03</pdfrwt>
<totfact> 0.42377684E+04</totfact>
</mgrwt>
</event>
<event>
 7    0  0.4831799E-002  0.4510529E+03  0.7546771E-02  0.1027409E+00
         21   -1    0    0  502  501  0.00000000000E+00  0.00000000000E+00  0.69950921341E+02  0.69950921341E+02  0.00000000000E+00 0.  1.
         21   -1    0    0  501  502 -0.00000000000E+00 -0.00000000000E+00 -0.72711247342E+03  0.72711247342E+03  0.00000000000E+00 0.  1.
      99926    2    1    2    0    0  0.00000000000E+00  0.00000000000E+00 -0.65716155208E+03  0.79706339476E+03  0.45105293452E+03 0.  0.
      99925    2    3    3    0    0 -0.31669301663E+02  0.10149193901E+03 -0.36989518569E+03  0.46619630406E+03  0.26308361251E+03 0.  0.
         25    1    3    3    0    0  0.31669301663E+02 -0.10149193901E+03 -0.28726636639E+03  0.33086709070E+03  0.12509000000E+03 0.  0.
         25    1    4    4    0    0  0.63377217833E+01  0.31270905660E+02 -0.22121199816E+03  0.25612554048E+03  0.12509000000E+03 0.  0.
         25    1    4    4    0    0 -0.38007023447E+02  0.70221033347E+02 -0.14868318753E+03  0.21007076358E+03  0.12509000000E+03 0.  0.
<mgrwt>
<rscale>  2 0.45105293E+03</rscale>
<asrwt>0</asrwt>
<pdfrwt beam="1">  1       21 0.10286900E-01 0.45105293E+03</pdfrwt>
<pdfrwt beam="2">  1       21 0.10692831E+00 0.45105293E+03</pdfrwt>
<totfact> 0.49420363E+04</totfact>
</mgrwt>
</event>
<event>
 7    0  0.4831799E-002  0.4095763E+03  0.7546771E-02  0.1040513E+00
         21   -1    0    0  502  501  0.00000000000E+00  0.00000000000E+00  0.52947756637E+03  0.52947756637E+03  0.00000000000E+00 0.  1.
         21   -1    0    0  501  502 -0.00000000000E+00 -0.00000000000E+00 -0.79206730861E+02  0.79206730861E+02  0.00000000000E+00 0.  1.
      99926    2    1    2    0    0  0.00000000000E+00 -0.71054273576E-14  0.45027083551E+03  0.60868429723E+03  0.40957630350E+03 0.  0.
      99925    2    3    3    0    0 -0.23896253178E+02  0.51000302164E+02  0.26153549608E+03  0.37535920602E+03  0.26329006077E+03 0.  0.
         25    1    4    4    0    0  0.24436776586E+02  0.41033371994E+02  0.11535497387E+03  0.17673474973E+03  0.12509000000E+03 0.  0.
         25    1    3    3    0    0  0.23896253178E+02 -0.51000302164E+02  0.18873533943E+03  0.23332509121E+03  0.12509000000E+03 0.  0.
         25    1    4    4    0    0 -0.48333029763E+02  0.99669301704E+01  0.14618052221E+03  0.19862445629E+03  0.12509000000E+03 0.  0.
<mgrwt>
<rscale>  2 0.40957630E+03</rscale>
<asrwt>0</asrwt>
<pdfrwt beam="1">  1       21 0.77864346E-01 0.40957630E+03</pdfrwt>
<pdfrwt beam="2">  1       21 0.11648049E-01 0.40957630E+03</pdfrwt>
<totfact> 0.84663727E+04</totfact>
</mgrwt>
</event>
<event>
 7    0  0.4831799E-002  0.4529899E+03  0.7546771E-02  0.1026834E+00
         21   -1    0    0  502  501  0.00000000000E+00  0.00000000000E+00  0.38178201648E+03  0.38178201648E+03  0.00000000000E+00 0. -1.
         21   -1    0    0  501  502 -0.00000000000E+00 -0.00000000000E+00 -0.13436977478E+03  0.13436977478E+03  0.00000000000E+00 0. -1.
      99926    2    1    2    0    0  0.00000000000E+00  0.00000000000E+00  0.24741224170E+03  0.51615179126E+03  0.45298990528E+03 0.  0.
      99925    2    3    3    0    0 -0.23667081430E+02 -0.11026321033E+03  0.15965222982E+03  0.32623751039E+03  0.26119719065E+03 0.  0.
         25    1    4    4    0    0  0.22204884345E+02 -0.65986055271E+02  0.67326755696E+02  0.15820118998E+03  0.12509000000E+03 0.  0.
         25    1    3    3    0    0  0.23667081430E+02  0.11026321033E+03  0.87760011880E+02  0.18991428088E+03  0.12509000000E+03 0.  0.
         25    1    4    4    0    0 -0.45871965775E+02 -0.44277155058E+02  0.92325474120E+02  0.16803632041E+03  0.12509000000E+03 0.  0.
<mgrwt>
<rscale>  2 0.45298991E+03</rscale>
<asrwt>0</asrwt>
<pdfrwt beam="1">  1       21 0.56144414E-01 0.45298991E+03</pdfrwt>
<pdfrwt beam="2">  1       21 0.19760261E-01 0.45298991E+03</pdfrwt>
<totfact> 0.65183642E+04</totfact>
</mgrwt>
</event>
<event>
 7    0  0.4831799E-002  0.4512730E+03  0.7546771E-02  0.1027343E+00
         21   -1    0    0  502  501  0.00000000000E+00  0.00000000000E+00  0.76180264676E+02  0.76180264676E+02  0.00000000000E+00 0. -1.
         21   -1    0    0  501  502 -0.00000000000E+00 -0.00000000000E+00 -0.66830748877E+03  0.66830748877E+03  0.00000000000E+00 0. -1.
      99926    2    1    2    0    0  0.14210854715E-13  0.00000000000E+00 -0.59212722409E+03  0.74448775344E+03  0.45127304984E+03 0.  0.
      99925    2    3    3    0    0 -0.76997439256E+02  0.59578037849E+02 -0.29060254970E+03  0.40383722047E+03  0.26297625463E+03 0.  0.
         25    1    4    4    0    0 -0.66226181558E+02  0.61513268977E+02 -0.14792200075E+03  0.21377141013E+03  0.12509000000E+03 0.  0.
         25    1    3    3    0    0  0.76997439256E+02 -0.59578037849E+02 -0.30152467439E+03  0.34065053297E+03  0.12509000000E+03 0.  0.
         25    1    4    4    0    0 -0.10771257698E+02 -0.19352311280E+01 -0.14268054895E+03  0.19006581034E+03  0.12509000000E+03 0.  0.
<mgrwt>
<rscale>  2 0.45127305E+03</rscale>
<asrwt>0</asrwt>
<pdfrwt beam="1">  1       21 0.11202980E-01 0.45127305E+03</pdfrwt>
<pdfrwt beam="2">  1       21 0.98280512E-01 0.45127305E+03</pdfrwt>
<totfact> 0.52061727E+04</totfact>
</mgrwt>
</event>
<event>
 7    0  0.4831799E-002  0.4454081E+03  0.7546771E-02  0.1029100E+00
         21   -1    0    0  502  501  0.00000000000E+00  0.00000000000E+00  0.15779172853E+03  0.15779172853E+03  0.00000000000E+00 0.  1.
         21   -1    0    0  501  502 -0.00000000000E+00 -0.00000000000E+00 -0.31431996148E+03  0.31431996148E+03  0.00000000000E+00 0.  1.
      99926    2    1    2    0    0  0.00000000000E+00  0.53290705182E-14 -0.15652823295E+03  0.47211169001E+03  0.44540808270E+03 0.  0.
      99925    2    3    3    0    0 -0.75584617945E+02  0.15647726157E+02 -0.25690198358E+02  0.27532758192E+03  0.26303498868E+03 0.  0.
         25    1    4    4    0    0 -0.62345916126E+02  0.37526187623E+02 -0.29064875204E+02  0.14760590464E+03  0.12509000000E+03 0.  0.
         25    1    3    3    0    0  0.75584617945E+02 -0.15647726157E+02 -0.13083803459E+03  0.19678410809E+03  0.12509000000E+03 0.  0.
         25    1    4    4    0    0 -0.13238701818E+02 -0.21878461466E+02  0.33746768454E+01  0.12772167727E+03  0.12509000000E+03 0.  0.
<mgrwt>
<rscale>  2 0.44540808E+03</rscale>
<asrwt>0</asrwt>
<pdfrwt beam="1">  1       21 0.23204666E-01 0.44540808E+03</pdfrwt>
<pdfrwt beam="2">  1       21 0.46223523E-01 0.44540808E+03</pdfrwt>
<totfact> 0.72654462E+04</totfact>
</mgrwt>
</event>
<event>
 7    0  0.4831799E-002  0.4503672E+03  0.7546771E-02  0.1027613E+00
         21   -1    0    0  502  501  0.00000000000E+00  0.00000000000E+00  0.18698169480E+04  0.18698169480E+04  0.00000000000E+00 0.  1.
         21   -1    0    0  501  502 -0.00000000000E+00 -0.00000000000E+00 -0.27119049966E+02  0.27119049966E+02  0.00000000000E+00 0.  1.
      99926    2    1    2    0    0  0.00000000000E+00  0.00000000000E+00  0.18426978980E+04  0.18969359979E+04  0.45036722456E+03 0.  0.
      99925    2    3    3    0    0  0.34313623045E+02 -0.71804793602E+02  0.14767335556E+04  0.15020806306E+04  0.26300356164E+03 0.  0.
         25    1    3    3    0    0 -0.34313623045E+02  0.71804793602E+02  0.36596434234E+03  0.39485536728E+03  0.12509000000E+03 0.  0.
         25    1    4    4    0    0  0.51070704726E+02 -0.58120803797E+02  0.84759935113E+03  0.86026647781E+03  0.12509000000E+03 0.  0.
         25    1    4    4    0    0 -0.16757081681E+02 -0.13683989805E+02  0.62913420452E+03  0.64181415282E+03  0.12509000000E+03 0.  0.
<mgrwt>
<rscale>  2 0.45036722E+03</rscale>
<asrwt>0</asrwt>
<pdfrwt beam="1">  1       21 0.27497299E+00 0.45036722E+03</pdfrwt>
<pdfrwt beam="2">  1       21 0.39880969E-02 0.45036722E+03</pdfrwt>
<totfact> 0.16035104E+04</totfact>
</mgrwt>
</event>
<event>
 7    0  0.4831799E-002  0.3932387E+03  0.7546771E-02  0.1046146E+00
         21   -1    0    0  502  501  0.00000000000E+00  0.00000000000E+00  0.13070952124E+03  0.13070952124E+03  0.00000000000E+00 0.  1.
         21   -1    0    0  501  502 -0.00000000000E+00 -0.00000000000E+00 -0.29576404674E+03  0.29576404674E+03  0.00000000000E+00 0.  1.
      99926    2    1    2    0    0  0.35527136788E-14  0.17763568394E-14 -0.16505452550E+03  0.42647356798E+03  0.39323874147E+03 0.  0.
      99925    2    3    3    0    0  0.24051112232E+02  0.14296286021E+02 -0.10009742178E+03  0.28277327843E+03  0.26297983449E+03 0.  0.
         25    1    4    4    0    0 -0.11104416073E+02  0.13220626849E+02 -0.84407323176E+02  0.15188876633E+03  0.12509000000E+03 0.  0.
         25    1    3    3    0    0 -0.24051112232E+02 -0.14296286021E+02 -0.64957103717E+02  0.14370028955E+03  0.12509000000E+03 0.  0.
         25    1    4    4    0    0  0.35155528306E+02  0.10756591717E+01 -0.15690098609E+02  0.13088451210E+03  0.12509000000E+03 0.  0.
<mgrwt>
<rscale>  2 0.39323874E+03</rscale>
<asrwt>0</asrwt>
<pdfrwt beam="1">  1       21 0.19221989E-01 0.39323874E+03</pdfrwt>
<pdfrwt beam="2">  1       21 0.43494712E-01 0.39323874E+03</pdfrwt>
<totfact> 0.11948657E+05</totfact>
</mgrwt>
</event>
<event>
 7    0  0.4831799E-002  0.4611892E+03  0.7546771E-02  0.1024437E+00
         21   -1    0    0  502  501  0.00000000000E+00  0.00000000000E+00  0.34301873878E+03  0.34301873878E+03  0.00000000000E+00 0. -1.
         21   -1    0    0  501  502 -0.00000000000E+00 -0.00000000000E+00 -0.15501741550E+03  0.15501741550E+03  0.00000000000E+00 0. -1.
      99926    2    1    2    0    0  0.00000000000E+00  0.00000000000E+00  0.18800132327E+03  0.49803615428E+03  0.46118923819E+03 0.  0.
      99925    2    3    3    0    0  0.10371186484E+03  0.43236244421E+02  0.15972903639E+03  0.32752998417E+03  0.26293915974E+03 0.  0.
         25    1    3    3    0    0 -0.10371186484E+03 -0.43236244421E+02  0.28272286880E+02  0.17050617011E+03  0.12509000000E+03 0.  0.
         25    1    4    4    0    0  0.50341900458E+02  0.35103078040E+02  0.12438650497E+03  0.18677806013E+03  0.12509000000E+03 0.  0.
         25    1    4    4    0    0  0.53369964377E+02  0.81331663807E+01  0.35342531423E+02  0.14075192404E+03  0.12509000000E+03 0.  0.
<mgrwt>
<rscale>  2 0.46118924E+03</rscale>
<asrwt>0</asrwt>
<pdfrwt beam="1">  1       21 0.50443932E-01 0.46118924E+03</pdfrwt>
<pdfrwt beam="2">  1       21 0.22796679E-01 0.46118924E+03</pdfrwt>
<totfact> 0.62291522E+04</totfact>
</mgrwt>
</event>
<event>
 7    0  0.4831799E-002  0.4472939E+03  0.7546771E-02  0.1028532E+00
         21   -1    0    0  502  501  0.00000000000E+00  0.00000000000E+00  0.53840855075E+03  0.53840855075E+03  0.00000000000E+00 0.  1.
         21   -1    0    0  501  502 -0.00000000000E+00 -0.00000000000E+00 -0.92899642148E+02  0.92899642148E+02  0.00000000000E+00 0.  1.
      99926    2    1    2    0    0  0.00000000000E+00  0.00000000000E+00  0.44550890860E+03  0.63130819289E+03  0.44729391542E+03 0.  0.
      99925    2    3    3    0    0 -0.78144261187E+01 -0.90596973123E+02  0.35884571359E+03  0.45403187111E+03  0.26287985285E+03 0.  0.
         25    1    4    4    0    0 -0.10833639214E+02 -0.85668311868E+02  0.21519500865E+03  0.26346314210E+03  0.12509000000E+03 0.  0.
         25    1    3    3    0    0  0.78144261187E+01  0.90596973123E+02  0.86663195012E+02  0.17727632178E+03  0.12509000000E+03 0.  0.
         25    1    4    4    0    0  0.30192130949E+01 -0.49286612548E+01  0.14365070494E+03  0.19056872902E+03  0.12509000000E+03 0.  0.
<mgrwt>
<rscale>  2 0.44729392E+03</rscale>
<asrwt>0</asrwt>
<pdfrwt beam="1">  1       21 0.79177727E-01 0.44729392E+03</pdfrwt>
<pdfrwt beam="2">  1       21 0.13661712E-01 0.44729392E+03</pdfrwt>
<totfact> 0.60381188E+04</totfact>
</mgrwt>
</event>
<event>
 7    0  0.4831799E-002  0.4530660E+03  0.7546771E-02  0.1026812E+00
         21   -1    0    0  502  501  0.00000000000E+00  0.00000000000E+00  0.27849984255E+03  0.27849984255E+03  0.00000000000E+00 0. -1.
         21   -1    0    0  501  502 -0.00000000000E+00 -0.00000000000E+00 -0.18426294293E+03  0.18426294293E+03  0.00000000000E+00 0. -1.
      99926    2    1    2    0    0  0.00000000000E+00  0.00000000000E+00  0.94236899625E+02  0.46276278548E+03  0.45306600223E+03 0.  0.
      99925    2    3    3    0    0 -0.22036740109E+02 -0.62009020359E+02 -0.32408330124E+02  0.27298065029E+03  0.26293991529E+03 0.  0.
         25    1    4    4    0    0  0.54008683392E+01 -0.20672222621E+02  0.20187890982E+02  0.12849735098E+03  0.12509000000E+03 0.  0.
         25    1    4    4    0    0 -0.27437608449E+02 -0.41336797739E+02 -0.52596221106E+02  0.14448329931E+03  0.12509000000E+03 0.  0.
         25    1    3    3    0    0  0.22036740109E+02  0.62009020359E+02  0.12664522975E+03  0.18978213519E+03  0.12509000000E+03 0.  0.
<mgrwt>
<rscale>  2 0.45306600E+03</rscale>
<asrwt>0</asrwt>
<pdfrwt beam="1">  1       21 0.40955860E-01 0.45306600E+03</pdfrwt>
<pdfrwt beam="2">  1       21 0.27097491E-01 0.45306600E+03</pdfrwt>
<totfact> 0.69031475E+04</totfact>
</mgrwt>
</event>
<event>
 7    0  0.4831799E-002  0.4438294E+03  0.7546771E-02  0.1029578E+00
         21   -1    0    0  502  501  0.00000000000E+00  0.00000000000E+00  0.30352026789E+03  0.30352026789E+03  0.00000000000E+00 0.  1.
         21   -1    0    0  501  502 -0.00000000000E+00 -0.00000000000E+00 -0.16224987724E+03  0.16224987724E+03  0.00000000000E+00 0.  1.
      99926    2    1    2    0    0  0.00000000000E+00 -0.88817841970E-15  0.14127039066E+03  0.46577014513E+03  0.44382936453E+03 0.  0.
      99925    2    3    3    0    0 -0.10042682288E+03  0.40159685402E+01  0.10987877079E+03  0.30226290781E+03  0.26303582724E+03 0.  0.
         25    1    3    3    0    0  0.10042682288E+03 -0.40159685402E+01  0.31391619871E+02  0.16350723732E+03  0.12509000000E+03 0.  0.
         25    1    4    4    0    0 -0.37360622573E+02 -0.13176540575E+01  0.94632000729E+02  0.16124601078E+03  0.12509000000E+03 0.  0.
         25    1    4    4    0    0 -0.63066200308E+02  0.53336225976E+01  0.15246770058E+02  0.14101689703E+03  0.12509000000E+03 0.  0.
<mgrwt>
<rscale>  2 0.44382936E+03</rscale>
<asrwt>0</asrwt>
<pdfrwt beam="1">  1       21 0.44635334E-01 0.44382936E+03</pdfrwt>
<pdfrwt beam="2">  1       21 0.23860276E-01 0.44382936E+03</pdfrwt>
<totfact> 0.74105166E+04</totfact>
</mgrwt>
</event>
<event>
 7    0  0.4831799E-002  0.4534216E+03  0.7546771E-02  0.1026707E+00
         21   -1    0    0  502  501  0.00000000000E+00  0.00000000000E+00  0.17799955594E+03  0.17799955594E+03  0.00000000000E+00 0.  1.
         21   -1    0    0  501  502 -0.00000000000E+00 -0.00000000000E+00 -0.28875237793E+03  0.28875237793E+03  0.00000000000E+00 0.  1.
      99926    2    1    2    0    0  0.00000000000E+00  0.00000000000E+00 -0.11075282199E+03  0.46675193388E+03  0.45342163623E+03 0.  0.
      99925    2    3    3    0    0 -0.63618976629E+02  0.90834496732E+02 -0.57983982593E+02  0.29145122511E+03  0.26321738999E+03 0.  0.
         25    1    3    3    0    0  0.63618976629E+02 -0.90834496732E+02 -0.52768839397E+02  0.17530070877E+03  0.12509000000E+03 0.  0.
         25    1    4    4    0    0 -0.58147839508E+02  0.76889358033E+02 -0.16368627654E+02  0.15877211559E+03  0.12509000000E+03 0.  0.
         25    1    4    4    0    0 -0.54711371215E+01  0.13945138699E+02 -0.41615354939E+02  0.13267910951E+03  0.12509000000E+03 0.  0.
<mgrwt>
<rscale>  2 0.45342164E+03</rscale>
<asrwt>0</asrwt>
<pdfrwt beam="1">  1       21 0.26176406E-01 0.45342164E+03</pdfrwt>
<pdfrwt beam="2">  1       21 0.42463585E-01 0.45342164E+03</pdfrwt>
<totfact> 0.68532193E+04</totfact>
</mgrwt>
</event>
<event>
 7    0  0.4831799E-002  0.4567462E+03  0.7546771E-02  0.1025729E+00
         21   -1    0    0  502  501  0.00000000000E+00  0.00000000000E+00  0.55676375654E+03  0.55676375654E+03  0.00000000000E+00 0. -1.
         21   -1    0    0  501  502 -0.00000000000E+00 -0.00000000000E+00 -0.93673953264E+02  0.93673953264E+02  0.00000000000E+00 0. -1.
      99926    2    1    2    0    0  0.00000000000E+00  0.14210854715E-13  0.46308980328E+03  0.65043770980E+03  0.45674615317E+03 0.  0.
      99925    2    3    3    0    0 -0.79452570921E+02 -0.82162555445E+02  0.30668340198E+03  0.41984311531E+03  0.26296413421E+03 0.  0.
         25    1    4    4    0    0 -0.77789282847E+02 -0.32739394638E+02  0.18215272802E+03  0.23653787205E+03  0.12509000000E+03 0.  0.
         25    1    4    4    0    0 -0.16632880749E+01 -0.49423160807E+02  0.12453067396E+03  0.18330524326E+03  0.12509000000E+03 0.  0.
         25    1    3    3    0    0  0.79452570921E+02  0.82162555445E+02  0.15640640129E+03  0.23059459449E+03  0.12509000000E+03 0.  0.
<mgrwt>
<rscale>  2 0.45674615E+03</rscale>
<asrwt>0</asrwt>
<pdfrwt beam="1">  1       21 0.81877021E-01 0.45674615E+03</pdfrwt>
<pdfrwt beam="2">  1       21 0.13775582E-01 0.45674615E+03</pdfrwt>
<totfact> 0.54915878E+04</totfact>
</mgrwt>
</event>
<event>
 7    0  0.4831799E-002  0.4640182E+03  0.7546771E-02  0.1023622E+00
         21   -1    0    0  502  501  0.00000000000E+00  0.00000000000E+00  0.14936567754E+03  0.14936567754E+03  0.00000000000E+00 0.  1.
         21   -1    0    0  501  502 -0.00000000000E+00 -0.00000000000E+00 -0.36037885560E+03  0.36037885560E+03  0.00000000000E+00 0.  1.
      99926    2    1    2    0    0  0.00000000000E+00  0.00000000000E+00 -0.21101317806E+03  0.50974453315E+03  0.46401824076E+03 0.  0.
      99925    2    3    3    0    0 -0.10423326083E+02 -0.35472878512E+02 -0.25882882285E+03  0.37081716067E+03  0.26295633910E+03 0.  0.
         25    1    4    4    0    0 -0.24541521323E+01 -0.39325786725E+01 -0.74434289604E+02  0.14563467859E+03  0.12509000000E+03 0.  0.
         25    1    4    4    0    0 -0.79691739510E+01 -0.31540299840E+02 -0.18439453325E+03  0.22518248209E+03  0.12509000000E+03 0.  0.
         25    1    3    3    0    0  0.10423326083E+02  0.35472878512E+02  0.47815644791E+02  0.13892737248E+03  0.12509000000E+03 0.  0.
<mgrwt>
<rscale>  2 0.46401824E+03</rscale>
<asrwt>0</asrwt>
<pdfrwt beam="1">  1       21 0.21965541E-01 0.46401824E+03</pdfrwt>
<pdfrwt beam="2">  1       21 0.52996890E-01 0.46401824E+03</pdfrwt>
<totfact> 0.60167775E+04</totfact>
</mgrwt>
</event>
<event>
 7    0  0.4831799E-002  0.4553540E+03  0.7546771E-02  0.1026137E+00
         21   -1    0    0  502  501  0.00000000000E+00  0.00000000000E+00  0.23654538193E+03  0.23654538193E+03  0.00000000000E+00 0.  1.
         21   -1    0    0  501  502 -0.00000000000E+00 -0.00000000000E+00 -0.21914114928E+03  0.21914114928E+03  0.00000000000E+00 0.  1.
      99926    2    1    2    0    0  0.00000000000E+00  0.00000000000E+00  0.17404232643E+02  0.45568653121E+03  0.45535404623E+03 0.  0.
      99925    2    3    3    0    0 -0.27771344497E+01  0.59099769309E+02 -0.85783660773E+02  0.28307209191E+03  0.26319285240E+03 0.  0.
         25    1    4    4    0    0 -0.18347431178E+01  0.18932027788E+02 -0.83633377044E+02  0.15167016125E+03  0.12509000000E+03 0.  0.
         25    1    3    3    0    0  0.27771344497E+01 -0.59099769309E+02  0.10318789342E+03  0.17261443930E+03  0.12509000000E+03 0.  0.
         25    1    4    4    0    0 -0.94239133193E+00  0.40167741521E+02 -0.21502837295E+01  0.13140193066E+03  0.12509000000E+03 0.  0.
<mgrwt>
<rscale>  2 0.45535405E+03</rscale>
<asrwt>0</asrwt>
<pdfrwt beam="1">  1       21 0.34786086E-01 0.45535405E+03</pdfrwt>
<pdfrwt beam="2">  1       21 0.32226639E-01 0.45535405E+03</pdfrwt>
<totfact> 0.68302393E+04</totfact>
</mgrwt>
</event>
<event>
 7    0  0.4831799E-002  0.4515150E+03  0.7546771E-02  0.1027271E+00
         21   -1    0    0  502  501  0.00000000000E+00  0.00000000000E+00  0.84749603914E+02  0.84749603914E+02  0.00000000000E+00 0. -1.
         21   -1    0    0  501  502 -0.00000000000E+00 -0.00000000000E+00 -0.60137689106E+03  0.60137689106E+03  0.00000000000E+00 0. -1.
      99926    2    1    2    0    0  0.71054273576E-14  0.14210854715E-13 -0.51662728715E+03  0.68612649498E+03  0.45151502000E+03 0.  0.
      99925    2    3    3    0    0 -0.48628488026E+02 -0.88013777227E+02 -0.25890367880E+03  0.38251470135E+03  0.26301183818E+03 0.  0.
         25    1    4    4    0    0 -0.10873449977E+02 -0.35481915748E+01 -0.10582187521E+03  0.16424554469E+03  0.12509000000E+03 0.  0.
         25    1    4    4    0    0 -0.37755038049E+02 -0.84465585653E+02 -0.15308180359E+03  0.21826915665E+03  0.12509000000E+03 0.  0.
         25    1    3    3    0    0  0.48628488026E+02  0.88013777227E+02 -0.25772360835E+03  0.30361179363E+03  0.12509000000E+03 0.  0.
<mgrwt>
<rscale>  2 0.45151502E+03</rscale>
<asrwt>0</asrwt>
<pdfrwt beam="1">  1       21 0.12463176E-01 0.45151502E+03</pdfrwt>
<pdfrwt beam="2">  1       21 0.88437782E-01 0.45151502E+03</pdfrwt>
<totfact> 0.55160787E+04</totfact>
</mgrwt>
</event>
<event>
 7    0  0.4831799E-002  0.4628641E+03  0.7546771E-02  0.1023954E+00
         21   -1    0    0  502  501  0.00000000000E+00  0.00000000000E+00  0.13180097483E+03  0.13180097483E+03  0.00000000000E+00 0.  1.
         21   -1    0    0  501  502 -0.00000000000E+00 -0.00000000000E+00 -0.40637637616E+03  0.40637637616E+03  0.00000000000E+00 0.  1.
      99926    2    1    2    0    0  0.00000000000E+00  0.00000000000E+00 -0.27457540134E+03  0.53817735099E+03  0.46286413784E+03 0.  0.
      99925    2    3    3    0    0 -0.12666422854E+02 -0.72225406680E+02 -0.28258564445E+03  0.39295813830E+03  0.26302947434E+03 0.  0.
         25    1    4    4    0    0  0.13039294020E+02 -0.28531145995E+01 -0.10800333575E+03  0.16580226803E+03  0.12509000000E+03 0.  0.
         25    1    4    4    0    0 -0.25705716874E+02 -0.69372292081E+02 -0.17458230870E+03  0.22715587027E+03  0.12509000000E+03 0.  0.
         25    1    3    3    0    0  0.12666422854E+02  0.72225406680E+02  0.80102431095E+01  0.14521921268E+03  0.12509000000E+03 0.  0.
<mgrwt>
<rscale>  2 0.46286414E+03</rscale>
<asrwt>0</asrwt>
<pdfrwt beam="1">  1       21 0.19382496E-01 0.46286414E+03</pdfrwt>
<pdfrwt beam="2">  1       21 0.59761232E-01 0.46286414E+03</pdfrwt>
<totfact> 0.58898911E+04</totfact>
</mgrwt>
</event>
<event>
 7    0  0.4831799E-002  0.4564395E+03  0.7546771E-02  0.1025819E+00
         21   -1    0    0  502  501  0.00000000000E+00  0.00000000000E+00  0.38022662655E+02  0.38022662655E+02  0.00000000000E+00 0. -1.
         21   -1    0    0  501  502 -0.00000000000E+00 -0.00000000000E+00 -0.13698211064E+04  0.13698211064E+04  0.00000000000E+00 0. -1.
      99926    2    1    2    0    0 -0.14210854715E-13  0.00000000000E+00 -0.13317984438E+04  0.14078437691E+04  0.45643946292E+03 0.  0.
      99925    2    3    3    0    0  0.99476775813E+02 -0.52681210605E+02 -0.76477683859E+03  0.81637783792E+03  0.26252280384E+03 0.  0.
         25    1    4    4    0    0  0.87961597562E+02 -0.28783621155E+02 -0.46910638238E+03  0.49424087810E+03  0.12509000000E+03 0.  0.
         25    1    4    4    0    0  0.11515178251E+02 -0.23897589450E+02 -0.29567045620E+03  0.32213695982E+03  0.12509000000E+03 0.  0.
         25    1    3    3    0    0 -0.99476775813E+02  0.52681210605E+02 -0.56702160520E+03  0.59146593117E+03  0.12509000000E+03 0.  0.
<mgrwt>
<rscale>  2 0.45643946E+03</rscale>
<asrwt>0</asrwt>
<pdfrwt beam="1">  1       21 0.55915664E-02 0.45643946E+03</pdfrwt>
<pdfrwt beam="2">  1       21 0.20144434E+00 0.45643946E+03</pdfrwt>
<totfact> 0.25833535E+04</totfact>
</mgrwt>
</event>
<event>
 7    0  0.4831799E-002  0.4441675E+03  0.7546771E-02  0.1029476E+00
         21   -1    0    0  502  501  0.00000000000E+00  0.00000000000E+00  0.10104572264E+04  0.10104572264E+04  0.00000000000E+00 0. -1.
         21   -1    0    0  501  502 -0.00000000000E+00 -0.00000000000E+00 -0.48810770320E+02  0.48810770320E+02  0.00000000000E+00 0. -1.
      99926    2    1    2    0    0  0.00000000000E+00  0.00000000000E+00  0.96164645607E+03  0.10592679967E+04  0.44416751613E+03 0.  0.
      99925    2    3    3    0    0 -0.61269582875E+02  0.59544461443E+02  0.47551971989E+03  0.55008608776E+03  0.26301367886E+03 0.  0.
         25    1    3    3    0    0  0.61269582875E+02 -0.59544461443E+02  0.48612673617E+03  0.50918190895E+03  0.12509000000E+03 0.  0.
         25    1    4    4    0    0  0.81911701695E+01  0.19499813820E+02  0.24356809150E+03  0.27462749553E+03  0.12509000000E+03 0.  0.
         25    1    4    4    0    0 -0.69460753044E+02  0.40044647624E+02  0.23195162840E+03  0.27545859223E+03  0.12509000000E+03 0.  0.
<mgrwt>
<rscale>  2 0.44416752E+03</rscale>
<asrwt>0</asrwt>
<pdfrwt beam="1">  1       21 0.14859664E+00 0.44416752E+03</pdfrwt>
<pdfrwt beam="2">  1       21 0.71780551E-02 0.44416752E+03</pdfrwt>
<totfact> 0.40234507E+04</totfact>
</mgrwt>
</event>
<event>
 7    0  0.4831799E-002  0.4507002E+03  0.7546771E-02  0.1027513E+00
         21   -1    0    0  502  501  0.00000000000E+00  0.00000000000E+00  0.25483740507E+04  0.25483740507E+04  0.00000000000E+00 0.  1.
         21   -1    0    0  501  502 -0.00000000000E+00 -0.00000000000E+00 -0.19927473953E+02  0.19927473953E+02  0.00000000000E+00 0.  1.
      99926    2    1    2    0    0  0.00000000000E+00 -0.35527136788E-14  0.25284465767E+04  0.25683015246E+04  0.45070015539E+03 0.  0.
      99925    2    3    3    0    0 -0.94068784151E+02 -0.24289817622E+02  0.18811524549E+04  0.19019111588E+04  0.26285464822E+03 0.  0.
         25    1    4    4    0    0 -0.27035326444E+02 -0.43495382281E+02  0.10229314952E+04  0.10318231967E+04  0.12509000000E+03 0.  0.
         25    1    3    3    0    0  0.94068784151E+02  0.24289817622E+02  0.64729412183E+03  0.66639036581E+03  0.12509000000E+03 0.  0.
         25    1    4    4    0    0 -0.67033457707E+02  0.19205564659E+02  0.85822095969E+03  0.87008796217E+03  0.12509000000E+03 0.  0.
<mgrwt>
<rscale>  2 0.45070016E+03</rscale>
<asrwt>0</asrwt>
<pdfrwt beam="1">  1       21 0.37476066E+00 0.45070016E+03</pdfrwt>
<pdfrwt beam="2">  1       21 0.29305126E-02 0.45070016E+03</pdfrwt>
<totfact> 0.66785497E+03</totfact>
</mgrwt>
</event>
<event>
 7    0  0.4831799E-002  0.4438894E+03  0.7546771E-02  0.1029560E+00
         21   -1    0    0  502  501  0.00000000000E+00  0.00000000000E+00  0.13846514936E+03  0.13846514936E+03  0.00000000000E+00 0. -1.
         21   -1    0    0  501  502 -0.00000000000E+00 -0.00000000000E+00 -0.35575334439E+03  0.35575334439E+03  0.00000000000E+00 0. -1.
      99926    2    1    2    0    0  0.14210854715E-13 -0.10269562978E-14 -0.21728819503E+03  0.49421849375E+03  0.44388935544E+03 0.  0.
      99925    2    3    3    0    0  0.10020610283E+03 -0.15639815404E+00 -0.11469483540E+03  0.30391822301E+03  0.26300207890E+03 0.  0.
         25    1    4    4    0    0  0.88999410925E+02 -0.17980238840E+02 -0.65063208912E+02  0.16770484008E+03  0.12509000000E+03 0.  0.
         25    1    4    4    0    0  0.11206691904E+02  0.17823840686E+02 -0.49631626485E+02  0.13621338292E+03  0.12509000000E+03 0.  0.
         25    1    3    3    0    0 -0.10020610283E+03  0.15639815404E+00 -0.10259335963E+03  0.19030027074E+03  0.12509000000E+03 0.  0.
<mgrwt>
<rscale>  2 0.44388936E+03</rscale>
<asrwt>0</asrwt>
<pdfrwt beam="1">  1       21 0.20362522E-01 0.44388936E+03</pdfrwt>
<pdfrwt beam="2">  1       21 0.52316668E-01 0.44388936E+03</pdfrwt>
<totfact> 0.71805799E+04</totfact>
</mgrwt>
</event>
<event>
 7    0  0.4831799E-002  0.4536872E+03  0.7546771E-02  0.1026628E+00
         21   -1    0    0  502  501  0.00000000000E+00  0.00000000000E+00  0.11308562034E+03  0.11308562034E+03  0.00000000000E+00 0.  1.
         21   -1    0    0  501  502 -0.00000000000E+00 -0.00000000000E+00 -0.45503587891E+03  0.45503587891E+03  0.00000000000E+00 0.  1.
      99926    2    1    2    0    0  0.13322676296E-14  0.00000000000E+00 -0.34195025858E+03  0.56812149925E+03  0.45368718140E+03 0.  0.
      99925    2    3    3    0    0 -0.15218614598E+01 -0.63814936990E+02 -0.33056146616E+03  0.42722481746E+03  0.26301235618E+03 0.  0.
         25    1    3    3    0    0  0.15218614598E+01  0.63814936990E+02 -0.11388792422E+02  0.14089668179E+03  0.12509000000E+03 0.  0.
         25    1    4    4    0    0  0.11704164998E+02  0.77224363723E+01 -0.14902392216E+03  0.19506988742E+03  0.12509000000E+03 0.  0.
         25    1    4    4    0    0 -0.13226026457E+02 -0.71537373362E+02 -0.18153754400E+03  0.23215493004E+03  0.12509000000E+03 0.  0.
<mgrwt>
<rscale>  2 0.45368718E+03</rscale>
<asrwt>0</asrwt>
<pdfrwt beam="1">  1       21 0.16630238E-01 0.45368718E+03</pdfrwt>
<pdfrwt beam="2">  1       21 0.66917042E-01 0.45368718E+03</pdfrwt>
<totfact> 0.61318811E+04</totfact>
</mgrwt>
</event>
<event>
 7    0  0.4831799E-002  0.4526656E+03  0.7546771E-02  0.1026930E+00
         21   -1    0    0  502  501  0.00000000000E+00  0.00000000000E+00  0.10062075825E+03  0.10062075825E+03  0.00000000000E+00 0.  1.
         21   -1    0    0  501  502 -0.00000000000E+00 -0.00000000000E+00 -0.50910502458E+03  0.50910502458E+03  0.00000000000E+00 0.  1.
      99926    2    1    2    0    0 -0.35527136788E-14  0.00000000000E+00 -0.40848426633E+03  0.60972578284E+03  0.45266558784E+03 0.  0.
      99925    2    3    3    0    0 -0.20269077729E+02  0.10574945888E+03 -0.29385962099E+03  0.40877777716E+03  0.26296769895E+03 0.  0.
         25    1    3    3    0    0  0.20269077729E+02 -0.10574945888E+03 -0.11462464534E+03  0.20094800567E+03  0.12509000000E+03 0.  0.
         25    1    4    4    0    0 -0.19935308042E+02  0.20551113171E+02 -0.99162807550E+02  0.16217439767E+03  0.12509000000E+03 0.  0.
         25    1    4    4    0    0 -0.33376968779E+00  0.85198345705E+02 -0.19469681344E+03  0.24660337949E+03  0.12509000000E+03 0.  0.
<mgrwt>
<rscale>  2 0.45266559E+03</rscale>
<asrwt>0</asrwt>
<pdfrwt beam="1">  1       21 0.14797170E-01 0.45266559E+03</pdfrwt>
<pdfrwt beam="2">  1       21 0.74868385E-01 0.45266559E+03</pdfrwt>
<totfact> 0.59167053E+04</totfact>
</mgrwt>
</event>
<event>
 7    0  0.4831799E-002  0.4676749E+03  0.7546771E-02  0.1022579E+00
         21   -1    0    0  502  501  0.00000000000E+00  0.00000000000E+00  0.32267554534E+02  0.32267554534E+02  0.00000000000E+00 0.  1.
         21   -1    0    0  501  502 -0.00000000000E+00 -0.00000000000E+00 -0.16945801530E+04  0.16945801530E+04  0.00000000000E+00 0.  1.
      99926    2    1    2    0    0 -0.71054273576E-14 -0.35527136788E-14 -0.16623125985E+04  0.17268477076E+04  0.46767491915E+03 0.  0.
      99925    2    3    3    0    0  0.63488240866E+02  0.24252803321E+02 -0.64874343232E+03  0.70332979472E+03  0.26303194475E+03 0.  0.
         25    1    4    4    0    0  0.13407122889E+02  0.32088739228E+01 -0.22037696726E+03  0.25377857202E+03  0.12509000000E+03 0.  0.
         25    1    4    4    0    0  0.50081117977E+02  0.21043929398E+02 -0.42836646506E+03  0.44955122270E+03  0.12509000000E+03 0.  0.
         25    1    3    3    0    0 -0.63488240866E+02 -0.24252803321E+02 -0.10135691662E+04  0.10235179128E+04  0.12509000000E+03 0.  0.
<mgrwt>
<rscale>  2 0.46767492E+03</rscale>
<asrwt>0</asrwt>
<pdfrwt beam="1">  1       21 0.47452280E-02 0.46767492E+03</pdfrwt>
<pdfrwt beam="2">  1       21 0.24920299E+00 0.46767492E+03</pdfrwt>
<totfact> 0.16975506E+04</totfact>
</mgrwt>
</event>
<event>
 7    0  0.4831799E-002  0.4467085E+03  0.7546771E-02  0.1028708E+00
         21   -1    0    0  502  501  0.00000000000E+00  0.00000000000E+00  0.51037571629E+03  0.51037571629E+03  0.00000000000E+00 0.  1.
         21   -1    0    0  501  502 -0.00000000000E+00 -0.00000000000E+00 -0.97745855629E+02  0.97745855629E+02  0.00000000000E+00 0.  1.
      99926    2    1    2    0    0  0.14210854715E-13  0.71054273576E-14  0.41262986066E+03  0.60812157192E+03  0.44670845562E+03 0.  0.
      99925    2    3    3    0    0 -0.88707127280E+02 -0.51081017966E+02  0.29439192075E+03  0.40785688866E+03  0.26306351666E+03 0.  0.
         25    1    3    3    0    0  0.88707127280E+02  0.51081017966E+02  0.11823793992E+03  0.20026468326E+03  0.12509000000E+03 0.  0.
         25    1    4    4    0    0 -0.12458422700E+02 -0.30808956916E+02  0.99774766341E+02  0.16342250831E+03  0.12509000000E+03 0.  0.
         25    1    4    4    0    0 -0.76248704580E+02 -0.20272061050E+02  0.19461715441E+03  0.24443438035E+03  0.12509000000E+03 0.  0.
<mgrwt>
<rscale>  2 0.44670846E+03</rscale>
<asrwt>0</asrwt>
<pdfrwt beam="1">  1       21 0.75055251E-01 0.44670846E+03</pdfrwt>
<pdfrwt beam="2">  1       21 0.14374391E-01 0.44670846E+03</pdfrwt>
<totfact> 0.62152900E+04</totfact>
</mgrwt>
</event>
<event>
 6    0  0.4831799E-002  0.4527858E+03  0.7546771E-02  0.1026895E+00
         21   -1    0    0  502  501  0.00000000000E+00  0.00000000000E+00  0.37145431607E+03  0.37145431607E+03  0.00000000000E+00 0.  1.
         21   -1    0    0  501  502 -0.00000000000E+00 -0.00000000000E+00 -0.13798130036E+03  0.13798130036E+03  0.00000000000E+00 0.  1.
      99926    2    1    2    0    0  0.17763568394E-14  0.00000000000E+00  0.23347301571E+03  0.50943561644E+03  0.45278581938E+03 0.  0.
         25    1    3    3    0    0 -0.14534868983E+02 -0.10182931286E+03  0.11589130247E+03  0.19914510655E+03  0.12509000000E+03 0.  0.
         25    1    3    3    0    0  0.45950324035E+02  0.65285263740E+02  0.33752056063E+02  0.15218510876E+03  0.12509000000E+03 0.  0.
         25    1    3    3    0    0 -0.31415455052E+02  0.36544049121E+02  0.83829657173E+02  0.15810540112E+03  0.12509000000E+03 0.  0.
<mgrwt>
<rscale>  2 0.45278582E+03</rscale>
<asrwt>0</asrwt>
<pdfrwt beam="1">  1       21 0.54625634E-01 0.45278582E+03</pdfrwt>
<pdfrwt beam="2">  1       21 0.20291368E-01 0.45278582E+03</pdfrwt>
<totfact> 0.65760708E+04</totfact>
</mgrwt>
</event>
<event>
 7    0  0.4831799E-002  0.4655862E+03  0.7546771E-02  0.1023173E+00
         21   -1    0    0  502  501  0.00000000000E+00  0.00000000000E+00  0.97783353499E+02  0.97783353499E+02  0.00000000000E+00 0. -1.
         21   -1    0    0  501  502 -0.00000000000E+00 -0.00000000000E+00 -0.55421114796E+03  0.55421114796E+03  0.00000000000E+00 0. -1.
      99926    2    1    2    0    0  0.00000000000E+00  0.71054273576E-14 -0.45642779446E+03  0.65199450146E+03  0.46558618792E+03 0.  0.
      99925    2    3    3    0    0  0.59414902817E+02 -0.43217217635E+02 -0.14672884770E+03  0.31000209759E+03  0.26300967128E+03 0.  0.
         25    1    4    4    0    0  0.51570611494E+02 -0.56195175642E+02 -0.88787123458E+02  0.17131283410E+03  0.12509000000E+03 0.  0.
         25    1    3    3    0    0 -0.59414902817E+02  0.43217217635E+02 -0.30969894676E+03  0.34199240387E+03  0.12509000000E+03 0.  0.
         25    1    4    4    0    0  0.78442913230E+01  0.12977958008E+02 -0.57941724240E+02  0.13868926349E+03  0.12509000000E+03 0.  0.
<mgrwt>
<rscale>  2 0.46558619E+03</rscale>
<asrwt>0</asrwt>
<pdfrwt beam="1">  1       21 0.14379905E-01 0.46558619E+03</pdfrwt>
<pdfrwt beam="2">  1       21 0.81501638E-01 0.46558619E+03</pdfrwt>
<totfact> 0.51176832E+04</totfact>
</mgrwt>
</event>
<event>
 7    0  0.4831799E-002  0.4557732E+03  0.7546771E-02  0.1026014E+00
         21   -1    0    0  502  501  0.00000000000E+00  0.00000000000E+00  0.16084099857E+03  0.16084099857E+03  0.00000000000E+00 0.  1.
         21   -1    0    0  501  502 -0.00000000000E+00 -0.00000000000E+00 -0.32287981066E+03  0.32287981066E+03  0.00000000000E+00 0.  1.
      99926    2    1    2    0    0  0.00000000000E+00  0.00000000000E+00 -0.16203881209E+03  0.48372080923E+03  0.45577323820E+03 0.  0.
      99925    2    3    3    0    0  0.73132446858E+02  0.86123261000E+02 -0.11632662368E+03  0.30907063563E+03  0.26311062990E+03 0.  0.
         25    1    4    4    0    0  0.14949912557E+02  0.55517629871E+02 -0.22633427576E+02  0.13951877026E+03  0.12509000000E+03 0.  0.
         25    1    3    3    0    0 -0.73132446858E+02 -0.86123261000E+02 -0.45712188411E+02  0.17465017360E+03  0.12509000000E+03 0.  0.
         25    1    4    4    0    0  0.58182534302E+02  0.30605631129E+02 -0.93693196101E+02  0.16955186537E+03  0.12509000000E+03 0.  0.
<mgrwt>
<rscale>  2 0.45577324E+03</rscale>
<asrwt>0</asrwt>
<pdfrwt beam="1">  1       21 0.23653088E-01 0.45577324E+03</pdfrwt>
<pdfrwt beam="2">  1       21 0.47482325E-01 0.45577324E+03</pdfrwt>
<totfact> 0.66024047E+04</totfact>
</mgrwt>
</event>
<event>
 7    0  0.4831799E-002  0.4522415E+03  0.7546771E-02  0.1027056E+00
         21   -1    0    0  502  501  0.00000000000E+00  0.00000000000E+00  0.13426977455E+03  0.13426977455E+03  0.00000000000E+00 0. -1.
         21   -1    0    0  501  502 -0.00000000000E+00 -0.00000000000E+00 -0.38080498065E+03  0.38080498065E+03  0.00000000000E+00 0. -1.
      99926    2    1    2    0    0  0.00000000000E+00  0.00000000000E+00 -0.24653520610E+03  0.51507475520E+03  0.45224152352E+03 0.  0.
      99925    2    3    3    0    0 -0.80208824037E+02  0.50761695160E+02 -0.90706285674E+02  0.29385006017E+03  0.26288785147E+03 0.  0.
         25    1    4    4    0    0 -0.85988559362E+01  0.20673400844E+02 -0.70217909353E+02  0.14518743995E+03  0.12509000000E+03 0.  0.
         25    1    4    4    0    0 -0.71609968101E+02  0.30088294316E+02 -0.20488376321E+02  0.14866262022E+03  0.12509000000E+03 0.  0.
         25    1    3    3    0    0  0.80208824037E+02 -0.50761695160E+02 -0.15582892043E+03  0.22122469503E+03  0.12509000000E+03 0.  0.
<mgrwt>
<rscale>  2 0.45224152E+03</rscale>
<asrwt>0</asrwt>
<pdfrwt beam="1">  1       21 0.19745555E-01 0.45224152E+03</pdfrwt>
<pdfrwt beam="2">  1       21 0.56000731E-01 0.45224152E+03</pdfrwt>
<totfact> 0.65649249E+04</totfact>
</mgrwt>
</event>
<event>
 7    0  0.4831799E-002  0.4222812E+03  0.7546771E-02  0.1036326E+00
         21   -1    0    0  502  501  0.00000000000E+00  0.00000000000E+00  0.10505540766E+04  0.10505540766E+04  0.00000000000E+00 0.  1.
         21   -1    0    0  501  502 -0.00000000000E+00 -0.00000000000E+00 -0.42435087113E+02  0.42435087113E+02  0.00000000000E+00 0.  1.
      99926    2    1    2    0    0  0.00000000000E+00  0.00000000000E+00  0.10081189895E+04  0.10929891638E+04  0.42228120375E+03 0.  0.
      99925    2    3    3    0    0  0.73591089898E+02 -0.26972073561E+02  0.63737699079E+03  0.69393994500E+03  0.26298303673E+03 0.  0.
         25    1    4    4    0    0  0.73856427388E+02  0.33018294624E+01  0.31903822696E+03  0.35056892661E+03  0.12509000000E+03 0.  0.
         25    1    4    4    0    0 -0.26533748988E+00 -0.30273903023E+02  0.31833876383E+03  0.34337101838E+03  0.12509000000E+03 0.  0.
         25    1    3    3    0    0 -0.73591089898E+02  0.26972073561E+02  0.37074199874E+03  0.39904921876E+03  0.12509000000E+03 0.  0.
<mgrwt>
<rscale>  2 0.42228120E+03</rscale>
<asrwt>0</asrwt>
<pdfrwt beam="1">  1       21 0.15449323E+00 0.42228120E+03</pdfrwt>
<pdfrwt beam="2">  1       21 0.62404547E-02 0.42228120E+03</pdfrwt>
<totfact> 0.46527782E+04</totfact>
</mgrwt>
</event>
<event>
 7    0  0.4831799E-002  0.4512314E+03  0.7546771E-02  0.1027355E+00
         21   -1    0    0  502  501  0.00000000000E+00  0.00000000000E+00  0.78981662443E+03  0.78981662443E+03  0.00000000000E+00 0. -1.
         21   -1    0    0  501  502 -0.00000000000E+00 -0.00000000000E+00 -0.64448419235E+02  0.64448419235E+02  0.00000000000E+00 0. -1.
      99926    2    1    2    0    0  0.00000000000E+00  0.00000000000E+00  0.72536820519E+03  0.85426504366E+03  0.45123135055E+03 0.  0.
      99925    2    3    3    0    0 -0.81809857506E+02 -0.72766050693E+02  0.45212998859E+03  0.53443011432E+03  0.26307084518E+03 0.  0.
         25    1    4    4    0    0 -0.37247415950E+02  0.47824525353E+01  0.19096668805E+03  0.23135692316E+03  0.12509000000E+03 0.  0.
         25    1    3    3    0    0  0.81809857506E+02  0.72766050693E+02  0.27323821660E+03  0.31983492934E+03  0.12509000000E+03 0.  0.
         25    1    4    4    0    0 -0.44562441556E+02 -0.77548503229E+02  0.26116330054E+03  0.30307319116E+03  0.12509000000E+03 0.  0.
<mgrwt>
<rscale>  2 0.45123135E+03</rscale>
<asrwt>0</asrwt>
<pdfrwt beam="1">  1       21 0.11614950E+00 0.45123135E+03</pdfrwt>
<pdfrwt beam="2">  1       21 0.94777092E-02 0.45123135E+03</pdfrwt>
<totfact> 0.46611896E+04</totfact>
</mgrwt>
</event>
<event>
 7    0  0.4831799E-002  0.4535097E+03  0.7546771E-02  0.1026681E+00
         21   -1    0    0  502  501  0.00000000000E+00  0.00000000000E+00  0.84542464614E+02  0.84542464614E+02  0.00000000000E+00 0.  1.
         21   -1    0    0  501  502 -0.00000000000E+00 -0.00000000000E+00 -0.60818858883E+03  0.60818858883E+03  0.00000000000E+00 0.  1.
      99926    2    1    2    0    0  0.14210854715E-13 -0.44408920985E-15 -0.52364612422E+03  0.69273105345E+03  0.45350970111E+03 0.  0.
      99925    2    3    3    0    0  0.10904932410E+03  0.39588307525E+01 -0.29285408044E+03  0.40844263828E+03  0.26297233487E+03 0.  0.
         25    1    3    3    0    0 -0.10904932410E+03 -0.39588307525E+01 -0.23079204377E+03  0.28428841516E+03  0.12509000000E+03 0.  0.
         25    1    4    4    0    0  0.30702121988E+02 -0.89407912725E+01 -0.18315783588E+03  0.22409118453E+03  0.12509000000E+03 0.  0.
         25    1    4    4    0    0  0.78347202109E+02  0.12899622025E+02 -0.10969624457E+03  0.18435145375E+03  0.12509000000E+03 0.  0.
<mgrwt>
<rscale>  2 0.45350970E+03</rscale>
<asrwt>0</asrwt>
<pdfrwt beam="1">  1       21 0.12432716E-01 0.45350970E+03</pdfrwt>
<pdfrwt beam="2">  1       21 0.89439495E-01 0.45350970E+03</pdfrwt>
<totfact> 0.53929299E+04</totfact>
</mgrwt>
</event>
<event>
 7    0  0.4831799E-002  0.4512941E+03  0.7546771E-02  0.1027337E+00
         21   -1    0    0  502  501  0.00000000000E+00  0.00000000000E+00  0.54004560961E+02  0.54004560961E+02  0.00000000000E+00 0. -1.
         21   -1    0    0  501  502 -0.00000000000E+00 -0.00000000000E+00 -0.94282033203E+03  0.94282033203E+03  0.00000000000E+00 0. -1.
      99926    2    1    2    0    0  0.14210854715E-13  0.88817841970E-15 -0.88881577107E+03  0.99682489299E+03  0.45129413068E+03 0.  0.
      99925    2    3    3    0    0  0.87414467189E+02 -0.53565374779E+01 -0.41554743331E+03  0.49953181121E+03  0.26302543509E+03 0.  0.
         25    1    4    4    0    0  0.43832278222E+02 -0.25161733349E+02 -0.14756993810E+03  0.19994693338E+03  0.12509000000E+03 0.  0.
         25    1    4    4    0    0  0.43582188967E+02  0.19805195871E+02 -0.26797749521E+03  0.29958487782E+03  0.12509000000E+03 0.  0.
         25    1    3    3    0    0 -0.87414467189E+02  0.53565374779E+01 -0.47326833776E+03  0.49729308179E+03  0.12509000000E+03 0.  0.
<mgrwt>
<rscale>  2 0.45129413E+03</rscale>
<asrwt>0</asrwt>
<pdfrwt beam="1">  1       21 0.79418477E-02 0.45129413E+03</pdfrwt>
<pdfrwt beam="2">  1       21 0.13865004E+00 0.45129413E+03</pdfrwt>
<totfact> 0.40448606E+04</totfact>
</mgrwt>
</event>
<event>
 7    0  0.4831799E-002  0.4485866E+03  0.7546771E-02  0.1028144E+00
         21   -1    0    0  502  501  0.00000000000E+00  0.00000000000E+00  0.33557364779E+02  0.33557364779E+02  0.00000000000E+00 0. -1.
         21   -1    0    0  501  502 -0.00000000000E+00 -0.00000000000E+00 -0.14991485316E+04  0.14991485316E+04  0.00000000000E+00 0. -1.
      99926    2    1    2    0    0 -0.14210854715E-13  0.00000000000E+00 -0.14655911668E+04  0.15327058964E+04  0.44858655412E+03 0.  0.
      99925    2    3    3    0    0 -0.91660048357E+02  0.46093778317E+02 -0.10321272939E+04  0.10700346977E+04  0.26298536574E+03 0.  0.
         25    1    4    4    0    0 -0.66152595817E+02  0.67023399148E+01 -0.64898131802E+03  0.66426301006E+03  0.12509000000E+03 0.  0.
         25    1    3    3    0    0  0.91660048357E+02 -0.46093778317E+02 -0.43346387292E+03  0.46267119868E+03  0.12509000000E+03 0.  0.
         25    1    4    4    0    0 -0.25507452540E+02  0.39391438402E+02 -0.38314597589E+03  0.40577168764E+03  0.12509000000E+03 0.  0.
<mgrwt>
<rscale>  2 0.44858655E+03</rscale>
<asrwt>0</asrwt>
<pdfrwt beam="1">  1       21 0.49349062E-02 0.44858655E+03</pdfrwt>
<pdfrwt beam="2">  1       21 0.22046304E+00 0.44858655E+03</pdfrwt>
<totfact> 0.24170566E+04</totfact>
</mgrwt>
</event>
<event>
 7    0  0.4831799E-002  0.4265295E+03  0.7546771E-02  0.1034962E+00
         21   -1    0    0  502  501  0.00000000000E+00  0.00000000000E+00  0.85754604815E+03  0.85754604815E+03  0.00000000000E+00 0.  1.
         21   -1    0    0  501  502 -0.00000000000E+00 -0.00000000000E+00 -0.53037222840E+02  0.53037222840E+02  0.00000000000E+00 0.  1.
      99926    2    1    2    0    0  0.00000000000E+00 -0.17763568394E-14  0.80450882531E+03  0.91058327099E+03  0.42652953404E+03 0.  0.
      99925    2    3    3    0    0 -0.78577358795E+02  0.95839532811E+01  0.46250297997E+03  0.53791483951E+03  0.26301542656E+03 0.  0.
         25    1    3    3    0    0  0.78577358795E+02 -0.95839532811E+01  0.34200584535E+03  0.37266843149E+03  0.12509000000E+03 0.  0.
         25    1    4    4    0    0 -0.63462035464E+02 -0.27324796845E+02  0.22527929617E+03  0.26678145335E+03  0.12509000000E+03 0.  0.
         25    1    4    4    0    0 -0.15115323331E+02  0.36908750126E+02  0.23722368379E+03  0.27113338616E+03  0.12509000000E+03 0.  0.
<mgrwt>
<rscale>  2 0.42652953E+03</rscale>
<asrwt>0</asrwt>
<pdfrwt beam="1">  1       21 0.12610970E+00 0.42652953E+03</pdfrwt>
<pdfrwt beam="2">  1       21 0.77995921E-02 0.42652953E+03</pdfrwt>
<totfact> 0.53799488E+04</totfact>
</mgrwt>
</event>
<event>
 7    0  0.4831799E-002  0.4587030E+03  0.7546771E-02  0.1025158E+00
         21   -1    0    0  502  501  0.00000000000E+00  0.00000000000E+00  0.90617045642E+03  0.90617045642E+03  0.00000000000E+00 0. -1.
         21   -1    0    0  501  502 -0.00000000000E+00 -0.00000000000E+00 -0.58048802945E+02  0.58048802945E+02  0.00000000000E+00 0. -1.
      99926    2    1    2    0    0  0.00000000000E+00  0.00000000000E+00  0.84812165348E+03  0.96421925937E+03  0.45870299872E+03 0.  0.
      99925    2    3    3    0    0 -0.21990052056E+02  0.25733916253E+02  0.29771766931E+03  0.39876559131E+03  0.26312048449E+03 0.  0.
         25    1    4    4    0    0 -0.39032772505E+02  0.17020160485E+02  0.10771919236E+03  0.17048218586E+03  0.12509000000E+03 0.  0.
         25    1    4    4    0    0  0.17042720449E+02  0.87137557681E+01  0.18999847696E+03  0.22828340545E+03  0.12509000000E+03 0.  0.
         25    1    3    3    0    0  0.21990052056E+02 -0.25733916253E+02  0.55040398417E+03  0.56545366806E+03  0.12509000000E+03 0.  0.
<mgrwt>
<rscale>  2 0.45870300E+03</rscale>
<asrwt>0</asrwt>
<pdfrwt beam="1">  1       21 0.13326035E+00 0.45870300E+03</pdfrwt>
<pdfrwt beam="2">  1       21 0.85365892E-02 0.45870300E+03</pdfrwt>
<totfact> 0.39416728E+04</totfact>
</mgrwt>
</event>
<event>
 7    0  0.4831799E-002  0.4537226E+03  0.7546771E-02  0.1026618E+00
         21   -1    0    0  502  501  0.00000000000E+00  0.00000000000E+00  0.22411164643E+03  0.22411164643E+03  0.00000000000E+00 0. -1.
         21   -1    0    0  501  502 -0.00000000000E+00 -0.00000000000E+00 -0.22964470287E+03  0.22964470287E+03  0.00000000000E+00 0. -1.
      99926    2    1    2    0    0  0.00000000000E+00  0.14210854715E-13 -0.55330564348E+01  0.45375634930E+03  0.45372261329E+03 0.  0.
      99925    2    3    3    0    0  0.20533462835E+02 -0.10504717945E+03 -0.36466111153E+02  0.28624248426E+03  0.26296092775E+03 0.  0.
         25    1    3    3    0    0 -0.20533462835E+02  0.10504717945E+03  0.30933054718E+02  0.16751386504E+03  0.12509000000E+03 0.  0.
         25    1    4    4    0    0 -0.55876135721E+00 -0.37732417492E+02 -0.54374385249E+02  0.14152077379E+03  0.12509000000E+03 0.  0.
         25    1    4    4    0    0  0.21092224192E+02 -0.67314761957E+02  0.17908274096E+02  0.14472171046E+03  0.12509000000E+03 0.  0.
<mgrwt>
<rscale>  2 0.45372261E+03</rscale>
<asrwt>0</asrwt>
<pdfrwt beam="1">  1       21 0.32957595E-01 0.45372261E+03</pdfrwt>
<pdfrwt beam="2">  1       21 0.33771280E-01 0.45372261E+03</pdfrwt>
<totfact> 0.69341045E+04</totfact>
</mgrwt>
</event>
<event>
 7    0  0.4831799E-002  0.4484038E+03  0.7546771E-02  0.1028199E+00
         21   -1    0    0  502  501  0.00000000000E+00  0.00000000000E+00  0.33251453566E+03  0.33251453566E+03  0.00000000000E+00 0. -1.
         21   -1    0    0  501  502 -0.00000000000E+00 -0.00000000000E+00 -0.15117084227E+03  0.15117084227E+03  0.00000000000E+00 0. -1.
      99926    2    1    2    0    0 -0.14210854715E-13 -0.35527136788E-14  0.18134369339E+03  0.48368537794E+03  0.44840384666E+03 0.  0.
      99925    2    3    3    0    0  0.99592696286E+02 -0.19649661205E+02  0.15150689756E+03  0.31984839547E+03  0.26276194880E+03 0.  0.
         25    1    3    3    0    0 -0.99592696286E+02  0.19649661205E+02  0.29836795837E+02  0.16383698247E+03  0.12509000000E+03 0.  0.
         25    1    4    4    0    0  0.19213577380E+02  0.18082924676E+02  0.59942331999E+02  0.14119753888E+03  0.12509000000E+03 0.  0.
         25    1    4    4    0    0  0.80379118906E+02 -0.37732585881E+02  0.91564565556E+02  0.17865085659E+03  0.12509000000E+03 0.  0.
<mgrwt>
<rscale>  2 0.44840385E+03</rscale>
<asrwt>0</asrwt>
<pdfrwt beam="1">  1       21 0.48899197E-01 0.44840385E+03</pdfrwt>
<pdfrwt beam="2">  1       21 0.22231006E-01 0.44840385E+03</pdfrwt>
<totfact> 0.70028557E+04</totfact>
</mgrwt>
</event>
<event>
 7    0  0.4831799E-002  0.4197613E+03  0.7546771E-02  0.1037144E+00
         21   -1    0    0  502  501  0.00000000000E+00  0.00000000000E+00  0.13139509466E+03  0.13139509466E+03  0.00000000000E+00 0. -1.
         21   -1    0    0  501  502 -0.00000000000E+00 -0.00000000000E+00 -0.33524754737E+03  0.33524754737E+03  0.00000000000E+00 0. -1.
      99926    2    1    2    0    0  0.00000000000E+00  0.00000000000E+00 -0.20385245271E+03  0.46664264202E+03  0.41976128082E+03 0.  0.
      99925    2    3    3    0    0 -0.10611400013E+02  0.70663376035E+02 -0.16011236457E+03  0.31608827333E+03  0.26300173521E+03 0.  0.
         25    1    3    3    0    0  0.10611400013E+02 -0.70663376035E+02 -0.43740088142E+02  0.15055436870E+03  0.12509000000E+03 0.  0.
         25    1    4    4    0    0  0.15935846882E+02  0.46506117740E+02 -0.43277839000E+02  0.14119932596E+03  0.12509000000E+03 0.  0.
         25    1    4    4    0    0 -0.26547246895E+02  0.24157258295E+02 -0.11683452557E+03  0.17488894737E+03  0.12509000000E+03 0.  0.
<mgrwt>
<rscale>  2 0.41976128E+03</rscale>
<asrwt>0</asrwt>
<pdfrwt beam="1">  1       21 0.19322808E-01 0.41976128E+03</pdfrwt>
<pdfrwt beam="2">  1       21 0.49301110E-01 0.41976128E+03</pdfrwt>
<totfact> 0.90462849E+04</totfact>
</mgrwt>
</event>
<event>
 7    0  0.4831799E-002  0.4711971E+03  0.7546771E-02  0.1021583E+00
         21   -1    0    0  502  501  0.00000000000E+00  0.00000000000E+00  0.12793371338E+03  0.12793371338E+03  0.00000000000E+00 0. -1.
         21   -1    0    0  501  502 -0.00000000000E+00 -0.00000000000E+00 -0.43387053267E+03  0.43387053267E+03  0.00000000000E+00 0. -1.
      99926    2    1    2    0    0  0.00000000000E+00 -0.14210854715E-13 -0.30593681929E+03  0.56180424606E+03  0.47119706439E+03 0.  0.
      99925    2    3    3    0    0 -0.98703052955E+02  0.76118588002E+02 -0.22328294124E+03  0.36682859692E+03  0.26300497251E+03 0.  0.
         25    1    4    4    0    0 -0.10529516723E+02  0.15840951779E+02 -0.99817090716E+02  0.16116068433E+03  0.12509000000E+03 0.  0.
         25    1    3    3    0    0  0.98703052955E+02 -0.76118588002E+02 -0.82653878049E+02  0.19497564914E+03  0.12509000000E+03 0.  0.
         25    1    4    4    0    0 -0.88173536232E+02  0.60277636223E+02 -0.12346585053E+03  0.20566791258E+03  0.12509000000E+03 0.  0.
<mgrwt>
<rscale>  2 0.47119706E+03</rscale>
<asrwt>0</asrwt>
<pdfrwt beam="1">  1       21 0.18813781E-01 0.47119706E+03</pdfrwt>
<pdfrwt beam="2">  1       21 0.63804490E-01 0.47119706E+03</pdfrwt>
<totfact> 0.53854251E+04</totfact>
</mgrwt>
</event>
<event>
 7    0  0.4831799E-002  0.4581157E+03  0.7546771E-02  0.1025329E+00
         21   -1    0    0  502  501  0.00000000000E+00  0.00000000000E+00  0.10340602063E+03  0.10340602063E+03  0.00000000000E+00 0.  1.
         21   -1    0    0  501  502 -0.00000000000E+00 -0.00000000000E+00 -0.50739300049E+03  0.50739300049E+03  0.00000000000E+00 0.  1.
      99926    2    1    2    0    0  0.00000000000E+00  0.00000000000E+00 -0.40398697985E+03  0.61079902112E+03  0.45811566695E+03 0.  0.
      99925    2    3    3    0    0  0.53384098766E+02  0.23051957524E+02 -0.38740127221E+03  0.47186073070E+03  0.26304286479E+03 0.  0.
         25    1    4    4    0    0  0.25206962637E+02 -0.22144533920E+02 -0.14901775185E+03  0.19743244367E+03  0.12509000000E+03 0.  0.
         25    1    4    4    0    0  0.28177136129E+02  0.45196491444E+02 -0.23838352037E+03  0.27442828703E+03  0.12509000000E+03 0.  0.
         25    1    3    3    0    0 -0.53384098766E+02 -0.23051957524E+02 -0.16585707643E+02  0.13893829042E+03  0.12509000000E+03 0.  0.
<mgrwt>
<rscale>  2 0.45811567E+03</rscale>
<asrwt>0</asrwt>
<pdfrwt beam="1">  1       21 0.15206768E-01 0.45811567E+03</pdfrwt>
<pdfrwt beam="2">  1       21 0.74616618E-01 0.45811567E+03</pdfrwt>
<totfact> 0.56612277E+04</totfact>
</mgrwt>
</event>
<event>
 7    0  0.4831799E-002  0.4592767E+03  0.7546771E-02  0.1024991E+00
         21   -1    0    0  502  501  0.00000000000E+00  0.00000000000E+00  0.62369113324E+03  0.62369113324E+03  0.00000000000E+00 0. -1.
         21   -1    0    0  501  502 -0.00000000000E+00 -0.00000000000E+00 -0.84551110580E+02  0.84551110580E+02  0.00000000000E+00 0. -1.
      99926    2    1    2    0    0  0.00000000000E+00  0.00000000000E+00  0.53914002266E+03  0.70824224382E+03  0.45927672693E+03 0.  0.
      99925    2    3    3    0    0 -0.84709337797E+02 -0.80678678434E+02  0.33147203839E+03  0.43906159656E+03  0.26309057809E+03 0.  0.
         25    1    3    3    0    0  0.84709337797E+02  0.80678678434E+02  0.20766798427E+03  0.26918064725E+03  0.12509000000E+03 0.  0.
         25    1    4    4    0    0 -0.24889065079E+02 -0.63186722300E+02  0.21115466885E+03  0.25464844338E+03  0.12509000000E+03 0.  0.
         25    1    4    4    0    0 -0.59820272718E+02 -0.17491956133E+02  0.12031736953E+03  0.18441315319E+03  0.12509000000E+03 0.  0.
<mgrwt>
<rscale>  2 0.45927673E+03</rscale>
<asrwt>0</asrwt>
<pdfrwt beam="1">  1       21 0.91719282E-01 0.45927673E+03</pdfrwt>
<pdfrwt beam="2">  1       21 0.12433987E-01 0.45927673E+03</pdfrwt>
<totfact> 0.50729047E+04</totfact>
</mgrwt>
</event>
<event>
 7    0  0.4831799E-002  0.4635755E+03  0.7546771E-02  0.1023749E+00
         21   -1    0    0  502  501  0.00000000000E+00  0.00000000000E+00  0.23362597608E+03  0.23362597608E+03  0.00000000000E+00 0.  1.
         21   -1    0    0  501  502 -0.00000000000E+00 -0.00000000000E+00 -0.22996401692E+03  0.22996401692E+03  0.00000000000E+00 0.  1.
      99926    2    1    2    0    0  0.00000000000E+00  0.00000000000E+00  0.36619591637E+01  0.46358999300E+03  0.46357552962E+03 0.  0.
      99925    2    3    3    0    0 -0.10423950870E+03 -0.29039354030E+02  0.56092263095E+02  0.29008032720E+03  0.26323201741E+03 0.  0.
         25    1    4    4    0    0 -0.57352685730E+02 -0.26383525000E+02  0.68359204679E+02  0.15590352759E+03  0.12509000000E+03 0.  0.
         25    1    4    4    0    0 -0.46886822970E+02 -0.26558290298E+01 -0.12266941584E+02  0.13417679960E+03  0.12509000000E+03 0.  0.
         25    1    3    3    0    0  0.10423950870E+03  0.29039354030E+02 -0.52430303931E+02  0.17350966580E+03  0.12509000000E+03 0.  0.
<mgrwt>
<rscale>  2 0.46357553E+03</rscale>
<asrwt>0</asrwt>
<pdfrwt beam="1">  1       21 0.34356761E-01 0.46357553E+03</pdfrwt>
<pdfrwt beam="2">  1       21 0.33818238E-01 0.46357553E+03</pdfrwt>
<totfact> 0.63465996E+04</totfact>
</mgrwt>
</event>
<event>
 7    0  0.4831799E-002  0.4562788E+03  0.7546771E-02  0.1025866E+00
         21   -1    0    0  502  501  0.00000000000E+00  0.00000000000E+00  0.47813700821E+03  0.47813700821E+03  0.00000000000E+00 0. -1.
         21   -1    0    0  501  502 -0.00000000000E+00 -0.00000000000E+00 -0.10885495196E+03  0.10885495196E+03  0.00000000000E+00 0. -1.
      99926    2    1    2    0    0  0.00000000000E+00  0.14210854715E-13  0.36928205625E+03  0.58699196017E+03  0.45627877908E+03 0.  0.
      99925    2    3    3    0    0 -0.31013214922E+02 -0.93858383184E+02  0.30601552480E+03  0.41546535088E+03  0.26304893227E+03 0.  0.
         25    1    4    4    0    0 -0.11523557505E+01 -0.62320610389E+02  0.10522111387E+03  0.17494049647E+03  0.12509000000E+03 0.  0.
         25    1    4    4    0    0 -0.29860859171E+02 -0.31537772795E+02  0.20079441093E+03  0.24052485440E+03  0.12509000000E+03 0.  0.
         25    1    3    3    0    0  0.31013214922E+02  0.93858383184E+02  0.63266531449E+02  0.17152660929E+03  0.12509000000E+03 0.  0.
<mgrwt>
<rscale>  2 0.45627878E+03</rscale>
<asrwt>0</asrwt>
<pdfrwt beam="1">  1       21 0.70314265E-01 0.45627878E+03</pdfrwt>
<pdfrwt beam="2">  1       21 0.16008081E-01 0.45627878E+03</pdfrwt>
<totfact> 0.58888681E+04</totfact>
</mgrwt>
</event>
<event>
 7    0  0.4831799E-002  0.4596426E+03  0.7546771E-02  0.1024885E+00
         21   -1    0    0  502  501  0.00000000000E+00  0.00000000000E+00  0.22838446093E+03  0.22838446093E+03  0.00000000000E+00 0. -1.
         21   -1    0    0  501  502 -0.00000000000E+00 -0.00000000000E+00 -0.23126713416E+03  0.23126713416E+03  0.00000000000E+00 0. -1.
      99926    2    1    2    0    0 -0.14210854715E-13  0.00000000000E+00 -0.28826732353E+01  0.45965159509E+03  0.45964255575E+03 0.  0.
      99925    2    3    3    0    0  0.72361287128E+02 -0.76491482777E+02 -0.53784721747E+02  0.28840431933E+03  0.26305351604E+03 0.  0.
         25    1    4    4    0    0  0.47661636620E+02 -0.16394296928E+02  0.66733086678E+01  0.13502757395E+03  0.12509000000E+03 0.  0.
         25    1    3    3    0    0 -0.72361287128E+02  0.76491482777E+02  0.50902048512E+02  0.17124727576E+03  0.12509000000E+03 0.  0.
         25    1    4    4    0    0  0.24699650508E+02 -0.60097185849E+02 -0.60458030415E+02  0.15337674538E+03  0.12509000000E+03 0.  0.
<mgrwt>
<rscale>  2 0.45964256E+03</rscale>
<asrwt>0</asrwt>
<pdfrwt beam="1">  1       21 0.33585950E-01 0.45964256E+03</pdfrwt>
<pdfrwt beam="2">  1       21 0.34009873E-01 0.45964256E+03</pdfrwt>
<totfact> 0.65737305E+04</totfact>
</mgrwt>
</event>
<event>
 7    0  0.4831799E-002  0.4423866E+03  0.7546771E-02  0.1030017E+00
         21   -1    0    0  502  501  0.00000000000E+00  0.00000000000E+00  0.12324856275E+04  0.12324856275E+04  0.00000000000E+00 0.  1.
         21   -1    0    0  501  502 -0.00000000000E+00 -0.00000000000E+00 -0.39697402109E+02  0.39697402109E+02  0.00000000000E+00 0.  1.
      99926    2    1    2    0    0 -0.71054273576E-14 -0.14210854715E-13  0.11927882254E+04  0.12721830296E+04  0.44238660716E+03 0.  0.
      99925    2    3    3    0    0  0.63501877230E+02  0.74233437657E+02  0.83203557428E+03  0.87805985716E+03  0.26298825869E+03 0.  0.
         25    1    3    3    0    0 -0.63501877230E+02 -0.74233437657E+02  0.36075265113E+03  0.39412317247E+03  0.12509000000E+03 0.  0.
         25    1    4    4    0    0  0.15846112456E+02  0.11988084765E+02  0.29363209750E+03  0.31978450594E+03  0.12509000000E+03 0.  0.
         25    1    4    4    0    0  0.47655764774E+02  0.62245352892E+02  0.53840347678E+03  0.55827535122E+03  0.12509000000E+03 0.  0.
<mgrwt>
<rscale>  2 0.44238661E+03</rscale>
<asrwt>0</asrwt>
<pdfrwt beam="1">  1       21 0.18124786E+00 0.44238661E+03</pdfrwt>
<pdfrwt beam="2">  1       21 0.58378541E-02 0.44238661E+03</pdfrwt>
<totfact> 0.33060290E+04</totfact>
</mgrwt>
</event>
<event>
 7    0  0.4831799E-002  0.4774371E+03  0.7546771E-02  0.1019842E+00
         21   -1    0    0  502  501  0.00000000000E+00  0.00000000000E+00  0.30597559372E+03  0.30597559372E+03  0.00000000000E+00 0. -1.
         21   -1    0    0  501  502 -0.00000000000E+00 -0.00000000000E+00 -0.18624540220E+03  0.18624540220E+03  0.00000000000E+00 0. -1.
      99926    2    1    2    0    0  0.00000000000E+00  0.00000000000E+00  0.11973019152E+03  0.49222099593E+03  0.47743710588E+03 0.  0.
      99925    2    3    3    0    0  0.10095281608E+03 -0.58129977599E+02  0.14029071560E+03  0.32005593379E+03  0.26302804129E+03 0.  0.
         25    1    3    3    0    0 -0.10095281608E+03  0.58129977599E+02 -0.20560524080E+02  0.17216506213E+03  0.12509000000E+03 0.  0.
         25    1    4    4    0    0  0.78850433251E+02 -0.48839631301E+02  0.48650281722E+02  0.16314735187E+03  0.12509000000E+03 0.  0.
         25    1    4    4    0    0  0.22102382825E+02 -0.92903462982E+01  0.91640433878E+02  0.15690858193E+03  0.12509000000E+03 0.  0.
<mgrwt>
<rscale>  2 0.47743711E+03</rscale>
<asrwt>0</asrwt>
<pdfrwt beam="1">  1       21 0.44996411E-01 0.47743711E+03</pdfrwt>
<pdfrwt beam="2">  1       21 0.27389030E-01 0.47743711E+03</pdfrwt>
<totfact> 0.55296811E+04</totfact>
</mgrwt>
</event>
<event>
 7    0  0.4831799E-002  0.4564235E+03  0.7546771E-02  0.1025824E+00
         21   -1    0    0  502  501  0.00000000000E+00  0.00000000000E+00  0.30961695783E+04  0.30961695783E+04  0.00000000000E+00 0. -1.
         21   -1    0    0  501  502 -0.00000000000E+00 -0.00000000000E+00 -0.16820981727E+02  0.16820981727E+02  0.00000000000E+00 0. -1.
      99926    2    1    2    0    0  0.14210854715E-13 -0.71054273576E-14  0.30793485966E+04  0.31129905600E+04  0.45642353970E+03 0.  0.
      99925    2    3    3    0    0  0.10631373539E+03 -0.42394556117E+02  0.18924973528E+04  0.19140896919E+04  0.26285587200E+03 0.  0.
         25    1    4    4    0    0  0.18676961152E+02 -0.10420973382E+02  0.69797600422E+03  0.70941908357E+03  0.12509000000E+03 0.  0.
         25    1    3    3    0    0 -0.10631373539E+03  0.42394556117E+02  0.11868512438E+04  0.11989008681E+04  0.12509000000E+03 0.  0.
         25    1    4    4    0    0  0.87636774236E+02 -0.31973582735E+02  0.11945213486E+04  0.12046706083E+04  0.12509000000E+03 0.  0.
<mgrwt>
<rscale>  2 0.45642354E+03</rscale>
<asrwt>0</asrwt>
<pdfrwt beam="1">  1       21 0.45531866E+00 0.45642354E+03</pdfrwt>
<pdfrwt beam="2">  1       21 0.24736759E-02 0.45642354E+03</pdfrwt>
<totfact> 0.26368428E+03</totfact>
</mgrwt>
</event>
<event>
 7    0  0.4831799E-002  0.4529352E+03  0.7546771E-02  0.1026850E+00
         21   -1    0    0  502  501  0.00000000000E+00  0.00000000000E+00  0.67627586433E+02  0.67627586433E+02  0.00000000000E+00 0.  1.
         21   -1    0    0  501  502 -0.00000000000E+00 -0.00000000000E+00 -0.75838243028E+03  0.75838243028E+03  0.00000000000E+00 0.  1.
      99926    2    1    2    0    0  0.00000000000E+00  0.00000000000E+00 -0.69075484384E+03  0.82601001671E+03  0.45293519781E+03 0.  0.
      99925    2    3    3    0    0  0.63784547433E+02 -0.68957749770E+02 -0.32787584364E+03  0.43084888928E+03  0.26325758641E+03 0.  0.
         25    1    4    4    0    0  0.36369243023E+02 -0.19054365879E+02 -0.10241546034E+03  0.16679995598E+03  0.12509000000E+03 0.  0.
         25    1    3    3    0    0 -0.63784547433E+02  0.68957749770E+02 -0.36287900020E+03  0.39516112743E+03  0.12509000000E+03 0.  0.
         25    1    4    4    0    0  0.27415304410E+02 -0.49903383891E+02 -0.22546038330E+03  0.26404893330E+03  0.12509000000E+03 0.  0.
<mgrwt>
<rscale>  2 0.45293520E+03</rscale>
<asrwt>0</asrwt>
<pdfrwt beam="1">  1       21 0.99452340E-02 0.45293520E+03</pdfrwt>
<pdfrwt beam="2">  1       21 0.11152682E+00 0.45293520E+03</pdfrwt>
<totfact> 0.47293905E+04</totfact>
</mgrwt>
</event>
<event>
 7    0  0.4831799E-002  0.4449520E+03  0.7546771E-02  0.1029238E+00
         21   -1    0    0  502  501  0.00000000000E+00  0.00000000000E+00  0.13298622317E+03  0.13298622317E+03  0.00000000000E+00 0.  1.
         21   -1    0    0  501  502 -0.00000000000E+00 -0.00000000000E+00 -0.37218575929E+03  0.37218575929E+03  0.00000000000E+00 0.  1.
      99926    2    1    2    0    0  0.00000000000E+00  0.00000000000E+00 -0.23919953612E+03  0.50517198246E+03  0.44495203537E+03 0.  0.
      99925    2    3    3    0    0  0.84839424616E+02 -0.58639380181E+02 -0.16171197497E+03  0.32548298694E+03  0.26296788219E+03 0.  0.
         25    1    4    4    0    0  0.65105897198E+02 -0.65212271757E+02 -0.96406880785E+02  0.18284751297E+03  0.12509000000E+03 0.  0.
         25    1    3    3    0    0 -0.84839424616E+02  0.58639380181E+02 -0.77487561153E+02  0.17968899552E+03  0.12509000000E+03 0.  0.
         25    1    4    4    0    0  0.19733527417E+02  0.65728915761E+01 -0.65305094185E+02  0.14263547397E+03  0.12509000000E+03 0.  0.
<mgrwt>
<rscale>  2 0.44495204E+03</rscale>
<asrwt>0</asrwt>
<pdfrwt beam="1">  1       21 0.19556798E-01 0.44495204E+03</pdfrwt>
<pdfrwt beam="2">  1       21 0.54733199E-01 0.44495204E+03</pdfrwt>
<totfact> 0.70353730E+04</totfact>
</mgrwt>
</event>
<event>
 7    0  0.4831799E-002  0.4518499E+03  0.7546771E-02  0.1027172E+00
         21   -1    0    0  502  501  0.00000000000E+00  0.00000000000E+00  0.13037608672E+03  0.13037608672E+03  0.00000000000E+00 0.  1.
         21   -1    0    0  501  502 -0.00000000000E+00 -0.00000000000E+00 -0.39149876042E+03  0.39149876042E+03  0.00000000000E+00 0.  1.
      99926    2    1    2    0    0  0.30531133177E-14  0.00000000000E+00 -0.26112267371E+03  0.52187484714E+03  0.45184987037E+03 0.  0.
      99925    2    3    3    0    0 -0.41658845740E+00 -0.10688606741E+03 -0.13630957532E+03  0.31535457555E+03  0.26352116242E+03 0.  0.
         25    1    4    4    0    0  0.17021097815E+02 -0.84349017756E+02 -0.10077612215E+03  0.18223010032E+03  0.12509000000E+03 0.  0.
         25    1    3    3    0    0  0.41658845740E+00  0.10688606741E+03 -0.12481309838E+03  0.20652027160E+03  0.12509000000E+03 0.  0.
         25    1    4    4    0    0 -0.17437686272E+02 -0.22537049653E+02 -0.35533453172E+02  0.13312447523E+03  0.12509000000E+03 0.  0.
<mgrwt>
<rscale>  2 0.45184987E+03</rscale>
<asrwt>0</asrwt>
<pdfrwt beam="1">  1       21 0.19172954E-01 0.45184987E+03</pdfrwt>
<pdfrwt beam="2">  1       21 0.57573347E-01 0.45184987E+03</pdfrwt>
<totfact> 0.65377336E+04</totfact>
</mgrwt>
</event>
<event>
 7    0  0.4831799E-002  0.4582268E+03  0.7546771E-02  0.1025297E+00
         21   -1    0    0  502  501  0.00000000000E+00  0.00000000000E+00  0.15180906590E+04  0.15180906590E+04  0.00000000000E+00 0.  1.
         21   -1    0    0  501  502 -0.00000000000E+00 -0.00000000000E+00 -0.34578269407E+02  0.34578269407E+02  0.00000000000E+00 0.  1.
      99926    2    1    2    0    0  0.35527136788E-14  0.00000000000E+00  0.14835123896E+04  0.15526689284E+04  0.45822679010E+03 0.  0.
      99925    2    3    3    0    0  0.80851830235E+01 -0.11521519686E+03  0.89078957775E+03  0.93597795916E+03  0.26307557172E+03 0.  0.
         25    1    4    4    0    0 -0.33475813284E+02 -0.73986318973E+02  0.47235130087E+03  0.49533611316E+03  0.12509000000E+03 0.  0.
         25    1    4    4    0    0  0.41560996308E+02 -0.41228877885E+02  0.41843827688E+03  0.44064184600E+03  0.12509000000E+03 0.  0.
         25    1    3    3    0    0 -0.80851830235E+01  0.11521519686E+03  0.59272281188E+03  0.61669096928E+03  0.12509000000E+03 0.  0.
<mgrwt>
<rscale>  2 0.45822679E+03</rscale>
<asrwt>0</asrwt>
<pdfrwt beam="1">  1       21 0.22324858E+00 0.45822679E+03</pdfrwt>
<pdfrwt beam="2">  1       21 0.50850406E-02 0.45822679E+03</pdfrwt>
<totfact> 0.21961802E+04</totfact>
</mgrwt>
</event>
<event>
 7    0  0.4831799E-002  0.4495174E+03  0.7546771E-02  0.1027866E+00
         21   -1    0    0  502  501  0.00000000000E+00  0.00000000000E+00  0.38151988884E+03  0.38151988884E+03  0.00000000000E+00 0.  1.
         21   -1    0    0  501  502 -0.00000000000E+00 -0.00000000000E+00 -0.13240848152E+03  0.13240848152E+03  0.00000000000E+00 0.  1.
      99926    2    1    2    0    0  0.71054273576E-14  0.00000000000E+00  0.24911140732E+03  0.51392837037E+03  0.44951738188E+03 0.  0.
      99925    2    3    3    0    0 -0.63385174963E+02 -0.64282578833E+02  0.22525588520E+03  0.35783056647E+03  0.26296876266E+03 0.  0.
         25    1    4    4    0    0 -0.23932732723E+02 -0.10421970038E+01  0.13926269276E+03  0.18872060716E+03  0.12509000000E+03 0.  0.
         25    1    4    4    0    0 -0.39452442240E+02 -0.63240381829E+02  0.85993192441E+02  0.16910995931E+03  0.12509000000E+03 0.  0.
         25    1    3    3    0    0  0.63385174963E+02  0.64282578833E+02  0.23855522114E+02  0.15609780390E+03  0.12509000000E+03 0.  0.
<mgrwt>
<rscale>  2 0.44951738E+03</rscale>
<asrwt>0</asrwt>
<pdfrwt beam="1">  1       21 0.56105866E-01 0.44951738E+03</pdfrwt>
<pdfrwt beam="2">  1       21 0.19471836E-01 0.44951738E+03</pdfrwt>
<totfact> 0.67177968E+04</totfact>
</mgrwt>
</event>
<event>
 7    0  0.4831799E-002  0.4609382E+03  0.7546771E-02  0.1024509E+00
         21   -1    0    0  502  501  0.00000000000E+00  0.00000000000E+00  0.34494944990E+03  0.34494944990E+03  0.00000000000E+00 0.  1.
         21   -1    0    0  501  502 -0.00000000000E+00 -0.00000000000E+00 -0.15398196837E+03  0.15398196837E+03  0.00000000000E+00 0.  1.
      99926    2    1    2    0    0  0.00000000000E+00  0.00000000000E+00  0.19096748153E+03  0.49893141827E+03  0.46093815326E+03 0.  0.
      99925    2    3    3    0    0 -0.38100463751E+02  0.82058593542E+02  0.36272929700E+02  0.28038355034E+03  0.26289532472E+03 0.  0.
         25    1    3    3    0    0  0.38100463751E+02 -0.82058593542E+02  0.15469455183E+03  0.21854786793E+03  0.12509000000E+03 0.  0.
         25    1    4    4    0    0 -0.23772572214E+02  0.14196631723E+02  0.48132813851E+02  0.13686108070E+03  0.12509000000E+03 0.  0.
         25    1    4    4    0    0 -0.14327891538E+02  0.67861961819E+02 -0.11859884150E+02  0.14352246963E+03  0.12509000000E+03 0.  0.
<mgrwt>
<rscale>  2 0.46093815E+03</rscale>
<asrwt>0</asrwt>
<pdfrwt beam="1">  1       21 0.50727860E-01 0.46093815E+03</pdfrwt>
<pdfrwt beam="2">  1       21 0.22644407E-01 0.46093815E+03</pdfrwt>
<totfact> 0.62354179E+04</totfact>
</mgrwt>
</event>
<event>
 7    0  0.4831799E-002  0.4458620E+03  0.7546771E-02  0.1028963E+00
         21   -1    0    0  502  501  0.00000000000E+00  0.00000000000E+00  0.64931480569E+02  0.64931480569E+02  0.00000000000E+00 0.  1.
         21   -1    0    0  501  502 -0.00000000000E+00 -0.00000000000E+00 -0.76539495099E+03  0.76539495099E+03  0.00000000000E+00 0.  1.
      99926    2    1    2    0    0  0.00000000000E+00 -0.71054273576E-14 -0.70046347042E+03  0.83032643156E+03  0.44586198487E+03 0.  0.
      99925    2    3    3    0    0 -0.84552336109E+02 -0.54640436660E+02 -0.49611136042E+03  0.57043805587E+03  0.26294185437E+03 0.  0.
         25    1    3    3    0    0  0.84552336109E+02  0.54640436660E+02 -0.20435211000E+03  0.25988837569E+03  0.12509000000E+03 0.  0.
         25    1    4    4    0    0 -0.13915812775E+02 -0.44197787454E+02 -0.19022050716E+03  0.23233261438E+03  0.12509000000E+03 0.  0.
         25    1    4    4    0    0 -0.70636523334E+02 -0.10442649206E+02 -0.30589085326E+03  0.33810544148E+03  0.12509000000E+03 0.  0.
<mgrwt>
<rscale>  2 0.44586198E+03</rscale>
<asrwt>0</asrwt>
<pdfrwt beam="1">  1       21 0.95487474E-02 0.44586198E+03</pdfrwt>
<pdfrwt beam="2">  1       21 0.11255808E+00 0.44586198E+03</pdfrwt>
<totfact> 0.49808934E+04</totfact>
</mgrwt>
</event>
<event>
 7    0  0.4831799E-002  0.4490619E+03  0.7546771E-02  0.1028002E+00
         21   -1    0    0  502  501  0.00000000000E+00  0.00000000000E+00  0.15772555095E+04  0.15772555095E+04  0.00000000000E+00 0. -1.
         21   -1    0    0  501  502 -0.00000000000E+00 -0.00000000000E+00 -0.31963210347E+02  0.31963210347E+02  0.00000000000E+00 0. -1.
      99926    2    1    2    0    0  0.00000000000E+00 -0.35527136788E-14  0.15452922991E+04  0.16092187198E+04  0.44906190940E+03 0.  0.
      99925    2    3    3    0    0 -0.87193215194E+02  0.21453645966E+02  0.76602062209E+03  0.81487951618E+03  0.26301733161E+03 0.  0.
         25    1    4    4    0    0 -0.23158593116E+02 -0.10286860180E+02  0.44646372651E+03  0.46434847595E+03  0.12509000000E+03 0.  0.
         25    1    4    4    0    0 -0.64034622078E+02  0.31740506146E+02  0.31955689558E+03  0.35053104023E+03  0.12509000000E+03 0.  0.
         25    1    3    3    0    0  0.87193215194E+02 -0.21453645966E+02  0.77927167702E+03  0.79433920362E+03  0.12509000000E+03 0.  0.
<mgrwt>
<rscale>  2 0.44906191E+03</rscale>
<asrwt>0</asrwt>
<pdfrwt beam="1">  1       21 0.23194929E+00 0.44906191E+03</pdfrwt>
<pdfrwt beam="2">  1       21 0.47004732E-02 0.44906191E+03</pdfrwt>
<totfact> 0.22229727E+04</totfact>
</mgrwt>
</event>
<event>
 7    0  0.4831799E-002  0.4577464E+03  0.7546771E-02  0.1025437E+00
         21   -1    0    0  502  501  0.00000000000E+00  0.00000000000E+00  0.23419187447E+02  0.23419187447E+02  0.00000000000E+00 0. -1.
         21   -1    0    0  501  502 -0.00000000000E+00 -0.00000000000E+00 -0.22367531912E+04  0.22367531912E+04  0.00000000000E+00 0. -1.
      99926    2    1    2    0    0  0.00000000000E+00 -0.14210854715E-13 -0.22133340038E+04  0.22601723787E+04  0.45774640254E+03 0.  0.
      99925    2    3    3    0    0 -0.35277510539E+02  0.94139042526E+02 -0.11061975136E+04  0.11414653669E+04  0.26298970092E+03 0.  0.
         25    1    3    3    0    0  0.35277510539E+02 -0.94139042526E+02 -0.11071364902E+04  0.11187070118E+04  0.12509000000E+03 0.  0.
         25    1    4    4    0    0 -0.52022713339E+02  0.25396225922E+02 -0.54080779625E+03  0.55809668659E+03  0.12509000000E+03 0.  0.
         25    1    4    4    0    0  0.16745202801E+02  0.68742816604E+02 -0.56538971733E+03  0.58336868035E+03  0.12509000000E+03 0.  0.
<mgrwt>
<rscale>  2 0.45774640E+03</rscale>
<asrwt>0</asrwt>
<pdfrwt beam="1">  1       21 0.34439992E-02 0.45774640E+03</pdfrwt>
<pdfrwt beam="2">  1       21 0.32893420E+00 0.45774640E+03</pdfrwt>
<totfact> 0.96994275E+03</totfact>
</mgrwt>
</event>
<event>
 7    0  0.4831799E-002  0.4588397E+03  0.7546771E-02  0.1025118E+00
         21   -1    0    0  502  501  0.00000000000E+00  0.00000000000E+00  0.33399708084E+02  0.33399708084E+02  0.00000000000E+00 0. -1.
         21   -1    0    0  501  502 -0.00000000000E+00 -0.00000000000E+00 -0.15758660724E+04  0.15758660724E+04  0.00000000000E+00 0. -1.
      99926    2    1    2    0    0  0.00000000000E+00 -0.88817841970E-15 -0.15424663643E+04  0.16092657805E+04  0.45883969661E+03 0.  0.
      99925    2    3    3    0    0  0.94341254063E+01  0.50312583523E+01 -0.55914878205E+03  0.61796598124E+03  0.26290735483E+03 0.  0.
         25    1    3    3    0    0 -0.94341254063E+01 -0.50312583523E+01 -0.98331758223E+03  0.99129979921E+03  0.12509000000E+03 0.  0.
         25    1    4    4    0    0  0.13535381178E+02 -0.31863350852E+02 -0.23349093943E+03  0.26714042481E+03  0.12509000000E+03 0.  0.
         25    1    4    4    0    0 -0.41012557714E+01  0.36894609204E+02 -0.32565784262E+03  0.35082555644E+03  0.12509000000E+03 0.  0.
<mgrwt>
<rscale>  2 0.45883970E+03</rscale>
<asrwt>0</asrwt>
<pdfrwt beam="1">  1       21 0.49117222E-02 0.45883970E+03</pdfrwt>
<pdfrwt beam="2">  1       21 0.23174499E+00 0.45883970E+03</pdfrwt>
<totfact> 0.20600158E+04</totfact>
</mgrwt>
</event>
<event>
 7    0  0.4831799E-002  0.4633788E+03  0.7546771E-02  0.1023806E+00
         21   -1    0    0  502  501  0.00000000000E+00  0.00000000000E+00  0.11414928337E+03  0.11414928337E+03  0.00000000000E+00 0. -1.
         21   -1    0    0  501  502 -0.00000000000E+00 -0.00000000000E+00 -0.47026120254E+03  0.47026120254E+03  0.00000000000E+00 0. -1.
      99926    2    1    2    0    0 -0.14210854715E-13 -0.22204460493E-14 -0.35611191917E+03  0.58441048591E+03  0.46337880515E+03 0.  0.
      99925    2    3    3    0    0 -0.11935211109E+03  0.39493900825E+01 -0.19762837124E+03  0.34983626062E+03  0.26280774727E+03 0.  0.
         25    1    4    4    0    0 -0.79293854898E+02 -0.29278803795E+02 -0.12564740246E+03  0.19641675494E+03  0.12509000000E+03 0.  0.
         25    1    4    4    0    0 -0.40058256191E+02  0.33228193878E+02 -0.71980968776E+02  0.15341950568E+03  0.12509000000E+03 0.  0.
         25    1    3    3    0    0  0.11935211109E+03 -0.39493900825E+01 -0.15848354793E+03  0.23457422529E+03  0.12509000000E+03 0.  0.
<mgrwt>
<rscale>  2 0.46337881E+03</rscale>
<asrwt>0</asrwt>
<pdfrwt beam="1">  1       21 0.16786659E-01 0.46337881E+03</pdfrwt>
<pdfrwt beam="2">  1       21 0.69156059E-01 0.46337881E+03</pdfrwt>
<totfact> 0.55855718E+04</totfact>
</mgrwt>
</event>
<event>
 7    0  0.4831799E-002  0.4618487E+03  0.7546771E-02  0.1024246E+00
         21   -1    0    0  502  501  0.00000000000E+00  0.00000000000E+00  0.36439192106E+03  0.36439192106E+03  0.00000000000E+00 0.  1.
         21   -1    0    0  501  502 -0.00000000000E+00 -0.00000000000E+00 -0.14634260318E+03  0.14634260318E+03  0.00000000000E+00 0.  1.
      99926    2    1    2    0    0  0.00000000000E+00  0.00000000000E+00  0.21804931788E+03  0.51073452424E+03  0.46184872980E+03 0.  0.
      99925    2    3    3    0    0 -0.78254888685E+02  0.89777558041E+02  0.12565886651E+03  0.31485869333E+03  0.26298670784E+03 0.  0.
         25    1    4    4    0    0 -0.51360743367E+02  0.63985193252E+02  0.10486242308E+03  0.18269008399E+03  0.12509000000E+03 0.  0.
         25    1    3    3    0    0  0.78254888685E+02 -0.89777558041E+02  0.92390451374E+02  0.19587583091E+03  0.12509000000E+03 0.  0.
         25    1    4    4    0    0 -0.26894145318E+02  0.25792364789E+02  0.20796443427E+02  0.13216860933E+03  0.12509000000E+03 0.  0.
<mgrwt>
<rscale>  2 0.46184873E+03</rscale>
<asrwt>0</asrwt>
<pdfrwt beam="1">  1       21 0.53587047E-01 0.46184873E+03</pdfrwt>
<pdfrwt beam="2">  1       21 0.21520971E-01 0.46184873E+03</pdfrwt>
<totfact> 0.61131725E+04</totfact>
</mgrwt>
</event>
<event>
 7    0  0.4831799E-002  0.4532240E+03  0.7546771E-02  0.1026765E+00
         21   -1    0    0  502  501  0.00000000000E+00  0.00000000000E+00  0.62863807099E+03  0.62863807099E+03  0.00000000000E+00 0. -1.
         21   -1    0    0  501  502 -0.00000000000E+00 -0.00000000000E+00 -0.81689275811E+02  0.81689275811E+02  0.00000000000E+00 0. -1.
      99926    2    1    2    0    0  0.14210854715E-13 -0.71054273576E-14  0.54694879518E+03  0.71032734680E+03  0.45322395685E+03 0.  0.
      99925    2    3    3    0    0  0.96933316915E+02 -0.53824830108E+02  0.33084005028E+03  0.43711739459E+03  0.26329317789E+03 0.  0.
         25    1    3    3    0    0 -0.96933316915E+02  0.53824830108E+02  0.21610874490E+03  0.27320995221E+03  0.12509000000E+03 0.  0.
         25    1    4    4    0    0  0.29959499092E+02  0.60175030499E+01  0.11989644444E+03  0.17594444412E+03  0.12509000000E+03 0.  0.
         25    1    4    4    0    0  0.66973817823E+02 -0.59842333158E+02  0.21094360584E+03  0.26117295047E+03  0.12509000000E+03 0.  0.
<mgrwt>
<rscale>  2 0.45322396E+03</rscale>
<asrwt>0</asrwt>
<pdfrwt beam="1">  1       21 0.92446773E-01 0.45322396E+03</pdfrwt>
<pdfrwt beam="2">  1       21 0.12013129E-01 0.45322396E+03</pdfrwt>
<totfact> 0.53083712E+04</totfact>
</mgrwt>
</event>
<event>
 7    0  0.4831799E-002  0.4553460E+03  0.7546771E-02  0.1026140E+00
         21   -1    0    0  502  501  0.00000000000E+00  0.00000000000E+00  0.16508142893E+03  0.16508142893E+03  0.00000000000E+00 0. -1.
         21   -1    0    0  501  502 -0.00000000000E+00 -0.00000000000E+00 -0.31399658137E+03  0.31399658137E+03  0.00000000000E+00 0. -1.
      99926    2    1    2    0    0  0.17763568394E-14  0.00000000000E+00 -0.14891515244E+03  0.47907801029E+03  0.45534604129E+03 0.  0.
      99925    2    3    3    0    0 -0.13191836990E+02 -0.34642758118E+02  0.19188176478E+02  0.26628613417E+03  0.26299424686E+03 0.  0.
         25    1    3    3    0    0  0.13191836990E+02  0.34642758118E+02 -0.16810332892E+03  0.21279187613E+03  0.12509000000E+03 0.  0.
         25    1    4    4    0    0 -0.45079043353E+02 -0.28700853771E+02  0.16570546485E+02  0.13703266132E+03  0.12509000000E+03 0.  0.
         25    1    4    4    0    0  0.31887206363E+02 -0.59419043473E+01  0.26176299934E+01  0.12925347285E+03  0.12509000000E+03 0.  0.
<mgrwt>
<rscale>  2 0.45534604E+03</rscale>
<asrwt>0</asrwt>
<pdfrwt beam="1">  1       21 0.24276681E-01 0.45534604E+03</pdfrwt>
<pdfrwt beam="2">  1       21 0.46175967E-01 0.45534604E+03</pdfrwt>
<totfact> 0.66584204E+04</totfact>
</mgrwt>
</event>
<event>
 7    0  0.4831799E-002  0.4305602E+03  0.7546771E-02  0.1033683E+00
         21   -1    0    0  502  501  0.00000000000E+00  0.00000000000E+00  0.18382696525E+04  0.18382696525E+04  0.00000000000E+00 0. -1.
         21   -1    0    0  501  502 -0.00000000000E+00 -0.00000000000E+00 -0.25211495322E+02  0.25211495322E+02  0.00000000000E+00 0. -1.
      99926    2    1    2    0    0  0.71054273576E-14  0.00000000000E+00  0.18130581572E+04  0.18634811478E+04  0.43056022457E+03 0.  0.
      99925    2    3    3    0    0 -0.51368474318E+02  0.71859198300E+02  0.11683438161E+04  0.12008299921E+04  0.26298846494E+03 0.  0.
         25    1    4    4    0    0  0.39794152320E+01  0.62500421452E+02  0.55671674698E+03  0.57402367799E+03  0.12509000000E+03 0.  0.
         25    1    4    4    0    0 -0.55347889550E+02  0.93587768484E+01  0.61162706916E+03  0.62680631411E+03  0.12509000000E+03 0.  0.
         25    1    3    3    0    0  0.51368474318E+02 -0.71859198300E+02  0.64471434103E+03  0.66265115571E+03  0.12509000000E+03 0.  0.
<mgrwt>
<rscale>  2 0.43056022E+03</rscale>
<asrwt>0</asrwt>
<pdfrwt beam="1">  1       21 0.27033368E+00 0.43056022E+03</pdfrwt>
<pdfrwt beam="2">  1       21 0.37075741E-02 0.43056022E+03</pdfrwt>
<totfact> 0.19517235E+04</totfact>
</mgrwt>
</event>
<event>
 7    0  0.4831799E-002  0.4542917E+03  0.7546771E-02  0.1026450E+00
         21   -1    0    0  502  501  0.00000000000E+00  0.00000000000E+00  0.16771819487E+03  0.16771819487E+03  0.00000000000E+00 0.  1.
         21   -1    0    0  501  502 -0.00000000000E+00 -0.00000000000E+00 -0.30763046328E+03  0.30763046328E+03  0.00000000000E+00 0.  1.
      99926    2    1    2    0    0  0.35527136788E-14 -0.35527136788E-14 -0.13991226841E+03  0.47534865814E+03  0.45429165076E+03 0.  0.
      99925    2    3    3    0    0 -0.17986536497E+02  0.16105954077E+02  0.26617285492E+02  0.26567625253E+03  0.26323463682E+03 0.  0.
         25    1    4    4    0    0  0.25917969645E+02  0.17669574858E+02  0.32396709701E+02  0.13296995873E+03  0.12509000000E+03 0.  0.
         25    1    3    3    0    0  0.17986536497E+02 -0.16105954077E+02 -0.16652955390E+03  0.20967240561E+03  0.12509000000E+03 0.  0.
         25    1    4    4    0    0 -0.43904506142E+02 -0.15636207813E+01 -0.57794242085E+01  0.13270629380E+03  0.12509000000E+03 0.  0.
<mgrwt>
<rscale>  2 0.45429165E+03</rscale>
<asrwt>0</asrwt>
<pdfrwt beam="1">  1       21 0.24664441E-01 0.45429165E+03</pdfrwt>
<pdfrwt beam="2">  1       21 0.45239773E-01 0.45429165E+03</pdfrwt>
<totfact> 0.67418473E+04</totfact>
</mgrwt>
</event>
<event>
 7    0  0.4831799E-002  0.4409369E+03  0.7546771E-02  0.1030460E+00
         21   -1    0    0  502  501  0.00000000000E+00  0.00000000000E+00  0.64338713704E+02  0.64338713704E+02  0.00000000000E+00 0. -1.
         21   -1    0    0  501  502 -0.00000000000E+00 -0.00000000000E+00 -0.75547573694E+03  0.75547573694E+03  0.00000000000E+00 0. -1.
      99926    2    1    2    0    0 -0.14210854715E-13  0.00000000000E+00 -0.69113702323E+03  0.81981445064E+03  0.44093689866E+03 0.  0.
      99925    2    3    3    0    0 -0.99235119918E+02 -0.39784175622E+01 -0.45232309574E+03  0.53251141046E+03  0.26288549314E+03 0.  0.
         25    1    4    4    0    0 -0.26107567323E+02  0.30729600881E+02 -0.19476115638E+03  0.23495814431E+03  0.12509000000E+03 0.  0.
         25    1    4    4    0    0 -0.73127552595E+02 -0.34708018443E+02 -0.25756193935E+03  0.29755326615E+03  0.12509000000E+03 0.  0.
         25    1    3    3    0    0  0.99235119918E+02  0.39784175622E+01 -0.23881392750E+03  0.28730304018E+03  0.12509000000E+03 0.  0.
<mgrwt>
<rscale>  2 0.44093690E+03</rscale>
<asrwt>0</asrwt>
<pdfrwt beam="1">  1       21 0.94615756E-02 0.44093690E+03</pdfrwt>
<pdfrwt beam="2">  1       21 0.11109937E+00 0.44093690E+03</pdfrwt>
<totfact> 0.52364954E+04</totfact>
</mgrwt>
</event>
<event>
 7    0  0.4831799E-002  0.4535033E+03  0.7546771E-02  0.1026682E+00
         21   -1    0    0  502  501  0.00000000000E+00  0.00000000000E+00  0.10028802407E+03  0.10028802407E+03  0.00000000000E+00 0. -1.
         21   -1    0    0  501  502 -0.00000000000E+00 -0.00000000000E+00 -0.51268643957E+03  0.51268643957E+03  0.00000000000E+00 0. -1.
      99926    2    1    2    0    0  0.00000000000E+00  0.00000000000E+00 -0.41239841550E+03  0.61297446364E+03  0.45350329654E+03 0.  0.
      99925    2    3    3    0    0  0.93991109305E+02 -0.36883284754E+02 -0.19497578942E+03  0.34257695671E+03  0.26296141825E+03 0.  0.
         25    1    4    4    0    0  0.17473984723E+02 -0.89773173775E+01 -0.55378773936E+02  0.13820365072E+03  0.12509000000E+03 0.  0.
         25    1    3    3    0    0 -0.93991109305E+02  0.36883284754E+02 -0.21742262609E+03  0.27039750694E+03  0.12509000000E+03 0.  0.
         25    1    4    4    0    0  0.76517124583E+02 -0.27905967377E+02 -0.13959701548E+03  0.20437330599E+03  0.12509000000E+03 0.  0.
<mgrwt>
<rscale>  2 0.45350330E+03</rscale>
<asrwt>0</asrwt>
<pdfrwt beam="1">  1       21 0.14748239E-01 0.45350330E+03</pdfrwt>
<pdfrwt beam="2">  1       21 0.75395065E-01 0.45350330E+03</pdfrwt>
<totfact> 0.58576055E+04</totfact>
</mgrwt>
</event>
<event>
 7    0  0.4831799E-002  0.4505049E+03  0.7546771E-02  0.1027572E+00
         21   -1    0    0  502  501  0.00000000000E+00  0.00000000000E+00  0.26183016705E+02  0.26183016705E+02  0.00000000000E+00 0.  1.
         21   -1    0    0  501  502 -0.00000000000E+00 -0.00000000000E+00 -0.19378468112E+04  0.19378468112E+04  0.00000000000E+00 0.  1.
      99926    2    1    2    0    0  0.71054273576E-14  0.00000000000E+00 -0.19116637945E+04  0.19640298279E+04  0.45050494084E+03 0.  0.
      99925    2    3    3    0    0  0.57992680654E+02 -0.91165250135E+02 -0.11462041323E+04  0.11809268612E+04  0.26292600646E+03 0.  0.
         25    1    3    3    0    0 -0.57992680654E+02  0.91165250135E+02 -0.76545966221E+03  0.78310296667E+03  0.12509000000E+03 0.  0.
         25    1    4    4    0    0  0.27104351611E+02 -0.61169650320E+02 -0.43571919658E+03  0.45823039878E+03  0.12509000000E+03 0.  0.
         25    1    4    4    0    0  0.30888329043E+02 -0.29995599814E+02 -0.71048493571E+03  0.72269646246E+03  0.12509000000E+03 0.  0.
<mgrwt>
<rscale>  2 0.45050494E+03</rscale>
<asrwt>0</asrwt>
<pdfrwt beam="1">  1       21 0.38504429E-02 0.45050494E+03</pdfrwt>
<pdfrwt beam="2">  1       21 0.28497753E+00 0.45050494E+03</pdfrwt>
<totfact> 0.14816360E+04</totfact>
</mgrwt>
</event>
<event>
 7    0  0.4831799E-002  0.4546496E+03  0.7546771E-02  0.1026345E+00
         21   -1    0    0  502  501  0.00000000000E+00  0.00000000000E+00  0.66278736949E+02  0.66278736949E+02  0.00000000000E+00 0. -1.
         21   -1    0    0  501  502 -0.00000000000E+00 -0.00000000000E+00 -0.77968533487E+03  0.77968533487E+03  0.00000000000E+00 0. -1.
      99926    2    1    2    0    0  0.00000000000E+00  0.00000000000E+00 -0.71340659792E+03  0.84596407182E+03  0.45464957588E+03 0.  0.
      99925    2    3    3    0    0 -0.71409639869E+02  0.65461871734E+02 -0.34221730747E+03  0.44246241041E+03  0.26320278451E+03 0.  0.
         25    1    4    4    0    0 -0.32985688242E+02  0.58372772000E+02 -0.22830896466E+03  0.26882694728E+03  0.12509000000E+03 0.  0.
         25    1    3    3    0    0  0.71409639869E+02 -0.65461871734E+02 -0.37118929045E+03  0.40350166141E+03  0.12509000000E+03 0.  0.
         25    1    4    4    0    0 -0.38423951628E+02  0.70890997342E+01 -0.11390834282E+03  0.17363546313E+03  0.12509000000E+03 0.  0.
<mgrwt>
<rscale>  2 0.45464958E+03</rscale>
<asrwt>0</asrwt>
<pdfrwt beam="1">  1       21 0.97468736E-02 0.45464958E+03</pdfrwt>
<pdfrwt beam="2">  1       21 0.11465960E+00 0.45464958E+03</pdfrwt>
<totfact> 0.45746091E+04</totfact>
</mgrwt>
</event>
<event>
 7    0  0.4831799E-002  0.4512798E+03  0.7546771E-02  0.1027341E+00
         21   -1    0    0  502  501  0.00000000000E+00  0.00000000000E+00  0.38653301684E+03  0.38653301684E+03  0.00000000000E+00 0. -1.
         21   -1    0    0  501  502 -0.00000000000E+00 -0.00000000000E+00 -0.13171800182E+03  0.13171800182E+03  0.00000000000E+00 0. -1.
      99926    2    1    2    0    0  0.00000000000E+00  0.00000000000E+00  0.25481501502E+03  0.51825101865E+03  0.45127976518E+03 0.  0.
      99925    2    3    3    0    0  0.42418809059E+02 -0.32771246031E+02  0.27068150882E+03  0.38123801323E+03  0.26306013302E+03 0.  0.
         25    1    3    3    0    0 -0.42418809059E+02  0.32771246031E+02 -0.15866493806E+02  0.13701300542E+03  0.12509000000E+03 0.  0.
         25    1    4    4    0    0  0.16484022159E+02 -0.97699410459E+00  0.18582154231E+03  0.22461039867E+03  0.12509000000E+03 0.  0.
         25    1    4    4    0    0  0.25934786900E+02 -0.31794251926E+02  0.84859966513E+02  0.15662761456E+03  0.12509000000E+03 0.  0.
<mgrwt>
<rscale>  2 0.45127977E+03</rscale>
<asrwt>0</asrwt>
<pdfrwt beam="1">  1       21 0.56843090E-01 0.45127977E+03</pdfrwt>
<pdfrwt beam="2">  1       21 0.19370295E-01 0.45127977E+03</pdfrwt>
<totfact> 0.65931155E+04</totfact>
</mgrwt>
</event>
<event>
 7    0  0.4831799E-002  0.4549504E+03  0.7546771E-02  0.1026256E+00
         21   -1    0    0  502  501  0.00000000000E+00  0.00000000000E+00  0.76079938434E+02  0.76079938434E+02  0.00000000000E+00 0. -1.
         21   -1    0    0  501  502 -0.00000000000E+00 -0.00000000000E+00 -0.68013945529E+03  0.68013945529E+03  0.00000000000E+00 0. -1.
      99926    2    1    2    0    0  0.17763568394E-14  0.14210854715E-13 -0.60405951685E+03  0.75621939372E+03  0.45495040558E+03 0.  0.
      99925    2    3    3    0    0 -0.64705404160E+01 -0.11185939024E+03 -0.38952415218E+03  0.48377247802E+03  0.26410671002E+03 0.  0.
         25    1    3    3    0    0  0.64705404160E+01  0.11185939024E+03 -0.21453536468E+03  0.27244691570E+03  0.12509000000E+03 0.  0.
         25    1    4    4    0    0 -0.22408834702E+02 -0.55663591904E+02 -0.13159844935E+03  0.19122304073E+03  0.12509000000E+03 0.  0.
         25    1    4    4    0    0  0.15938294286E+02 -0.56195798341E+02 -0.25792570283E+03  0.29254943729E+03  0.12509000000E+03 0.  0.
<mgrwt>
<rscale>  2 0.45495041E+03</rscale>
<asrwt>0</asrwt>
<pdfrwt beam="1">  1       21 0.11188226E-01 0.45495041E+03</pdfrwt>
<pdfrwt beam="2">  1       21 0.10002051E+00 0.45495041E+03</pdfrwt>
<totfact> 0.49974036E+04</totfact>
</mgrwt>
</event>
<event>
 7    0  0.4831799E-002  0.4512941E+03  0.7546771E-02  0.1027337E+00
         21   -1    0    0  502  501  0.00000000000E+00  0.00000000000E+00  0.34226041447E+02  0.34226041447E+02  0.00000000000E+00 0. -1.
         21   -1    0    0  501  502 -0.00000000000E+00 -0.00000000000E+00 -0.14876565785E+04  0.14876565785E+04  0.00000000000E+00 0. -1.
      99926    2    1    2    0    0 -0.71054273576E-14 -0.14210854715E-13 -0.14534305371E+04  0.15218826200E+04  0.45129412013E+03 0.  0.
      99925    2    3    3    0    0  0.47076314800E+02  0.76623159335E+02 -0.70542704773E+03  0.75817847821E+03  0.26290682227E+03 0.  0.
         25    1    4    4    0    0  0.36073484260E+02  0.29721224295E+02 -0.24993669404E+03  0.28337344013E+03  0.12509000000E+03 0.  0.
         25    1    3    3    0    0 -0.47076314800E+02 -0.76623159335E+02 -0.74800348937E+03  0.76370414178E+03  0.12509000000E+03 0.  0.
         25    1    4    4    0    0  0.11002830540E+02  0.46901935040E+02 -0.45549035368E+03  0.47480503808E+03  0.12509000000E+03 0.  0.
<mgrwt>
<rscale>  2 0.45129412E+03</rscale>
<asrwt>0</asrwt>
<pdfrwt beam="1">  1       21 0.50332417E-02 0.45129412E+03</pdfrwt>
<pdfrwt beam="2">  1       21 0.21877301E+00 0.45129412E+03</pdfrwt>
<totfact> 0.23929260E+04</totfact>
</mgrwt>
</event>
<event>
 7    0  0.4831799E-002  0.4547754E+03  0.7546771E-02  0.1026307E+00
         21   -1    0    0  502  501  0.00000000000E+00  0.00000000000E+00  0.68074351234E+03  0.68074351234E+03  0.00000000000E+00 0. -1.
         21   -1    0    0  501  502 -0.00000000000E+00 -0.00000000000E+00 -0.75953944825E+02  0.75953944825E+02  0.00000000000E+00 0. -1.
      99926    2    1    2    0    0  0.00000000000E+00  0.35527136788E-14  0.60478956751E+03  0.75669745716E+03  0.45477535191E+03 0.  0.
      99925    2    3    3    0    0  0.99472865633E+02 -0.18143862743E+02  0.46462587149E+03  0.54334933663E+03  0.26292061617E+03 0.  0.
         25    1    4    4    0    0  0.44458285274E+02  0.30582269675E+02  0.23913548732E+03  0.27521828381E+03  0.12509000000E+03 0.  0.
         25    1    3    3    0    0 -0.99472865633E+02  0.18143862743E+02  0.14016369602E+03  0.21334812053E+03  0.12509000000E+03 0.  0.
         25    1    4    4    0    0  0.55014580359E+02 -0.48726132418E+02  0.22549038417E+03  0.26813105282E+03  0.12509000000E+03 0.  0.
<mgrwt>
<rscale>  2 0.45477535E+03</rscale>
<asrwt>0</asrwt>
<pdfrwt beam="1">  1       21 0.10010934E+00 0.45477535E+03</pdfrwt>
<pdfrwt beam="2">  1       21 0.11169698E-01 0.45477535E+03</pdfrwt>
<totfact> 0.50018083E+04</totfact>
</mgrwt>
</event>
<event>
 7    0  0.4831799E-002  0.4556486E+03  0.7546771E-02  0.1026051E+00
         21   -1    0    0  502  501  0.00000000000E+00  0.00000000000E+00  0.15097284638E+03  0.15097284638E+03  0.00000000000E+00 0.  1.
         21   -1    0    0  501  502 -0.00000000000E+00 -0.00000000000E+00 -0.34379635250E+03  0.34379635250E+03  0.00000000000E+00 0.  1.
      99926    2    1    2    0    0  0.00000000000E+00  0.00000000000E+00 -0.19282350612E+03  0.49476919888E+03  0.45564860984E+03 0.  0.
      99925    2    3    3    0    0  0.50486055351E+02  0.49554856434E+02 -0.24325554586E+02  0.27331131721E+03  0.26287414846E+03 0.  0.
         25    1    3    3    0    0 -0.50486055351E+02 -0.49554856434E+02 -0.16849795153E+03  0.22145788166E+03  0.12509000000E+03 0.  0.
         25    1    4    4    0    0  0.75979154754E+01  0.29815249442E+02  0.24205271716E+02  0.13107280686E+03  0.12509000000E+03 0.  0.
         25    1    4    4    0    0  0.42888139876E+02  0.19739606992E+02 -0.48530826302E+02  0.14223851035E+03  0.12509000000E+03 0.  0.
<mgrwt>
<rscale>  2 0.45564861E+03</rscale>
<asrwt>0</asrwt>
<pdfrwt beam="1">  1       21 0.22201889E-01 0.45564861E+03</pdfrwt>
<pdfrwt beam="2">  1       21 0.50558287E-01 0.45564861E+03</pdfrwt>
<totfact> 0.65302825E+04</totfact>
</mgrwt>
</event>
<event>
 7    0  0.4831799E-002  0.4514145E+03  0.7546771E-02  0.1027301E+00
         21   -1    0    0  502  501  0.00000000000E+00  0.00000000000E+00  0.74251265505E+02  0.74251265505E+02  0.00000000000E+00 0.  1.
         21   -1    0    0  501  502 -0.00000000000E+00 -0.00000000000E+00 -0.68609945647E+03  0.68609945647E+03  0.00000000000E+00 0.  1.
      99926    2    1    2    0    0  0.00000000000E+00 -0.14210854715E-13 -0.61184819097E+03  0.76035072198E+03  0.45141445659E+03 0.  0.
      99925    2    3    3    0    0 -0.73536247733E+02  0.74842761942E+02 -0.44044969562E+03  0.52363576459E+03  0.26303889605E+03 0.  0.
         25    1    4    4    0    0 -0.44104175455E+02  0.17071657166E+01 -0.24442344210E+03  0.27809786021E+03  0.12509000000E+03 0.  0.
         25    1    3    3    0    0  0.73536247733E+02 -0.74842761942E+02 -0.17139849534E+03  0.23671495739E+03  0.12509000000E+03 0.  0.
         25    1    4    4    0    0 -0.29432072278E+02  0.73135596225E+02 -0.19602625352E+03  0.24553790437E+03  0.12509000000E+03 0.  0.
<mgrwt>
<rscale>  2 0.45141446E+03</rscale>
<asrwt>0</asrwt>
<pdfrwt beam="1">  1       21 0.10919303E-01 0.45141446E+03</pdfrwt>
<pdfrwt beam="2">  1       21 0.10089698E+00 0.45141446E+03</pdfrwt>
<totfact> 0.51167240E+04</totfact>
</mgrwt>
</event>
<event>
 6    0  0.4831799E-002  0.4292954E+03  0.7546771E-02  0.1034083E+00
         21   -1    0    0  502  501  0.00000000000E+00  0.00000000000E+00  0.17265433059E+03  0.17265433059E+03  0.00000000000E+00 0.  1.
         21   -1    0    0  501  502 -0.00000000000E+00 -0.00000000000E+00 -0.26685476402E+03  0.26685476402E+03  0.00000000000E+00 0.  1.
      99926    2    1    2    0    0  0.00000000000E+00  0.00000000000E+00 -0.94200433427E+02  0.43950909461E+03  0.42929537919E+03 0.  0.
         25    1    3    3    0    0  0.10540027873E+02  0.47009451548E+02  0.46630126987E+01  0.13412767242E+03  0.12509000000E+03 0.  0.
         25    1    3    3    0    0 -0.38126590130E+02  0.36645146828E+02 -0.51147608806E+02  0.14512094834E+03  0.12509000000E+03 0.  0.
         25    1    3    3    0    0  0.27586562257E+02 -0.83654598377E+02 -0.47715837320E+02  0.16026047385E+03  0.12509000000E+03 0.  0.
<mgrwt>
<rscale>  2 0.42929538E+03</rscale>
<asrwt>0</asrwt>
<pdfrwt beam="1">  1       21 0.25390343E-01 0.42929538E+03</pdfrwt>
<pdfrwt beam="2">  1       21 0.39243347E-01 0.42929538E+03</pdfrwt>
<totfact> 0.86014968E+04</totfact>
</mgrwt>
</event>
<event>
 7    0  0.4831799E-002  0.4558880E+03  0.7546771E-02  0.1025981E+00
         21   -1    0    0  502  501  0.00000000000E+00  0.00000000000E+00  0.88824919076E+02  0.88824919076E+02  0.00000000000E+00 0.  1.
         21   -1    0    0  501  502 -0.00000000000E+00 -0.00000000000E+00 -0.58495379857E+03  0.58495379857E+03  0.00000000000E+00 0.  1.
      99926    2    1    2    0    0 -0.22204460493E-14  0.00000000000E+00 -0.49612887949E+03  0.67377871765E+03  0.45588802933E+03 0.  0.
      99925    2    3    3    0    0  0.26813496210E+01  0.32555399904E+02 -0.47329083528E+03  0.54249228247E+03  0.26310951727E+03 0.  0.
         25    1    3    3    0    0 -0.26813496210E+01 -0.32555399904E+02 -0.22838044215E+02  0.13128643518E+03  0.12509000000E+03 0.  0.
         25    1    4    4    0    0 -0.25101012381E+02  0.33359172664E+02 -0.29293675666E+03  0.32125122058E+03  0.12509000000E+03 0.  0.
         25    1    4    4    0    0  0.27782362002E+02 -0.80377276052E+00 -0.18035407862E+03  0.22124106189E+03  0.12509000000E+03 0.  0.
<mgrwt>
<rscale>  2 0.45588803E+03</rscale>
<asrwt>0</asrwt>
<pdfrwt beam="1">  1       21 0.13062488E-01 0.45588803E+03</pdfrwt>
<pdfrwt beam="2">  1       21 0.86022621E-01 0.45588803E+03</pdfrwt>
<totfact> 0.53971404E+04</totfact>
</mgrwt>
</event>
<event>
 7    0  0.4831799E-002  0.4516449E+03  0.7546771E-02  0.1027233E+00
         21   -1    0    0  502  501  0.00000000000E+00  0.00000000000E+00  0.32118009047E+03  0.32118009047E+03  0.00000000000E+00 0.  1.
         21   -1    0    0  501  502 -0.00000000000E+00 -0.00000000000E+00 -0.15877629507E+03  0.15877629507E+03  0.00000000000E+00 0.  1.
      99926    2    1    2    0    0  0.00000000000E+00  0.00000000000E+00  0.16240379540E+03  0.47995638553E+03  0.45164492608E+03 0.  0.
      99925    2    3    3    0    0  0.92143174367E+02  0.57789562482E+02  0.11922789484E+03  0.30866229748E+03  0.26311048033E+03 0.  0.
         25    1    3    3    0    0 -0.92143174367E+02 -0.57789562482E+02  0.43175900560E+02  0.17129408806E+03  0.12509000000E+03 0.  0.
         25    1    4    4    0    0  0.44811873255E+02 -0.63366940700E+01  0.80041195536E+02  0.15524934383E+03  0.12509000000E+03 0.  0.
         25    1    4    4    0    0  0.47331301112E+02  0.64126256552E+02  0.39186699308E+02  0.15341295365E+03  0.12509000000E+03 0.  0.
<mgrwt>
<rscale>  2 0.45164493E+03</rscale>
<asrwt>0</asrwt>
<pdfrwt beam="1">  1       21 0.47232366E-01 0.45164493E+03</pdfrwt>
<pdfrwt beam="2">  1       21 0.23349455E-01 0.45164493E+03</pdfrwt>
<totfact> 0.68509734E+04</totfact>
</mgrwt>
</event>
<event>
 7    0  0.4831799E-002  0.4530236E+03  0.7546771E-02  0.1026824E+00
         21   -1    0    0  502  501  0.00000000000E+00  0.00000000000E+00  0.38790521847E+03  0.38790521847E+03  0.00000000000E+00 0. -1.
         21   -1    0    0  501  502 -0.00000000000E+00 -0.00000000000E+00 -0.13226836417E+03  0.13226836417E+03  0.00000000000E+00 0. -1.
      99926    2    1    2    0    0  0.00000000000E+00  0.14210854715E-13  0.25563685430E+03  0.52017358264E+03  0.45302356981E+03 0.  0.
      99925    2    3    3    0    0 -0.80718671255E+02  0.76777624133E+02  0.16199342556E+03  0.32827020252E+03  0.26288618921E+03 0.  0.
         25    1    4    4    0    0 -0.25013840980E+01  0.53616173066E+02  0.73925289899E+02  0.15489805526E+03  0.12509000000E+03 0.  0.
         25    1    4    4    0    0 -0.78217287157E+02  0.23161451067E+02  0.88068135662E+02  0.17337214726E+03  0.12509000000E+03 0.  0.
         25    1    3    3    0    0  0.80718671255E+02 -0.76777624133E+02  0.93643428737E+02  0.19190338012E+03  0.12509000000E+03 0.  0.
<mgrwt>
<rscale>  2 0.45302357E+03</rscale>
<asrwt>0</asrwt>
<pdfrwt beam="1">  1       21 0.57044885E-01 0.45302357E+03</pdfrwt>
<pdfrwt beam="2">  1       21 0.19451230E-01 0.45302357E+03</pdfrwt>
<totfact> 0.64886894E+04</totfact>
</mgrwt>
</event>
<event>
 7    0  0.4831799E-002  0.4570059E+03  0.7546771E-02  0.1025653E+00
         21   -1    0    0  502  501  0.00000000000E+00  0.00000000000E+00  0.11517571537E+04  0.11517571537E+04  0.00000000000E+00 0. -1.
         21   -1    0    0  501  502 -0.00000000000E+00 -0.00000000000E+00 -0.45333861053E+02  0.45333861053E+02  0.00000000000E+00 0. -1.
      99926    2    1    2    0    0 -0.71054273576E-14  0.00000000000E+00  0.11064232927E+04  0.11970910148E+04  0.45700590269E+03 0.  0.
      99925    2    3    3    0    0 -0.36042197455E+02  0.64160839188E+02  0.46418933939E+03  0.53866287737E+03  0.26319251389E+03 0.  0.
         25    1    4    4    0    0 -0.17070821664E+02  0.47751362467E+02  0.16343324488E+03  0.21196589160E+03  0.12509000000E+03 0.  0.
         25    1    3    3    0    0  0.36042197455E+02 -0.64160839188E+02  0.64223395329E+03  0.65842813742E+03  0.12509000000E+03 0.  0.
         25    1    4    4    0    0 -0.18971375791E+02  0.16409476721E+02  0.30075609451E+03  0.32669698577E+03  0.12509000000E+03 0.  0.
<mgrwt>
<rscale>  2 0.45700590E+03</rscale>
<asrwt>0</asrwt>
<pdfrwt beam="1">  1       21 0.16937603E+00 0.45700590E+03</pdfrwt>
<pdfrwt beam="2">  1       21 0.66667450E-02 0.45700590E+03</pdfrwt>
<totfact> 0.31749248E+04</totfact>
</mgrwt>
</event>
<event>
 7    0  0.4831799E-002  0.4562442E+03  0.7546771E-02  0.1025876E+00
         21   -1    0    0  502  501  0.00000000000E+00  0.00000000000E+00  0.23866632541E+03  0.23866632541E+03  0.00000000000E+00 0. -1.
         21   -1    0    0  501  502 -0.00000000000E+00 -0.00000000000E+00 -0.21804374614E+03  0.21804374614E+03  0.00000000000E+00 0. -1.
      99926    2    1    2    0    0  0.00000000000E+00  0.71054273576E-14  0.20622579267E+02  0.45671007154E+03  0.45624423139E+03 0.  0.
      99925    2    3    3    0    0 -0.10767968299E+03 -0.35199249561E+02  0.13884488266E+01  0.28685318716E+03  0.26353163358E+03 0.  0.
         25    1    4    4    0    0 -0.90123804435E+02  0.41553164213E+01  0.74438011237E+01  0.15441011967E+03  0.12509000000E+03 0.  0.
         25    1    3    3    0    0  0.10767968299E+03  0.35199249561E+02  0.19234130441E+02  0.16985688438E+03  0.12509000000E+03 0.  0.
         25    1    4    4    0    0 -0.17555878555E+02 -0.39354565982E+02 -0.60553522972E+01  0.13244306749E+03  0.12509000000E+03 0.  0.
<mgrwt>
<rscale>  2 0.45624423E+03</rscale>
<asrwt>0</asrwt>
<pdfrwt beam="1">  1       21 0.35097989E-01 0.45624423E+03</pdfrwt>
<pdfrwt beam="2">  1       21 0.32065257E-01 0.45624423E+03</pdfrwt>
<totfact> 0.67745667E+04</totfact>
</mgrwt>
</event>
<event>
 7    0  0.4831799E-002  0.4442795E+03  0.7546771E-02  0.1029442E+00
         21   -1    0    0  502  501  0.00000000000E+00  0.00000000000E+00  0.11648515830E+04  0.11648515830E+04  0.00000000000E+00 0.  1.
         21   -1    0    0  501  502 -0.00000000000E+00 -0.00000000000E+00 -0.42362538701E+02  0.42362538701E+02  0.00000000000E+00 0.  1.
      99926    2    1    2    0    0  0.00000000000E+00 -0.35527136788E-14  0.11224890443E+04  0.12072141217E+04  0.44427950781E+03 0.  0.
      99925    2    3    3    0    0 -0.43717833049E+02 -0.12610532337E+02  0.46292165004E+03  0.53434940267E+03  0.26298774800E+03 0.  0.
         25    1    4    4    0    0 -0.58938862200E+02 -0.19056591487E+02  0.21850493738E+03  0.25928528480E+03  0.12509000000E+03 0.  0.
         25    1    3    3    0    0  0.43717833049E+02  0.12610532337E+02  0.65956739424E+03  0.67286471901E+03  0.12509000000E+03 0.  0.
         25    1    4    4    0    0  0.15221029151E+02  0.64460591500E+01  0.24441671266E+03  0.27506411787E+03  0.12509000000E+03 0.  0.
<mgrwt>
<rscale>  2 0.44427951E+03</rscale>
<asrwt>0</asrwt>
<pdfrwt beam="1">  1       21 0.17130168E+00 0.44427951E+03</pdfrwt>
<pdfrwt beam="2">  1       21 0.62297858E-02 0.44427951E+03</pdfrwt>
<totfact> 0.34739690E+04</totfact>
</mgrwt>
</event>
<event>
 7    0  0.4831799E-002  0.4512345E+03  0.7546771E-02  0.1027355E+00
         21   -1    0    0  502  501  0.00000000000E+00  0.00000000000E+00  0.72188149264E+02  0.72188149264E+02  0.00000000000E+00 0. -1.
         21   -1    0    0  501  502 -0.00000000000E+00 -0.00000000000E+00 -0.70514556535E+03  0.70514556535E+03  0.00000000000E+00 0. -1.
      99926    2    1    2    0    0  0.00000000000E+00 -0.14210854715E-13 -0.63295741608E+03  0.77733371461E+03  0.45123454355E+03 0.  0.
      99925    2    3    3    0    0 -0.44697365148E+02  0.95890507451E+02 -0.45028194727E+03  0.53195507072E+03  0.26273469767E+03 0.  0.
         25    1    4    4    0    0 -0.40435944373E+01  0.64660266449E+02 -0.28902824169E+03  0.32153092123E+03  0.12509000000E+03 0.  0.
         25    1    4    4    0    0 -0.40653770710E+02  0.31230241002E+02 -0.16125370557E+03  0.21042414949E+03  0.12509000000E+03 0.  0.
         25    1    3    3    0    0  0.44697365148E+02 -0.95890507451E+02 -0.18267546882E+03  0.24537864389E+03  0.12509000000E+03 0.  0.
<mgrwt>
<rscale>  2 0.45123454E+03</rscale>
<asrwt>0</asrwt>
<pdfrwt beam="1">  1       21 0.10615904E-01 0.45123454E+03</pdfrwt>
<pdfrwt beam="2">  1       21 0.10369788E+00 0.45123454E+03</pdfrwt>
<totfact> 0.50352572E+04</totfact>
</mgrwt>
</event>
<event>
 7    0  0.4831799E-002  0.4442988E+03  0.7546771E-02  0.1029436E+00
         21   -1    0    0  502  501  0.00000000000E+00  0.00000000000E+00  0.48145621301E+03  0.48145621301E+03  0.00000000000E+00 0. -1.
         21   -1    0    0  501  502 -0.00000000000E+00 -0.00000000000E+00 -0.10250226778E+03  0.10250226778E+03  0.00000000000E+00 0. -1.
      99926    2    1    2    0    0 -0.14210854715E-13  0.00000000000E+00  0.37895394522E+03  0.58395848079E+03  0.44429878988E+03 0.  0.
      99925    2    3    3    0    0  0.90162700887E+02 -0.47508353208E+02  0.21564187706E+03  0.35438344738E+03  0.26210656684E+03 0.  0.
         25    1    3    3    0    0 -0.90162700887E+02  0.47508353208E+02  0.16331206816E+03  0.22957503341E+03  0.12509000000E+03 0.  0.
         25    1    4    4    0    0  0.68269282309E+02 -0.59283812014E+01  0.78073088054E+02  0.16259998705E+03  0.12509000000E+03 0.  0.
         25    1    4    4    0    0  0.21893418577E+02 -0.41579972007E+02  0.13756878900E+03  0.19178346033E+03  0.12509000000E+03 0.  0.
<mgrwt>
<rscale>  2 0.44429879E+03</rscale>
<asrwt>0</asrwt>
<pdfrwt beam="1">  1       21 0.70802383E-01 0.44429879E+03</pdfrwt>
<pdfrwt beam="2">  1       21 0.15073863E-01 0.44429879E+03</pdfrwt>
<totfact> 0.65003158E+04</totfact>
</mgrwt>
</event>
<event>
 7    0  0.4831799E-002  0.4616676E+03  0.7546771E-02  0.1024299E+00
         21   -1    0    0  502  501  0.00000000000E+00  0.00000000000E+00  0.97033817506E+02  0.97033817506E+02  0.00000000000E+00 0.  1.
         21   -1    0    0  501  502 -0.00000000000E+00 -0.00000000000E+00 -0.54913063115E+03  0.54913063115E+03  0.00000000000E+00 0.  1.
      99926    2    1    2    0    0  0.35527136788E-14  0.00000000000E+00 -0.45209681365E+03  0.64616444866E+03  0.46166759232E+03 0.  0.
      99925    2    3    3    0    0  0.26870530617E+02 -0.11424936977E+03 -0.25195466305E+03  0.38257512328E+03  0.26288329884E+03 0.  0.
         25    1    4    4    0    0 -0.15309379921E+02 -0.77277951849E+02 -0.15803191899E+03  0.21639744563E+03  0.12509000000E+03 0.  0.
         25    1    3    3    0    0 -0.26870530617E+02  0.11424936977E+03 -0.20014215060E+03  0.26358932538E+03  0.12509000000E+03 0.  0.
         25    1    4    4    0    0  0.42179910538E+02 -0.36971417925E+02 -0.93922744053E+02  0.16617767764E+03  0.12509000000E+03 0.  0.
<mgrwt>
<rscale>  2 0.46166759E+03</rscale>
<asrwt>0</asrwt>
<pdfrwt beam="1">  1       21 0.14269679E-01 0.46166759E+03</pdfrwt>
<pdfrwt beam="2">  1       21 0.80754506E-01 0.46166759E+03</pdfrwt>
<totfact> 0.53075116E+04</totfact>
</mgrwt>
</event>
<event>
 7    0  0.4831799E-002  0.4456135E+03  0.7546771E-02  0.1029038E+00
         21   -1    0    0  502  501  0.00000000000E+00  0.00000000000E+00  0.27114931852E+03  0.27114931852E+03  0.00000000000E+00 0.  1.
         21   -1    0    0  501  502 -0.00000000000E+00 -0.00000000000E+00 -0.18308303463E+03  0.18308303463E+03  0.00000000000E+00 0.  1.
      99926    2    1    2    0    0  0.17763568394E-14  0.00000000000E+00  0.88066283887E+02  0.45423235315E+03  0.44561346511E+03 0.  0.
      99925    2    3    3    0    0  0.15721614297E+02 -0.72155920137E+02 -0.18910176375E+02  0.27382970040E+03  0.26300468453E+03 0.  0.
         25    1    3    3    0    0 -0.15721614297E+02  0.72155920137E+02  0.10697646026E+03  0.18040265274E+03  0.12509000000E+03 0.  0.
         25    1    4    4    0    0  0.13051651094E+02 -0.49191821152E+02 -0.48024761772E+02  0.14333201564E+03  0.12509000000E+03 0.  0.
         25    1    4    4    0    0  0.26699632023E+01 -0.22964098985E+02  0.29114585397E+02  0.13049768476E+03  0.12509000000E+03 0.  0.
<mgrwt>
<rscale>  2 0.44561347E+03</rscale>
<asrwt>0</asrwt>
<pdfrwt beam="1">  1       21 0.39874900E-01 0.44561347E+03</pdfrwt>
<pdfrwt beam="2">  1       21 0.26923975E-01 0.44561347E+03</pdfrwt>
<totfact> 0.73984157E+04</totfact>
</mgrwt>
</event>
<event>
 7    0  0.4831799E-002  0.4530925E+03  0.7546771E-02  0.1026804E+00
         21   -1    0    0  502  501  0.00000000000E+00  0.00000000000E+00  0.21901745312E+03  0.21901745312E+03  0.00000000000E+00 0. -1.
         21   -1    0    0  501  502 -0.00000000000E+00 -0.00000000000E+00 -0.23433382640E+03  0.23433382640E+03  0.00000000000E+00 0. -1.
      99926    2    1    2    0    0 -0.14210854715E-13  0.14210854715E-13 -0.15316373287E+02  0.45335127952E+03  0.45309247550E+03 0.  0.
      99925    2    3    3    0    0  0.89334555355E+02 -0.63803495098E+02  0.90684352351E+01  0.28514403903E+03  0.26300824646E+03 0.  0.
         25    1    3    3    0    0 -0.89334555355E+02  0.63803495098E+02 -0.24384808522E+02  0.16820724049E+03  0.12509000000E+03 0.  0.
         25    1    4    4    0    0  0.59299215878E+02 -0.44154263464E+02  0.41328086661E+02  0.15106791464E+03  0.12509000000E+03 0.  0.
         25    1    4    4    0    0  0.30035339477E+02 -0.19649231634E+02 -0.32259651426E+02  0.13407612439E+03  0.12509000000E+03 0.  0.
<mgrwt>
<rscale>  2 0.45309248E+03</rscale>
<asrwt>0</asrwt>
<pdfrwt beam="1">  1       21 0.32208449E-01 0.45309248E+03</pdfrwt>
<pdfrwt beam="2">  1       21 0.34460857E-01 0.45309248E+03</pdfrwt>
<totfact> 0.69721897E+04</totfact>
</mgrwt>
</event>
<event>
 7    0  0.4831799E-002  0.4502328E+03  0.7546771E-02  0.1027653E+00
         21   -1    0    0  502  501  0.00000000000E+00  0.00000000000E+00  0.28725251981E+03  0.28725251981E+03  0.00000000000E+00 0. -1.
         21   -1    0    0  501  502 -0.00000000000E+00 -0.00000000000E+00 -0.17642109605E+03  0.17642109605E+03  0.00000000000E+00 0. -1.
      99926    2    1    2    0    0  0.00000000000E+00  0.00000000000E+00  0.11083142376E+03  0.46367361585E+03  0.45023284814E+03 0.  0.
      99925    2    3    3    0    0  0.41159027109E+02  0.10060661851E+03  0.66201437792E+02  0.29204873145E+03  0.26285751649E+03 0.  0.
         25    1    3    3    0    0 -0.41159027109E+02 -0.10060661851E+03  0.44629985967E+02  0.17162488441E+03  0.12509000000E+03 0.  0.
         25    1    4    4    0    0 -0.17471474872E+02  0.63379921498E+02  0.35783491638E+02  0.14577459743E+03  0.12509000000E+03 0.  0.
         25    1    4    4    0    0  0.58630501982E+02  0.37226697008E+02  0.30417946154E+02  0.14627413401E+03  0.12509000000E+03 0.  0.
<mgrwt>
<rscale>  2 0.45023285E+03</rscale>
<asrwt>0</asrwt>
<pdfrwt beam="1">  1       21 0.42243018E-01 0.45023285E+03</pdfrwt>
<pdfrwt beam="2">  1       21 0.25944279E-01 0.45023285E+03</pdfrwt>
<totfact> 0.70539176E+04</totfact>
</mgrwt>
</event>
<event>
 7    0  0.4831799E-002  0.4510296E+03  0.7546771E-02  0.1027415E+00
         21   -1    0    0  502  501  0.00000000000E+00  0.00000000000E+00  0.45113986378E+03  0.45113986378E+03  0.00000000000E+00 0. -1.
         21   -1    0    0  501  502 -0.00000000000E+00 -0.00000000000E+00 -0.11272982838E+03  0.11272982838E+03  0.00000000000E+00 0. -1.
      99926    2    1    2    0    0  0.17763568394E-14  0.00000000000E+00  0.33841003541E+03  0.56386969216E+03  0.45102957516E+03 0.  0.
      99925    2    3    3    0    0 -0.14783157990E+02 -0.57225554052E+02  0.32881928972E+03  0.42518733459E+03  0.26299969280E+03 0.  0.
         25    1    3    3    0    0  0.14783157990E+02  0.57225554052E+02  0.95907456844E+01  0.13868235756E+03  0.12509000000E+03 0.  0.
         25    1    4    4    0    0 -0.34268637258E+02 -0.52639292821E+02  0.14134849517E+03  0.19892747381E+03  0.12509000000E+03 0.  0.
         25    1    4    4    0    0  0.19485479268E+02 -0.45862612314E+01  0.18747079455E+03  0.22625986079E+03  0.12509000000E+03 0.  0.
<mgrwt>
<rscale>  2 0.45102958E+03</rscale>
<asrwt>0</asrwt>
<pdfrwt beam="1">  1       21 0.66344097E-01 0.45102958E+03</pdfrwt>
<pdfrwt beam="2">  1       21 0.16577916E-01 0.45102958E+03</pdfrwt>
<totfact> 0.62911599E+04</totfact>
</mgrwt>
</event>
<event>
 7    0  0.4831799E-002  0.4584353E+03  0.7546771E-02  0.1025236E+00
         21   -1    0    0  502  501  0.00000000000E+00  0.00000000000E+00  0.79551934196E+02  0.79551934196E+02  0.00000000000E+00 0.  1.
         21   -1    0    0  501  502 -0.00000000000E+00 -0.00000000000E+00 -0.66045815426E+03  0.66045815426E+03  0.00000000000E+00 0.  1.
      99926    2    1    2    0    0 -0.35527136788E-14  0.00000000000E+00 -0.58090622007E+03  0.74001008846E+03  0.45843526752E+03 0.  0.
      99925    2    3    3    0    0  0.23503437946E+02 -0.60929894279E+02 -0.20915888009E+03  0.34238154761E+03  0.26308330128E+03 0.  0.
         25    1    4    4    0    0  0.20392595169E+02 -0.24567047631E+02 -0.54461791902E+02  0.14011778133E+03  0.12509000000E+03 0.  0.
         25    1    4    4    0    0  0.31108427780E+01 -0.36362846648E+02 -0.15469708819E+03  0.20226376629E+03  0.12509000000E+03 0.  0.
         25    1    3    3    0    0 -0.23503437946E+02  0.60929894279E+02 -0.37174733998E+03  0.39762854084E+03  0.12509000000E+03 0.  0.
<mgrwt>
<rscale>  2 0.45843527E+03</rscale>
<asrwt>0</asrwt>
<pdfrwt beam="1">  1       21 0.11698814E-01 0.45843527E+03</pdfrwt>
<pdfrwt beam="2">  1       21 0.97126199E-01 0.45843527E+03</pdfrwt>
<totfact> 0.49435261E+04</totfact>
</mgrwt>
</event>
<event>
 7    0  0.4831799E-002  0.4274829E+03  0.7546771E-02  0.1034658E+00
         21   -1    0    0  502  501  0.00000000000E+00  0.00000000000E+00  0.10041431738E+03  0.10041431738E+03  0.00000000000E+00 0.  1.
         21   -1    0    0  501  502 -0.00000000000E+00 -0.00000000000E+00 -0.45496896661E+03  0.45496896661E+03  0.00000000000E+00 0.  1.
      99926    2    1    2    0    0  0.00000000000E+00  0.00000000000E+00 -0.35455464923E+03  0.55538328399E+03  0.42748285679E+03 0.  0.
      99925    2    3    3    0    0  0.48881747567E+02  0.50023860353E+02 -0.16668303056E+03  0.31908883833E+03  0.26294988537E+03 0.  0.
         25    1    4    4    0    0  0.37202516600E+02  0.22306038920E+02 -0.12942228050E+03  0.18514648634E+03  0.12509000000E+03 0.  0.
         25    1    3    3    0    0 -0.48881747567E+02 -0.50023860353E+02 -0.18787161867E+03  0.23629444566E+03  0.12509000000E+03 0.  0.
         25    1    4    4    0    0  0.11679230966E+02  0.27717821433E+02 -0.37260750059E+02  0.13394235199E+03  0.12509000000E+03 0.  0.
<mgrwt>
<rscale>  2 0.42748286E+03</rscale>
<asrwt>0</asrwt>
<pdfrwt beam="1">  1       21 0.14766812E-01 0.42748286E+03</pdfrwt>
<pdfrwt beam="2">  1       21 0.66907199E-01 0.42748286E+03</pdfrwt>
<totfact> 0.76942052E+04</totfact>
</mgrwt>
</event>
<event>
 7    0  0.4831799E-002  0.4684562E+03  0.7546771E-02  0.1022357E+00
         21   -1    0    0  502  501  0.00000000000E+00  0.00000000000E+00  0.11804934365E+03  0.11804934365E+03  0.00000000000E+00 0.  1.
         21   -1    0    0  501  502 -0.00000000000E+00 -0.00000000000E+00 -0.46474458016E+03  0.46474458016E+03  0.00000000000E+00 0.  1.
      99926    2    1    2    0    0  0.00000000000E+00 -0.17763568394E-14 -0.34669523650E+03  0.58279392381E+03  0.46845615656E+03 0.  0.
      99925    2    3    3    0    0  0.75362575823E+02 -0.56344647606E+01 -0.91215447036E+02  0.28846639205E+03  0.26302345245E+03 0.  0.
         25    1    4    4    0    0  0.11821569489E+02 -0.24533262270E+02 -0.18616397442E+02  0.12936656762E+03  0.12509000000E+03 0.  0.
         25    1    4    4    0    0  0.63541006333E+02  0.18898797510E+02 -0.72599049594E+02  0.15909982443E+03  0.12509000000E+03 0.  0.
         25    1    3    3    0    0 -0.75362575823E+02  0.56344647606E+01 -0.25547978947E+03  0.29432753176E+03  0.12509000000E+03 0.  0.
<mgrwt>
<rscale>  2 0.46845616E+03</rscale>
<asrwt>0</asrwt>
<pdfrwt beam="1">  1       21 0.17360198E-01 0.46845616E+03</pdfrwt>
<pdfrwt beam="2">  1       21 0.68344791E-01 0.46845616E+03</pdfrwt>
<totfact> 0.53794960E+04</totfact>
</mgrwt>
</event>
<event>
 7    0  0.4831799E-002  0.4550649E+03  0.7546771E-02  0.1026222E+00
         21   -1    0    0  502  501  0.00000000000E+00  0.00000000000E+00  0.36603248780E+03  0.36603248780E+03  0.00000000000E+00 0.  1.
         21   -1    0    0  501  502 -0.00000000000E+00 -0.00000000000E+00 -0.14143830179E+03  0.14143830179E+03  0.00000000000E+00 0.  1.
      99926    2    1    2    0    0  0.00000000000E+00  0.71054273576E-14  0.22459418601E+03  0.50747078958E+03  0.45506488976E+03 0.  0.
      99925    2    3    3    0    0  0.91377739350E+02 -0.50396411217E+02  0.92439257458E+02  0.29770396010E+03  0.26304551322E+03 0.  0.
         25    1    4    4    0    0  0.52395496498E+02 -0.97518132807E+01  0.71258263858E+01  0.13615678983E+03  0.12509000000E+03 0.  0.
         25    1    4    4    0    0  0.38982242852E+02 -0.40644597936E+02  0.85313431072E+02  0.16154717026E+03  0.12509000000E+03 0.  0.
         25    1    3    3    0    0 -0.91377739350E+02  0.50396411217E+02  0.13215492856E+03  0.20976682949E+03  0.12509000000E+03 0.  0.
<mgrwt>
<rscale>  2 0.45506489E+03</rscale>
<asrwt>0</asrwt>
<pdfrwt beam="1">  1       21 0.53828307E-01 0.45506489E+03</pdfrwt>
<pdfrwt beam="2">  1       21 0.20799750E-01 0.45506489E+03</pdfrwt>
<totfact> 0.64715602E+04</totfact>
</mgrwt>
</event>
<event>
 7    0  0.4831799E-002  0.4569663E+03  0.7546771E-02  0.1025665E+00
         21   -1    0    0  502  501  0.00000000000E+00  0.00000000000E+00  0.90613465376E+02  0.90613465376E+02  0.00000000000E+00 0.  1.
         21   -1    0    0  501  502 -0.00000000000E+00 -0.00000000000E+00 -0.57612361763E+03  0.57612361763E+03  0.00000000000E+00 0.  1.
      99926    2    1    2    0    0  0.53290705182E-14  0.00000000000E+00 -0.48551015226E+03  0.66673708301E+03  0.45696633346E+03 0.  0.
      99925    2    3    3    0    0  0.13421972154E+02 -0.55389812957E+02 -0.15931909185E+03  0.31276491361E+03  0.26304208303E+03 0.  0.
         25    1    4    4    0    0  0.40155892019E+02 -0.23438835643E+02 -0.53776650327E+02  0.14387950132E+03  0.12509000000E+03 0.  0.
         25    1    4    4    0    0 -0.26733919865E+02 -0.31950977314E+02 -0.10554244152E+03  0.16888541229E+03  0.12509000000E+03 0.  0.
         25    1    3    3    0    0 -0.13421972154E+02  0.55389812957E+02 -0.32619106041E+03  0.35397216940E+03  0.12509000000E+03 0.  0.
<mgrwt>
<rscale>  2 0.45696633E+03</rscale>
<asrwt>0</asrwt>
<pdfrwt beam="1">  1       21 0.13325510E-01 0.45696633E+03</pdfrwt>
<pdfrwt beam="2">  1       21 0.84724061E-01 0.45696633E+03</pdfrwt>
<totfact> 0.53905741E+04</totfact>
</mgrwt>
</event>
<event>
 7    0  0.4831799E-002  0.4568141E+03  0.7546771E-02  0.1025709E+00
         21   -1    0    0  502  501  0.00000000000E+00  0.00000000000E+00  0.98444635074E+03  0.98444635074E+03  0.00000000000E+00 0.  1.
         21   -1    0    0  501  502 -0.00000000000E+00 -0.00000000000E+00 -0.52994031861E+02  0.52994031861E+02  0.00000000000E+00 0.  1.
      99926    2    1    2    0    0 -0.35527136788E-14  0.71054273576E-14  0.93145231887E+03  0.10374403826E+04  0.45681410345E+03 0.  0.
      99925    2    3    3    0    0 -0.16739020424E+02  0.59625196721E+02  0.36553688623E+03  0.45456548702E+03  0.26301560392E+03 0.  0.
         25    1    4    4    0    0 -0.44626544550E+02  0.14948766221E+02  0.16353799450E+03  0.21120411415E+03  0.12509000000E+03 0.  0.
         25    1    3    3    0    0  0.16739020424E+02 -0.59625196721E+02  0.56591543264E+03  0.58287489557E+03  0.12509000000E+03 0.  0.
         25    1    4    4    0    0  0.27887524126E+02  0.44676430499E+02  0.20199889173E+03  0.24336137287E+03  0.12509000000E+03 0.  0.
<mgrwt>
<rscale>  2 0.45681410E+03</rscale>
<asrwt>0</asrwt>
<pdfrwt beam="1">  1       21 0.14477151E+00 0.45681410E+03</pdfrwt>
<pdfrwt beam="2">  1       21 0.77932406E-02 0.45681410E+03</pdfrwt>
<totfact> 0.37211875E+04</totfact>
</mgrwt>
</event>
<event>
 7    0  0.4831799E-002  0.4529564E+03  0.7546771E-02  0.1026844E+00
         21   -1    0    0  502  501  0.00000000000E+00  0.00000000000E+00  0.56741042541E+03  0.56741042541E+03  0.00000000000E+00 0. -1.
         21   -1    0    0  501  502 -0.00000000000E+00 -0.00000000000E+00 -0.90397305116E+02  0.90397305116E+02  0.00000000000E+00 0. -1.
      99926    2    1    2    0    0  0.00000000000E+00  0.00000000000E+00  0.47701312030E+03  0.65780773053E+03  0.45295639239E+03 0.  0.
      99925    2    3    3    0    0 -0.74724988970E+02  0.82321696673E+02  0.29797873627E+03  0.41273324291E+03  0.26305268828E+03 0.  0.
         25    1    3    3    0    0  0.74724988970E+02 -0.82321696673E+02  0.17903438403E+03  0.24507448762E+03  0.12509000000E+03 0.  0.
         25    1    4    4    0    0 -0.66690086607E+02  0.24329043839E+02  0.11909747040E+03  0.18673828097E+03  0.12509000000E+03 0.  0.
         25    1    4    4    0    0 -0.80349023630E+01  0.57992652834E+02  0.17888126587E+03  0.22599496193E+03  0.12509000000E+03 0.  0.
<mgrwt>
<rscale>  2 0.45295639E+03</rscale>
<asrwt>0</asrwt>
<pdfrwt beam="1">  1       21 0.83442708E-01 0.45295639E+03</pdfrwt>
<pdfrwt beam="2">  1       21 0.13293722E-01 0.45295639E+03</pdfrwt>
<totfact> 0.56153235E+04</totfact>
</mgrwt>
</event>
<event>
 7    0  0.4831799E-002  0.4533099E+03  0.7546771E-02  0.1026740E+00
         21   -1    0    0  502  501  0.00000000000E+00  0.00000000000E+00  0.75621660104E+03  0.75621660104E+03  0.00000000000E+00 0.  1.
         21   -1    0    0  501  502 -0.00000000000E+00 -0.00000000000E+00 -0.67933548285E+02  0.67933548285E+02  0.00000000000E+00 0.  1.
      99926    2    1    2    0    0  0.00000000000E+00  0.71054273576E-14  0.68828305275E+03  0.82415014933E+03  0.45330994686E+03 0.  0.
      99925    2    3    3    0    0  0.55174015029E+02 -0.46888916594E+02  0.27941449208E+03  0.39048697307E+03  0.26299215828E+03 0.  0.
         25    1    3    3    0    0 -0.55174015029E+02  0.46888916594E+02  0.40886856067E+03  0.43366317626E+03  0.12509000000E+03 0.  0.
         25    1    4    4    0    0 -0.45412793781E+01 -0.46496983085E+02  0.12379603981E+03  0.18208668328E+03  0.12509000000E+03 0.  0.
         25    1    4    4    0    0  0.59715294407E+02 -0.39193350815E+00  0.15561845227E+03  0.20840028979E+03  0.12509000000E+03 0.  0.
<mgrwt>
<rscale>  2 0.45330995E+03</rscale>
<asrwt>0</asrwt>
<pdfrwt beam="1">  1       21 0.11120832E+00 0.45330995E+03</pdfrwt>
<pdfrwt beam="2">  1       21 0.99902281E-02 0.45330995E+03</pdfrwt>
<totfact> 0.47242147E+04</totfact>
</mgrwt>
</event>
<event>
 7    0  0.4831799E-002  0.4566267E+03  0.7546771E-02  0.1025764E+00
         21   -1    0    0  502  501  0.00000000000E+00  0.00000000000E+00  0.17269982673E+04  0.17269982673E+04  0.00000000000E+00 0. -1.
         21   -1    0    0  501  502 -0.00000000000E+00 -0.00000000000E+00 -0.30183576230E+02  0.30183576230E+02  0.00000000000E+00 0. -1.
      99926    2    1    2    0    0  0.14210854715E-13 -0.35527136788E-14  0.16968146910E+04  0.17571818435E+04  0.45662669150E+03 0.  0.
      99925    2    3    3    0    0 -0.94022249276E+02  0.24199209230E+02  0.83122320357E+03  0.87722621031E+03  0.26299814606E+03 0.  0.
         25    1    4    4    0    0 -0.15394885345E+02 -0.15640678103E+02  0.39790765578E+03  0.41768366491E+03  0.12509000000E+03 0.  0.
         25    1    3    3    0    0  0.94022249276E+02 -0.24199209230E+02  0.86559148746E+03  0.87995563317E+03  0.12509000000E+03 0.  0.
         25    1    4    4    0    0 -0.78627363931E+02  0.39839887333E+02  0.43331554778E+03  0.45954254540E+03  0.12509000000E+03 0.  0.
<mgrwt>
<rscale>  2 0.45662669E+03</rscale>
<asrwt>0</asrwt>
<pdfrwt beam="1">  1       21 0.25397027E+00 0.45662669E+03</pdfrwt>
<pdfrwt beam="2">  1       21 0.44387624E-02 0.45662669E+03</pdfrwt>
<totfact> 0.17870160E+04</totfact>
</mgrwt>
</event>
<event>
 7    0  0.4831799E-002  0.4569190E+03  0.7546771E-02  0.1025679E+00
         21   -1    0    0  502  501  0.00000000000E+00  0.00000000000E+00  0.19561308269E+03  0.19561308269E+03  0.00000000000E+00 0. -1.
         21   -1    0    0  501  502 -0.00000000000E+00 -0.00000000000E+00 -0.26682132834E+03  0.26682132834E+03  0.00000000000E+00 0. -1.
      99926    2    1    2    0    0  0.00000000000E+00  0.00000000000E+00 -0.71208245652E+02  0.46243441102E+03  0.45691899747E+03 0.  0.
      99925    2    3    3    0    0  0.98345069438E+02  0.54131076650E+02 -0.69980666785E+02  0.29435424803E+03  0.26295475555E+03 0.  0.
         25    1    4    4    0    0  0.63528084754E+02 -0.91891560310E+01 -0.23146650467E+02  0.14249046870E+03  0.12509000000E+03 0.  0.
         25    1    4    4    0    0  0.34816984683E+02  0.63320232681E+02 -0.46834016318E+02  0.15186377933E+03  0.12509000000E+03 0.  0.
         25    1    3    3    0    0 -0.98345069438E+02 -0.54131076650E+02 -0.12275788671E+01  0.16808016299E+03  0.12509000000E+03 0.  0.
<mgrwt>
<rscale>  2 0.45691900E+03</rscale>
<asrwt>0</asrwt>
<pdfrwt beam="1">  1       21 0.28766630E-01 0.45691900E+03</pdfrwt>
<pdfrwt beam="2">  1       21 0.39238430E-01 0.45691900E+03</pdfrwt>
<totfact> 0.66972718E+04</totfact>
</mgrwt>
</event>
<event>
 7    0  0.4831799E-002  0.4445046E+03  0.7546771E-02  0.1029374E+00
         21   -1    0    0  502  501  0.00000000000E+00  0.00000000000E+00  0.12166538941E+03  0.12166538941E+03  0.00000000000E+00 0. -1.
         21   -1    0    0  501  502 -0.00000000000E+00 -0.00000000000E+00 -0.40599949900E+03  0.40599949900E+03  0.00000000000E+00 0. -1.
      99926    2    1    2    0    0  0.00000000000E+00  0.00000000000E+00 -0.28433410959E+03  0.52766488841E+03  0.44450461031E+03 0.  0.
      99925    2    3    3    0    0  0.82215035681E+02 -0.29358968375E+02 -0.24570350154E+03  0.37030830897E+03  0.26293872272E+03 0.  0.
         25    1    4    4    0    0  0.80155573239E+02 -0.12690837672E+02 -0.11234671663E+03  0.18669565105E+03  0.12509000000E+03 0.  0.
         25    1    3    3    0    0 -0.82215035681E+02  0.29358968375E+02 -0.38630608049E+02  0.15735657944E+03  0.12509000000E+03 0.  0.
         25    1    4    4    0    0  0.20594624419E+01 -0.16668130703E+02 -0.13335678491E+03  0.18361265792E+03  0.12509000000E+03 0.  0.
<mgrwt>
<rscale>  2 0.44450461E+03</rscale>
<asrwt>0</asrwt>
<pdfrwt beam="1">  1       21 0.17891969E-01 0.44450461E+03</pdfrwt>
<pdfrwt beam="2">  1       21 0.59705808E-01 0.44450461E+03</pdfrwt>
<totfact> 0.68916914E+04</totfact>
</mgrwt>
</event>
<event>
 7    0  0.4831799E-002  0.4556081E+03  0.7546771E-02  0.1026063E+00
         21   -1    0    0  502  501  0.00000000000E+00  0.00000000000E+00  0.13728413296E+04  0.13728413296E+04  0.00000000000E+00 0. -1.
         21   -1    0    0  501  502 -0.00000000000E+00 -0.00000000000E+00 -0.37800928528E+02  0.37800928528E+02  0.00000000000E+00 0. -1.
      99926    2    1    2    0    0  0.00000000000E+00  0.00000000000E+00  0.13350404011E+04  0.14106422581E+04  0.45560806393E+03 0.  0.
      99925    2    3    3    0    0 -0.40252706667E+02  0.78158997426E+02  0.61645926939E+03  0.67597535389E+03  0.26304284627E+03 0.  0.
         25    1    3    3    0    0  0.40252706667E+02 -0.78158997426E+02  0.71858113167E+03  0.73466690423E+03  0.12509000000E+03 0.  0.
         25    1    4    4    0    0  0.17309830312E+02  0.26469014204E+02  0.32009337548E+03  0.34511956778E+03  0.12509000000E+03 0.  0.
         25    1    4    4    0    0 -0.57562536979E+02  0.51689983223E+02  0.29636589391E+03  0.33085578611E+03  0.12509000000E+03 0.  0.
<mgrwt>
<rscale>  2 0.45560806E+03</rscale>
<asrwt>0</asrwt>
<pdfrwt beam="1">  1       21 0.20188840E+00 0.45560806E+03</pdfrwt>
<pdfrwt beam="2">  1       21 0.55589610E-02 0.45560806E+03</pdfrwt>
<totfact> 0.25927063E+04</totfact>
</mgrwt>
</event>
<event>
 7    0  0.4831799E-002  0.4536891E+03  0.7546771E-02  0.1026628E+00
         21   -1    0    0  502  501  0.00000000000E+00  0.00000000000E+00  0.41392706808E+03  0.41392706808E+03  0.00000000000E+00 0.  1.
         21   -1    0    0  501  502 -0.00000000000E+00 -0.00000000000E+00 -0.12431768350E+03  0.12431768350E+03  0.00000000000E+00 0.  1.
      99926    2    1    2    0    0  0.00000000000E+00 -0.17763568394E-14  0.28960938457E+03  0.53824475158E+03  0.45368911930E+03 0.  0.
      99925    2    3    3    0    0 -0.94734175021E+02 -0.12601453846E+02  0.11343337263E+03  0.30198460716E+03  0.26304792792E+03 0.  0.
         25    1    4    4    0    0 -0.16925630064E+02 -0.48804829562E+00  0.21872884105E+02  0.12811185075E+03  0.12509000000E+03 0.  0.
         25    1    3    3    0    0  0.94734175021E+02  0.12601453846E+02  0.17617601194E+03  0.23626014441E+03  0.12509000000E+03 0.  0.
         25    1    4    4    0    0 -0.77808544957E+02 -0.12113405550E+02  0.91560488529E+02  0.17387275641E+03  0.12509000000E+03 0.  0.
<mgrwt>
<rscale>  2 0.45368912E+03</rscale>
<asrwt>0</asrwt>
<pdfrwt beam="1">  1       21 0.60871627E-01 0.45368912E+03</pdfrwt>
<pdfrwt beam="2">  1       21 0.18282012E-01 0.45368912E+03</pdfrwt>
<totfact> 0.63304264E+04</totfact>
</mgrwt>
</event>
<event>
 7    0  0.4831799E-002  0.4568661E+03  0.7546771E-02  0.1025694E+00
         21   -1    0    0  502  501  0.00000000000E+00  0.00000000000E+00  0.45343665426E+03  0.45343665426E+03  0.00000000000E+00 0.  1.
         21   -1    0    0  501  502 -0.00000000000E+00 -0.00000000000E+00 -0.11508038880E+03  0.11508038880E+03  0.00000000000E+00 0.  1.
      99926    2    1    2    0    0 -0.35527136788E-14  0.00000000000E+00  0.33835626546E+03  0.56851704305E+03  0.45686613561E+03 0.  0.
      99925    2    3    3    0    0  0.88932265508E+01 -0.74493292811E+02  0.32085174513E+03  0.42160803556E+03  0.26301930184E+03 0.  0.
         25    1    3    3    0    0 -0.88932265508E+01  0.74493292811E+02  0.17504520325E+02  0.14690900750E+03  0.12509000000E+03 0.  0.
         25    1    4    4    0    0  0.36926688971E+02 -0.31274254834E+02  0.19613604763E+03  0.23761000958E+03  0.12509000000E+03 0.  0.
         25    1    4    4    0    0 -0.28033462420E+02 -0.43219037977E+02  0.12471569750E+03  0.18399802597E+03  0.12509000000E+03 0.  0.
<mgrwt>
<rscale>  2 0.45686614E+03</rscale>
<asrwt>0</asrwt>
<pdfrwt beam="1">  1       21 0.66681860E-01 0.45686614E+03</pdfrwt>
<pdfrwt beam="2">  1       21 0.16923587E-01 0.45686614E+03</pdfrwt>
<totfact> 0.59772223E+04</totfact>
</mgrwt>
</event>
<event>
 7    0  0.4831799E-002  0.4600261E+03  0.7546771E-02  0.1024774E+00
         21   -1    0    0  502  501  0.00000000000E+00  0.00000000000E+00  0.34057462118E+03  0.34057462118E+03  0.00000000000E+00 0.  1.
         21   -1    0    0  501  502 -0.00000000000E+00 -0.00000000000E+00 -0.15534335361E+03  0.15534335361E+03  0.00000000000E+00 0.  1.
      99926    2    1    2    0    0  0.00000000000E+00 -0.14210854715E-13  0.18523126757E+03  0.49591797480E+03  0.46002610278E+03 0.  0.
      99925    2    3    3    0    0 -0.12748839199E+02  0.75585919480E+02  0.19214638397E+02  0.27436709264E+03  0.26274005227E+03 0.  0.
         25    1    4    4    0    0 -0.10559461483E+02  0.47262262686E+02  0.48775598844E+02  0.14272978261E+03  0.12509000000E+03 0.  0.
         25    1    3    3    0    0  0.12748839199E+02 -0.75585919480E+02  0.16601662917E+03  0.22155088216E+03  0.12509000000E+03 0.  0.
         25    1    4    4    0    0 -0.21893777155E+01  0.28323656794E+02 -0.29560960447E+02  0.13163731003E+03  0.12509000000E+03 0.  0.
<mgrwt>
<rscale>  2 0.46002610E+03</rscale>
<asrwt>0</asrwt>
<pdfrwt beam="1">  1       21 0.50084503E-01 0.46002610E+03</pdfrwt>
<pdfrwt beam="2">  1       21 0.22844611E-01 0.46002610E+03</pdfrwt>
<totfact> 0.63006632E+04</totfact>
</mgrwt>
</event>
<event>
 7    0  0.4831799E-002  0.4495709E+03  0.7546771E-02  0.1027850E+00
         21   -1    0    0  502  501  0.00000000000E+00  0.00000000000E+00  0.75588671454E+02  0.75588671454E+02  0.00000000000E+00 0.  1.
         21   -1    0    0  501  502 -0.00000000000E+00 -0.00000000000E+00 -0.66846668471E+03  0.66846668471E+03  0.00000000000E+00 0.  1.
      99926    2    1    2    0    0  0.00000000000E+00  0.00000000000E+00 -0.59287801326E+03  0.74405535617E+03  0.44957094483E+03 0.  0.
      99925    2    3    3    0    0  0.36541803739E+02 -0.76762045734E+02 -0.26449269742E+03  0.38251401849E+03  0.26293130714E+03 0.  0.
         25    1    3    3    0    0 -0.36541803739E+02  0.76762045734E+02 -0.32838531584E+03  0.36154133767E+03  0.12509000000E+03 0.  0.
         25    1    4    4    0    0  0.39722135856E+02 -0.21661474491E+02 -0.89005306922E+02  0.16005161766E+03  0.12509000000E+03 0.  0.
         25    1    4    4    0    0 -0.31803321176E+01 -0.55100571243E+02 -0.17548739050E+03  0.22246240084E+03  0.12509000000E+03 0.  0.
<mgrwt>
<rscale>  2 0.44957094E+03</rscale>
<asrwt>0</asrwt>
<pdfrwt beam="1">  1       21 0.11115981E-01 0.44957094E+03</pdfrwt>
<pdfrwt beam="2">  1       21 0.98303925E-01 0.44957094E+03</pdfrwt>
<totfact> 0.52792586E+04</totfact>
</mgrwt>
</event>
<event>
 7    0  0.4831799E-002  0.4564913E+03  0.7546771E-02  0.1025804E+00
         21   -1    0    0  502  501  0.00000000000E+00  0.00000000000E+00  0.69383291875E+02  0.69383291875E+02  0.00000000000E+00 0.  1.
         21   -1    0    0  501  502 -0.00000000000E+00 -0.00000000000E+00 -0.75084468238E+03  0.75084468238E+03  0.00000000000E+00 0.  1.
      99926    2    1    2    0    0  0.00000000000E+00  0.00000000000E+00 -0.68146139051E+03  0.82022797426E+03  0.45649129565E+03 0.  0.
      99925    2    3    3    0    0  0.42934228301E+02 -0.91610632932E+01 -0.61809746180E+03  0.67329340174E+03  0.26334817162E+03 0.  0.
         25    1    4    4    0    0  0.13706497937E+02 -0.30150592791E+02 -0.38700209918E+03  0.40806256775E+03  0.12509000000E+03 0.  0.
         25    1    4    4    0    0  0.29227730363E+02  0.20989529498E+02 -0.23109536262E+03  0.26523083399E+03  0.12509000000E+03 0.  0.
         25    1    3    3    0    0 -0.42934228301E+02  0.91610632932E+01 -0.63363928705E+02  0.14693457252E+03  0.12509000000E+03 0.  0.
<mgrwt>
<rscale>  2 0.45649130E+03</rscale>
<asrwt>0</asrwt>
<pdfrwt beam="1">  1       21 0.10203425E-01 0.45649130E+03</pdfrwt>
<pdfrwt beam="2">  1       21 0.11041834E+00 0.45649130E+03</pdfrwt>
<totfact> 0.46258246E+04</totfact>
</mgrwt>
</event>
<event>
 7    0  0.4831799E-002  0.4530455E+03  0.7546771E-02  0.1026818E+00
         21   -1    0    0  502  501  0.00000000000E+00  0.00000000000E+00  0.53215145597E+02  0.53215145597E+02  0.00000000000E+00 0.  1.
         21   -1    0    0  501  502 -0.00000000000E+00 -0.00000000000E+00 -0.96424711004E+03  0.96424711004E+03  0.00000000000E+00 0.  1.
      99926    2    1    2    0    0  0.00000000000E+00  0.00000000000E+00 -0.91103196444E+03  0.10174622556E+04  0.45304547389E+03 0.  0.
      99925    2    3    3    0    0 -0.31109416609E+02 -0.56541677702E+02 -0.77799992049E+03  0.82378781247E+03  0.26301658991E+03 0.  0.
         25    1    4    4    0    0 -0.23955912955E+02 -0.68404821330E+02 -0.39371523258E+03  0.41941900030E+03  0.12509000000E+03 0.  0.
         25    1    4    4    0    0 -0.71535036536E+01  0.11863143628E+02 -0.38428468791E+03  0.40436881216E+03  0.12509000000E+03 0.  0.
         25    1    3    3    0    0  0.31109416609E+02  0.56541677702E+02 -0.13303204395E+03  0.19367444317E+03  0.12509000000E+03 0.  0.
<mgrwt>
<rscale>  2 0.45304547E+03</rscale>
<asrwt>0</asrwt>
<pdfrwt beam="1">  1       21 0.78257566E-02 0.45304547E+03</pdfrwt>
<pdfrwt beam="2">  1       21 0.14180105E+00 0.45304547E+03</pdfrwt>
<totfact> 0.39087487E+04</totfact>
</mgrwt>
</event>
<event>
 7    0  0.4831799E-002  0.4099635E+03  0.7546771E-02  0.1040383E+00
         21   -1    0    0  502  501  0.00000000000E+00  0.00000000000E+00  0.98364265938E+02  0.98364265938E+02  0.00000000000E+00 0. -1.
         21   -1    0    0  501  502 -0.00000000000E+00 -0.00000000000E+00 -0.42716251110E+03  0.42716251110E+03  0.00000000000E+00 0. -1.
      99926    2    1    2    0    0  0.17763568394E-14  0.35527136788E-14 -0.32879824516E+03  0.52552677703E+03  0.40996354394E+03 0.  0.
      99925    2    3    3    0    0 -0.12398714242E+02  0.13204318202E+02 -0.14066024922E+03  0.29887396821E+03  0.26308223244E+03 0.  0.
         25    1    3    3    0    0  0.12398714242E+02 -0.13204318202E+02 -0.18813799594E+03  0.22665280883E+03  0.12509000000E+03 0.  0.
         25    1    4    4    0    0  0.32080856157E+02  0.20130209172E+02 -0.73022889258E+02  0.14971391755E+03  0.12509000000E+03 0.  0.
         25    1    4    4    0    0 -0.44479570399E+02 -0.69258909704E+01 -0.67637359961E+02  0.14916005065E+03  0.12509000000E+03 0.  0.
<mgrwt>
<rscale>  2 0.40996354E+03</rscale>
<asrwt>0</asrwt>
<pdfrwt beam="1">  1       21 0.14465333E-01 0.40996354E+03</pdfrwt>
<pdfrwt beam="2">  1       21 0.62818017E-01 0.40996354E+03</pdfrwt>
<totfact> 0.92268160E+04</totfact>
</mgrwt>
</event>
<event>
 7    0  0.4831799E-002  0.4529248E+03  0.7546771E-02  0.1026853E+00
         21   -1    0    0  502  501  0.00000000000E+00  0.00000000000E+00  0.48638366948E+02  0.48638366948E+02  0.00000000000E+00 0. -1.
         21   -1    0    0  501  502 -0.00000000000E+00 -0.00000000000E+00 -0.10544190461E+04  0.10544190461E+04  0.00000000000E+00 0. -1.
      99926    2    1    2    0    0  0.00000000000E+00  0.00000000000E+00 -0.10057806791E+04  0.11030574130E+04  0.45292480824E+03 0.  0.
      99925    2    3    3    0    0 -0.66749861053E+02  0.79950152153E+02 -0.72891567981E+03  0.78188875527E+03  0.26302925038E+03 0.  0.
         25    1    3    3    0    0  0.66749861053E+02 -0.79950152153E+02 -0.27686499932E+03  0.32116865776E+03  0.12509000000E+03 0.  0.
         25    1    4    4    0    0 -0.25663502007E+02  0.62978222716E+02 -0.28561122859E+03  0.31913344210E+03  0.12509000000E+03 0.  0.
         25    1    4    4    0    0 -0.41086359045E+02  0.16971929437E+02 -0.44330445122E+03  0.46275531316E+03  0.12509000000E+03 0.  0.
<mgrwt>
<rscale>  2 0.45292481E+03</rscale>
<asrwt>0</asrwt>
<pdfrwt beam="1">  1       21 0.71527023E-02 0.45292481E+03</pdfrwt>
<pdfrwt beam="2">  1       21 0.15506160E+00 0.45292481E+03</pdfrwt>
<totfact> 0.35967075E+04</totfact>
</mgrwt>
</event>
<event>
 7    0  0.4831799E-002  0.4575212E+03  0.7546771E-02  0.1025503E+00
         21   -1    0    0  502  501  0.00000000000E+00  0.00000000000E+00  0.47677998165E+02  0.47677998165E+02  0.00000000000E+00 0.  1.
         21   -1    0    0  501  502 -0.00000000000E+00 -0.00000000000E+00 -0.10976008630E+04  0.10976008630E+04  0.00000000000E+00 0.  1.
      99926    2    1    2    0    0  0.71054273576E-14  0.00000000000E+00 -0.10499228648E+04  0.11452788611E+04  0.45752119920E+03 0.  0.
      99925    2    3    3    0    0  0.40683344872E+02 -0.10292237440E+03 -0.57712695791E+03  0.64384927747E+03  0.26309355151E+03 0.  0.
         25    1    3    3    0    0 -0.40683344872E+02  0.10292237440E+03 -0.47279590689E+03  0.50142958367E+03  0.12509000000E+03 0.  0.
         25    1    4    4    0    0  0.35811842600E+02 -0.41319408448E+02 -0.20376530497E+03  0.24527044093E+03  0.12509000000E+03 0.  0.
         25    1    4    4    0    0  0.48715022715E+01 -0.61602965948E+02 -0.37336165294E+03  0.39857883654E+03  0.12509000000E+03 0.  0.
<mgrwt>
<rscale>  2 0.45752120E+03</rscale>
<asrwt>0</asrwt>
<pdfrwt beam="1">  1       21 0.70114705E-02 0.45752120E+03</pdfrwt>
<pdfrwt beam="2">  1       21 0.16141189E+00 0.45752120E+03</pdfrwt>
<totfact> 0.33281567E+04</totfact>
</mgrwt>
</event>
<event>
 7    0  0.4831799E-002  0.4504795E+03  0.7546771E-02  0.1027579E+00
         21   -1    0    0  502  501  0.00000000000E+00  0.00000000000E+00  0.10117401140E+04  0.10117401140E+04  0.00000000000E+00 0.  1.
         21   -1    0    0  501  502 -0.00000000000E+00 -0.00000000000E+00 -0.50144247701E+02  0.50144247701E+02  0.00000000000E+00 0.  1.
      99926    2    1    2    0    0  0.00000000000E+00  0.71054273576E-14  0.96159586630E+03  0.10618843617E+04  0.45047950846E+03 0.  0.
      99925    2    3    3    0    0 -0.32548030386E+02 -0.44724431446E+02  0.82865777064E+03  0.87114974390E+03  0.26299909963E+03 0.  0.
         25    1    4    4    0    0  0.17118829866E+02 -0.26428041138E+02  0.32972065201E+03  0.35405467397E+03  0.12509000000E+03 0.  0.
         25    1    4    4    0    0 -0.49666860253E+02 -0.18296390308E+02  0.49893711863E+03  0.51709506994E+03  0.12509000000E+03 0.  0.
         25    1    3    3    0    0  0.32548030386E+02  0.44724431446E+02  0.13293809566E+03  0.19073461780E+03  0.12509000000E+03 0.  0.
<mgrwt>
<rscale>  2 0.45047951E+03</rscale>
<asrwt>0</asrwt>
<pdfrwt beam="1">  1       21 0.14878530E+00 0.45047951E+03</pdfrwt>
<pdfrwt beam="2">  1       21 0.73741547E-02 0.45047951E+03</pdfrwt>
<totfact> 0.38173359E+04</totfact>
</mgrwt>
</event>
<event>
 7    0  0.4831799E-002  0.4559251E+03  0.7546771E-02  0.1025970E+00
         21   -1    0    0  502  501  0.00000000000E+00  0.00000000000E+00  0.27312895607E+03  0.27312895607E+03  0.00000000000E+00 0.  1.
         21   -1    0    0  501  502 -0.00000000000E+00 -0.00000000000E+00 -0.19026516018E+03  0.19026516018E+03  0.00000000000E+00 0.  1.
      99926    2    1    2    0    0  0.14210854715E-13 -0.35527136788E-14  0.82863795890E+02  0.46339411626E+03  0.45592510165E+03 0.  0.
      99925    2    3    3    0    0 -0.10145640796E+03  0.23249136199E+02  0.99248144994E+02  0.29984021063E+03  0.26309700222E+03 0.  0.
         25    1    3    3    0    0  0.10145640796E+03 -0.23249136199E+02 -0.16384349104E+02  0.16355390563E+03  0.12509000000E+03 0.  0.
         25    1    4    4    0    0 -0.20625877292E+02 -0.18385882033E+02  0.39511896680E+02  0.13406030565E+03  0.12509000000E+03 0.  0.
         25    1    4    4    0    0 -0.80830530671E+02  0.41635018233E+02  0.59736248314E+02  0.16577990498E+03  0.12509000000E+03 0.  0.
<mgrwt>
<rscale>  2 0.45592510E+03</rscale>
<asrwt>0</asrwt>
<pdfrwt beam="1">  1       21 0.40166023E-01 0.45592510E+03</pdfrwt>
<pdfrwt beam="2">  1       21 0.27980170E-01 0.45592510E+03</pdfrwt>
<totfact> 0.67432247E+04</totfact>
</mgrwt>
</event>
<event>
 7    0  0.4831799E-002  0.4555363E+03  0.7546771E-02  0.1026084E+00
         21   -1    0    0  502  501  0.00000000000E+00  0.00000000000E+00  0.93522056868E+02  0.93522056868E+02  0.00000000000E+00 0.  1.
         21   -1    0    0  501  502 -0.00000000000E+00 -0.00000000000E+00 -0.55471752065E+03  0.55471752065E+03  0.00000000000E+00 0.  1.
      99926    2    1    2    0    0  0.71054273576E-14  0.00000000000E+00 -0.46119546378E+03  0.64823957752E+03  0.45553627084E+03 0.  0.
      99925    2    3    3    0    0 -0.36536234356E+02  0.73167287221E+02 -0.40268428813E+03  0.48774218154E+03  0.26277262302E+03 0.  0.
         25    1    3    3    0    0  0.36536234356E+02 -0.73167287221E+02 -0.58511175658E+02  0.16049739598E+03  0.12509000000E+03 0.  0.
         25    1    4    4    0    0 -0.41831589931E+02  0.13781609212E+02 -0.23854837087E+03  0.27293341315E+03  0.12509000000E+03 0.  0.
         25    1    4    4    0    0  0.52953555752E+01  0.59385678009E+02 -0.16413591726E+03  0.21480876839E+03  0.12509000000E+03 0.  0.
<mgrwt>
<rscale>  2 0.45553627E+03</rscale>
<asrwt>0</asrwt>
<pdfrwt beam="1">  1       21 0.13753244E-01 0.45553627E+03</pdfrwt>
<pdfrwt beam="2">  1       21 0.81576103E-01 0.45553627E+03</pdfrwt>
<totfact> 0.55567549E+04</totfact>
</mgrwt>
</event>
<event>
 7    0  0.4831799E-002  0.4578648E+03  0.7546771E-02  0.1025402E+00
         21   -1    0    0  502  501  0.00000000000E+00  0.00000000000E+00  0.13320391616E+03  0.13320391616E+03  0.00000000000E+00 0. -1.
         21   -1    0    0  501  502 -0.00000000000E+00 -0.00000000000E+00 -0.39345716411E+03  0.39345716411E+03  0.00000000000E+00 0. -1.
      99926    2    1    2    0    0  0.00000000000E+00  0.62172489379E-14 -0.26025324795E+03  0.52666108026E+03  0.45786476213E+03 0.  0.
      99925    2    3    3    0    0  0.68814925475E+02  0.65746510880E+01 -0.27004306461E+03  0.38340582341E+03  0.26324522537E+03 0.  0.
         25    1    4    4    0    0  0.48630591672E+02 -0.34838033643E+02 -0.14517241935E+03  0.20075149433E+03  0.12509000000E+03 0.  0.
         25    1    3    3    0    0 -0.68814925475E+02 -0.65746510880E+01  0.97898166547E+01  0.14325525685E+03  0.12509000000E+03 0.  0.
         25    1    4    4    0    0  0.20184333803E+02  0.41412684731E+02 -0.12487064526E+03  0.18265432909E+03  0.12509000000E+03 0.  0.
<mgrwt>
<rscale>  2 0.45786476E+03</rscale>
<asrwt>0</asrwt>
<pdfrwt beam="1">  1       21 0.19588811E-01 0.45786476E+03</pdfrwt>
<pdfrwt beam="2">  1       21 0.57861348E-01 0.45786476E+03</pdfrwt>
<totfact> 0.62012808E+04</totfact>
</mgrwt>
</event>
<event>
 7    0  0.4831799E-002  0.4416583E+03  0.7546771E-02  0.1030239E+00
         21   -1    0    0  502  501  0.00000000000E+00  0.00000000000E+00  0.81203688216E+02  0.81203688216E+02  0.00000000000E+00 0. -1.
         21   -1    0    0  501  502 -0.00000000000E+00 -0.00000000000E+00 -0.60053326650E+03  0.60053326650E+03  0.00000000000E+00 0. -1.
      99926    2    1    2    0    0  0.00000000000E+00  0.35527136788E-14 -0.51932957829E+03  0.68173695472E+03  0.44165831199E+03 0.  0.
      99925    2    3    3    0    0  0.75962037186E+02 -0.26406379515E+02 -0.23913388725E+03  0.36452305000E+03  0.26310551111E+03 0.  0.
         25    1    4    4    0    0  0.14756748466E+02  0.17654265276E+02 -0.90263737882E+02  0.15596308917E+03  0.12509000000E+03 0.  0.
         25    1    4    4    0    0  0.61205288720E+02 -0.44060644790E+02 -0.14887014937E+03  0.20855996083E+03  0.12509000000E+03 0.  0.
         25    1    3    3    0    0 -0.75962037186E+02  0.26406379515E+02 -0.28019569104E+03  0.31721390472E+03  0.12509000000E+03 0.  0.
<mgrwt>
<rscale>  2 0.44165831E+03</rscale>
<asrwt>0</asrwt>
<pdfrwt beam="1">  1       21 0.11941719E-01 0.44165831E+03</pdfrwt>
<pdfrwt beam="2">  1       21 0.88313711E-01 0.44165831E+03</pdfrwt>
<totfact> 0.59960880E+04</totfact>
</mgrwt>
</event>
<event>
 7    0  0.4831799E-002  0.4354256E+03  0.7546771E-02  0.1032160E+00
         21   -1    0    0  502  501  0.00000000000E+00  0.00000000000E+00  0.16037284116E+03  0.16037284116E+03  0.00000000000E+00 0. -1.
         21   -1    0    0  501  502 -0.00000000000E+00 -0.00000000000E+00 -0.29555423631E+03  0.29555423631E+03  0.00000000000E+00 0. -1.
      99926    2    1    2    0    0  0.00000000000E+00  0.00000000000E+00 -0.13518139515E+03  0.45592707747E+03  0.43542564276E+03 0.  0.
      99925    2    3    3    0    0 -0.37251190940E+02 -0.79368607004E+02 -0.12093338587E+03  0.30250758434E+03  0.26305689072E+03 0.  0.
         25    1    4    4    0    0 -0.27336413301E+02 -0.77876609992E+02 -0.48013462873E+02  0.15736850572E+03  0.12509000000E+03 0.  0.
         25    1    3    3    0    0  0.37251190940E+02  0.79368607004E+02 -0.14248009282E+02  0.15341949313E+03  0.12509000000E+03 0.  0.
         25    1    4    4    0    0 -0.99147776387E+01 -0.14919970123E+01 -0.72919922999E+02  0.14513907861E+03  0.12509000000E+03 0.  0.
<mgrwt>
<rscale>  2 0.43542564E+03</rscale>
<asrwt>0</asrwt>
<pdfrwt beam="1">  1       21 0.23584241E-01 0.43542564E+03</pdfrwt>
<pdfrwt beam="2">  1       21 0.43463858E-01 0.43542564E+03</pdfrwt>
<totfact> 0.80254101E+04</totfact>
</mgrwt>
</event>
<event>
 7    0  0.4831799E-002  0.4539628E+03  0.7546771E-02  0.1026547E+00
         21   -1    0    0  502  501  0.00000000000E+00  0.00000000000E+00  0.67126898058E+02  0.67126898058E+02  0.00000000000E+00 0. -1.
         21   -1    0    0  501  502 -0.00000000000E+00 -0.00000000000E+00 -0.76750984084E+03  0.76750984084E+03  0.00000000000E+00 0. -1.
      99926    2    1    2    0    0  0.00000000000E+00  0.00000000000E+00 -0.70038294279E+03  0.83463673890E+03  0.45396279515E+03 0.  0.
      99925    2    3    3    0    0  0.89360810654E+02 -0.65931888959E+02 -0.41136304915E+03  0.50070205146E+03  0.26296505027E+03 0.  0.
         25    1    3    3    0    0 -0.89360810654E+02  0.65931888959E+02 -0.28901989363E+03  0.33393468744E+03  0.12509000000E+03 0.  0.
         25    1    4    4    0    0  0.40395383165E+02 -0.42887074640E+02 -0.27553250767E+03  0.30828032541E+03  0.12509000000E+03 0.  0.
         25    1    4    4    0    0  0.48965427489E+02 -0.23044814319E+02 -0.13583054149E+03  0.19242172605E+03  0.12509000000E+03 0.  0.
<mgrwt>
<rscale>  2 0.45396280E+03</rscale>
<asrwt>0</asrwt>
<pdfrwt beam="1">  1       21 0.98716025E-02 0.45396280E+03</pdfrwt>
<pdfrwt beam="2">  1       21 0.11286910E+00 0.45396280E+03</pdfrwt>
<totfact> 0.46511989E+04</totfact>
</mgrwt>
</event>
<event>
 7    0  0.4831799E-002  0.4571495E+03  0.7546771E-02  0.1025611E+00
         21   -1    0    0  502  501  0.00000000000E+00  0.00000000000E+00  0.64333683996E+03  0.64333683996E+03  0.00000000000E+00 0. -1.
         21   -1    0    0  501  502 -0.00000000000E+00 -0.00000000000E+00 -0.81211590805E+02  0.81211590805E+02  0.00000000000E+00 0. -1.
      99926    2    1    2    0    0 -0.26645352591E-14  0.00000000000E+00  0.56212524916E+03  0.72454843077E+03  0.45714946438E+03 0.  0.
      99925    2    3    3    0    0 -0.60735302200E+01  0.62274777488E+02  0.19957828796E+03  0.33595758829E+03  0.26290867697E+03 0.  0.
         25    1    4    4    0    0 -0.24232174422E+02  0.12598196045E+02  0.13331849660E+03  0.18484383262E+03  0.12509000000E+03 0.  0.
         25    1    4    4    0    0  0.18158644202E+02  0.49676581443E+02  0.66259791357E+02  0.15111375567E+03  0.12509000000E+03 0.  0.
         25    1    3    3    0    0  0.60735302200E+01 -0.62274777488E+02  0.36254696120E+03  0.38859084248E+03  0.12509000000E+03 0.  0.
<mgrwt>
<rscale>  2 0.45714946E+03</rscale>
<asrwt>0</asrwt>
<pdfrwt beam="1">  1       21 0.94608356E-01 0.45714946E+03</pdfrwt>
<pdfrwt beam="2">  1       21 0.11942881E-01 0.45714946E+03</pdfrwt>
<totfact> 0.50727373E+04</totfact>
</mgrwt>
</event>
<event>
 7    0  0.4831799E-002  0.4643756E+03  0.7546771E-02  0.1023520E+00
         21   -1    0    0  502  501  0.00000000000E+00  0.00000000000E+00  0.57575397560E+02  0.57575397560E+02  0.00000000000E+00 0. -1.
         21   -1    0    0  501  502 -0.00000000000E+00 -0.00000000000E+00 -0.93635798502E+03  0.93635798502E+03  0.00000000000E+00 0. -1.
      99926    2    1    2    0    0  0.00000000000E+00  0.00000000000E+00 -0.87878258746E+03  0.99393338258E+03  0.46437563780E+03 0.  0.
      99925    2    3    3    0    0 -0.37730420431E+02 -0.11433022289E+03 -0.51407045061E+03  0.59000587007E+03  0.26333156674E+03 0.  0.
         25    1    4    4    0    0 -0.30853749049E+02 -0.50370482916E+02 -0.33395726888E+03  0.36147490220E+03  0.12509000000E+03 0.  0.
         25    1    4    4    0    0 -0.68766713826E+01 -0.63959739974E+02 -0.18011318172E+03  0.22853096787E+03  0.12509000000E+03 0.  0.
         25    1    3    3    0    0  0.37730420431E+02  0.11433022289E+03 -0.36471213686E+03  0.40392751251E+03  0.12509000000E+03 0.  0.
<mgrwt>
<rscale>  2 0.46437564E+03</rscale>
<asrwt>0</asrwt>
<pdfrwt beam="1">  1       21 0.84669703E-02 0.46437564E+03</pdfrwt>
<pdfrwt beam="2">  1       21 0.13769970E+00 0.46437564E+03</pdfrwt>
<totfact> 0.36645586E+04</totfact>
</mgrwt>
</event>
<event>
 7    0  0.4831799E-002  0.4595927E+03  0.7546771E-02  0.1024899E+00
         21   -1    0    0  502  501  0.00000000000E+00  0.00000000000E+00  0.14367885007E+03  0.14367885007E+03  0.00000000000E+00 0. -1.
         21   -1    0    0  501  502 -0.00000000000E+00 -0.00000000000E+00 -0.36753056397E+03  0.36753056397E+03  0.00000000000E+00 0. -1.
      99926    2    1    2    0    0  0.00000000000E+00  0.00000000000E+00 -0.22385171390E+03  0.51120941404E+03  0.45959272752E+03 0.  0.
      99925    2    3    3    0    0 -0.72457821483E+02  0.73099024362E+02 -0.20308904616E+03  0.34789315727E+03  0.26304160307E+03 0.  0.
         25    1    4    4    0    0 -0.15961292614E+02  0.70968330169E+02 -0.94014594719E+02  0.17256163788E+03  0.12509000000E+03 0.  0.
         25    1    4    4    0    0 -0.56496528869E+02  0.21306941929E+01 -0.10907445144E+03  0.17533151938E+03  0.12509000000E+03 0.  0.
         25    1    3    3    0    0  0.72457821483E+02 -0.73099024362E+02 -0.20762667741E+02  0.16331625678E+03  0.12509000000E+03 0.  0.
<mgrwt>
<rscale>  2 0.45959273E+03</rscale>
<asrwt>0</asrwt>
<pdfrwt beam="1">  1       21 0.21129243E-01 0.45959273E+03</pdfrwt>
<pdfrwt beam="2">  1       21 0.54048612E-01 0.45959273E+03</pdfrwt>
<totfact> 0.62192080E+04</totfact>
</mgrwt>
</event>
<event>
 7    0  0.4831799E-002  0.4505197E+03  0.7546771E-02  0.1027567E+00
         21   -1    0    0  502  501  0.00000000000E+00  0.00000000000E+00  0.12064095906E+04  0.12064095906E+04  0.00000000000E+00 0.  1.
         21   -1    0    0  501  502 -0.00000000000E+00 -0.00000000000E+00 -0.42060338245E+02  0.42060338245E+02  0.00000000000E+00 0.  1.
      99926    2    1    2    0    0  0.14210854715E-13  0.00000000000E+00  0.11643492523E+04  0.12484699288E+04  0.45051967966E+03 0.  0.
      99925    2    3    3    0    0  0.10261076516E+03  0.35357194628E+02  0.76057046258E+03  0.81204820675E+03  0.26301285369E+03 0.  0.
         25    1    4    4    0    0  0.25204435291E+02  0.62599342068E+01  0.43939563406E+03  0.45759204721E+03  0.12509000000E+03 0.  0.
         25    1    3    3    0    0 -0.10261076516E+03 -0.35357194628E+02  0.40377878974E+03  0.43642172206E+03  0.12509000000E+03 0.  0.
         25    1    4    4    0    0  0.77406329865E+02  0.29097260421E+02  0.32117482852E+03  0.35445615954E+03  0.12509000000E+03 0.  0.
<mgrwt>
<rscale>  2 0.45051968E+03</rscale>
<asrwt>0</asrwt>
<pdfrwt beam="1">  1       21 0.17741315E+00 0.45051968E+03</pdfrwt>
<pdfrwt beam="2">  1       21 0.61853446E-02 0.45051968E+03</pdfrwt>
<totfact> 0.31741390E+04</totfact>
</mgrwt>
</event>
<event>
 7    0  0.4831799E-002  0.4612304E+03  0.7546771E-02  0.1024425E+00
         21   -1    0    0  502  501  0.00000000000E+00  0.00000000000E+00  0.26695206763E+02  0.26695206763E+02  0.00000000000E+00 0.  1.
         21   -1    0    0  501  502 -0.00000000000E+00 -0.00000000000E+00 -0.19922444457E+04  0.19922444457E+04  0.00000000000E+00 0.  1.
      99926    2    1    2    0    0  0.00000000000E+00  0.00000000000E+00 -0.19655492390E+04  0.20189396525E+04  0.46123043005E+03 0.  0.
      99925    2    3    3    0    0  0.95183677463E+02 -0.36348044246E+02 -0.14982052924E+04  0.15245319409E+04  0.26305403993E+03 0.  0.
         25    1    3    3    0    0 -0.95183677463E+02  0.36348044246E+02 -0.46734394662E+03  0.49440771163E+03  0.12509000000E+03 0.  0.
         25    1    4    4    0    0  0.31862748508E+02 -0.24100518487E+02 -0.52348771949E+03  0.53970637415E+03  0.12509000000E+03 0.  0.
         25    1    4    4    0    0  0.63320928955E+02 -0.12247525759E+02 -0.97471757286E+03  0.98482556672E+03  0.12509000000E+03 0.  0.
<mgrwt>
<rscale>  2 0.46123043E+03</rscale>
<asrwt>0</asrwt>
<pdfrwt beam="1">  1       21 0.39257658E-02 0.46123043E+03</pdfrwt>
<pdfrwt beam="2">  1       21 0.29297712E+00 0.46123043E+03</pdfrwt>
<totfact> 0.12773857E+04</totfact>
</mgrwt>
</event>
<event>
 7    0  0.4831799E-002  0.4538783E+03  0.7546771E-02  0.1026572E+00
         21   -1    0    0  502  501  0.00000000000E+00  0.00000000000E+00  0.24246891883E+03  0.24246891883E+03  0.00000000000E+00 0.  1.
         21   -1    0    0  501  502 -0.00000000000E+00 -0.00000000000E+00 -0.21240399841E+03  0.21240399841E+03  0.00000000000E+00 0.  1.
      99926    2    1    2    0    0  0.71054273576E-14  0.00000000000E+00  0.30064920420E+02  0.45487291724E+03  0.45387825614E+03 0.  0.
      99925    2    3    3    0    0  0.38277839204E+02 -0.97171113206E+02 -0.21873030029E+02  0.28383936201E+03  0.26301888862E+03 0.  0.
         25    1    4    4    0    0  0.54988483611E+02 -0.65152580952E+02 -0.25885858600E+02  0.15357792130E+03  0.12509000000E+03 0.  0.
         25    1    4    4    0    0 -0.16710644407E+02 -0.32018532253E+02  0.40128285706E+01  0.13026144072E+03  0.12509000000E+03 0.  0.
         25    1    3    3    0    0 -0.38277839204E+02  0.97171113206E+02  0.51937950450E+02  0.17103355522E+03  0.12509000000E+03 0.  0.
<mgrwt>
<rscale>  2 0.45387826E+03</rscale>
<asrwt>0</asrwt>
<pdfrwt beam="1">  1       21 0.35657194E-01 0.45387826E+03</pdfrwt>
<pdfrwt beam="2">  1       21 0.31235882E-01 0.45387826E+03</pdfrwt>
<totfact> 0.69172171E+04</totfact>
</mgrwt>
</event>
<event>
 7    0  0.4831799E-002  0.4548870E+03  0.7546771E-02  0.1026275E+00
         21   -1    0    0  502  501  0.00000000000E+00  0.00000000000E+00  0.21168110094E+03  0.21168110094E+03  0.00000000000E+00 0.  1.
         21   -1    0    0  501  502 -0.00000000000E+00 -0.00000000000E+00 -0.24437959064E+03  0.24437959064E+03  0.00000000000E+00 0.  1.
      99926    2    1    2    0    0  0.00000000000E+00  0.00000000000E+00 -0.32698489700E+02  0.45606069158E+03  0.45488697847E+03 0.  0.
      99925    2    3    3    0    0 -0.48907863314E+01  0.10458598709E+03  0.22304077748E+02  0.28391267675E+03  0.26295776781E+03 0.  0.
         25    1    3    3    0    0  0.48907863314E+01 -0.10458598709E+03 -0.55002567448E+02  0.17214801483E+03  0.12509000000E+03 0.  0.
         25    1    4    4    0    0 -0.21436143005E+01  0.14361055087E+02  0.30030516206E+02  0.12946109450E+03  0.12509000000E+03 0.  0.
         25    1    4    4    0    0 -0.27471720310E+01  0.90224931998E+02 -0.77264384578E+01  0.15445158225E+03  0.12509000000E+03 0.  0.
<mgrwt>
<rscale>  2 0.45488698E+03</rscale>
<asrwt>0</asrwt>
<pdfrwt beam="1">  1       21 0.31129574E-01 0.45488698E+03</pdfrwt>
<pdfrwt beam="2">  1       21 0.35938175E-01 0.45488698E+03</pdfrwt>
<totfact> 0.68529971E+04</totfact>
</mgrwt>
</event>
<event>
 7    0  0.4831799E-002  0.4523979E+03  0.7546771E-02  0.1027009E+00
         21   -1    0    0  502  501  0.00000000000E+00  0.00000000000E+00  0.44142761633E+02  0.44142761633E+02  0.00000000000E+00 0. -1.
         21   -1    0    0  501  502 -0.00000000000E+00 -0.00000000000E+00 -0.11591019006E+04  0.11591019006E+04  0.00000000000E+00 0. -1.
      99926    2    1    2    0    0  0.13322676296E-14  0.00000000000E+00 -0.11149591390E+04  0.12032446622E+04  0.45239787314E+03 0.  0.
      99925    2    3    3    0    0 -0.16037467304E+01  0.86823508101E+02 -0.88609494424E+03  0.92834973450E+03  0.26292220481E+03 0.  0.
         25    1    4    4    0    0  0.32513385492E+02  0.38637988189E+02 -0.51295914800E+03  0.53040042419E+03  0.12509000000E+03 0.  0.
         25    1    3    3    0    0  0.16037467304E+01 -0.86823508101E+02 -0.22886419471E+03  0.27489492772E+03  0.12509000000E+03 0.  0.
         25    1    4    4    0    0 -0.34117132223E+02  0.48185519912E+02 -0.37313579624E+03  0.39794931031E+03  0.12509000000E+03 0.  0.
<mgrwt>
<rscale>  2 0.45239787E+03</rscale>
<asrwt>0</asrwt>
<pdfrwt beam="1">  1       21 0.64915842E-02 0.45239787E+03</pdfrwt>
<pdfrwt beam="2">  1       21 0.17045612E+00 0.45239787E+03</pdfrwt>
<totfact> 0.32711324E+04</totfact>
</mgrwt>
</event>
<event>
 7    0  0.4831799E-002  0.4538003E+03  0.7546771E-02  0.1026595E+00
         21   -1    0    0  502  501  0.00000000000E+00  0.00000000000E+00  0.44340398808E+03  0.44340398808E+03  0.00000000000E+00 0. -1.
         21   -1    0    0  501  502 -0.00000000000E+00 -0.00000000000E+00 -0.11611010651E+03  0.11611010651E+03  0.00000000000E+00 0. -1.
      99926    2    1    2    0    0  0.35527136788E-14  0.00000000000E+00  0.32729388156E+03  0.55951409459E+03  0.45380032738E+03 0.  0.
      99925    2    3    3    0    0  0.31411932858E+02  0.10212812782E+03  0.24809428218E+03  0.37693000804E+03  0.26288513479E+03 0.  0.
         25    1    3    3    0    0 -0.31411932858E+02 -0.10212812782E+03  0.79199599387E+02  0.18258408655E+03  0.12509000000E+03 0.  0.
         25    1    4    4    0    0  0.22844503896E+02  0.35563479931E+02  0.70851501095E+02  0.14984684104E+03  0.12509000000E+03 0.  0.
         25    1    4    4    0    0  0.85674289626E+01  0.66564647889E+02  0.17724278108E+03  0.22708316700E+03  0.12509000000E+03 0.  0.
<mgrwt>
<rscale>  2 0.45380033E+03</rscale>
<asrwt>0</asrwt>
<pdfrwt beam="1">  1       21 0.65206468E-01 0.45380033E+03</pdfrwt>
<pdfrwt beam="2">  1       21 0.17075016E-01 0.45380033E+03</pdfrwt>
<totfact> 0.61826769E+04</totfact>
</mgrwt>
</event>
<event>
 7    0  0.4831799E-002  0.4535312E+03  0.7546771E-02  0.1026674E+00
         21   -1    0    0  502  501  0.00000000000E+00  0.00000000000E+00  0.33539645745E+03  0.33539645745E+03  0.00000000000E+00 0. -1.
         21   -1    0    0  501  502 -0.00000000000E+00 -0.00000000000E+00 -0.15331897022E+03  0.15331897022E+03  0.00000000000E+00 0. -1.
      99926    2    1    2    0    0  0.00000000000E+00  0.00000000000E+00  0.18207748723E+03  0.48871542767E+03  0.45353120939E+03 0.  0.
      99925    2    3    3    0    0  0.10076423176E+03 -0.48377758178E+02  0.11776335437E+03  0.30905560001E+03  0.26297018534E+03 0.  0.
         25    1    4    4    0    0  0.72046927177E+01 -0.17815377057E+02  0.50721314935E+02  0.13634315218E+03  0.12509000000E+03 0.  0.
         25    1    4    4    0    0  0.93559539045E+02 -0.30562381121E+02  0.67042039431E+02  0.17271244783E+03  0.12509000000E+03 0.  0.
         25    1    3    3    0    0 -0.10076423176E+03  0.48377758178E+02  0.64314132868E+02  0.17965982766E+03  0.12509000000E+03 0.  0.
<mgrwt>
<rscale>  2 0.45353121E+03</rscale>
<asrwt>0</asrwt>
<pdfrwt beam="1">  1       21 0.49323008E-01 0.45353121E+03</pdfrwt>
<pdfrwt beam="2">  1       21 0.22546907E-01 0.45353121E+03</pdfrwt>
<totfact> 0.66847003E+04</totfact>
</mgrwt>
</event>
<event>
 7    0  0.4831799E-002  0.4512253E+03  0.7546771E-02  0.1027357E+00
         21   -1    0    0  502  501  0.00000000000E+00  0.00000000000E+00  0.16242670774E+03  0.16242670774E+03  0.00000000000E+00 0. -1.
         21   -1    0    0  501  502 -0.00000000000E+00 -0.00000000000E+00 -0.31337872865E+03  0.31337872865E+03  0.00000000000E+00 0. -1.
      99926    2    1    2    0    0  0.00000000000E+00  0.71054273576E-14 -0.15095202091E+03  0.47580543640E+03  0.45122533250E+03 0.  0.
      99925    2    3    3    0    0 -0.75624512093E+02  0.61845022417E+02 -0.42907172245E+02  0.28380264722E+03  0.26298107064E+03 0.  0.
         25    1    3    3    0    0  0.75624512093E+02 -0.61845022417E+02 -0.10804484866E+03  0.19200278917E+03  0.12509000000E+03 0.  0.
         25    1    4    4    0    0 -0.51089150675E+02  0.35309848580E+02 -0.60900955909E+02  0.15235918500E+03  0.12509000000E+03 0.  0.
         25    1    4    4    0    0 -0.24535361418E+02  0.26535173836E+02  0.17993783665E+02  0.13144346222E+03  0.12509000000E+03 0.  0.
<mgrwt>
<rscale>  2 0.45122533E+03</rscale>
<asrwt>0</asrwt>
<pdfrwt beam="1">  1       21 0.23886281E-01 0.45122533E+03</pdfrwt>
<pdfrwt beam="2">  1       21 0.46085106E-01 0.45122533E+03</pdfrwt>
<totfact> 0.69052391E+04</totfact>
</mgrwt>
</event>
<event>
 7    0  0.4831799E-002  0.4500407E+03  0.7546771E-02  0.1027710E+00
         21   -1    0    0  502  501  0.00000000000E+00  0.00000000000E+00  0.10546896678E+03  0.10546896678E+03  0.00000000000E+00 0. -1.
         21   -1    0    0  501  502 -0.00000000000E+00 -0.00000000000E+00 -0.48008579107E+03  0.48008579107E+03  0.00000000000E+00 0. -1.
      99926    2    1    2    0    0 -0.88817841970E-15  0.00000000000E+00 -0.37461682429E+03  0.58555475786E+03  0.45004067528E+03 0.  0.
      99925    2    3    3    0    0 -0.68560895435E+01  0.34558170324E+02 -0.37039587669E+03  0.45552938495E+03  0.26281674602E+03 0.  0.
         25    1    3    3    0    0  0.68560895435E+01 -0.34558170324E+02 -0.42209475968E+01  0.13002537290E+03  0.12509000000E+03 0.  0.
         25    1    4    4    0    0  0.75316119439E+01 -0.21090803779E+02 -0.16493750589E+03  0.20821487971E+03  0.12509000000E+03 0.  0.
         25    1    4    4    0    0 -0.14387701487E+02  0.55648974104E+02 -0.20545837080E+03  0.24731450525E+03  0.12509000000E+03 0.  0.
<mgrwt>
<rscale>  2 0.45004068E+03</rscale>
<asrwt>0</asrwt>
<pdfrwt beam="1">  1       21 0.15510142E-01 0.45004068E+03</pdfrwt>
<pdfrwt beam="2">  1       21 0.70600852E-01 0.45004068E+03</pdfrwt>
<totfact> 0.61970086E+04</totfact>
</mgrwt>
</event>
<event>
 7    0  0.4831799E-002  0.4581311E+03  0.7546771E-02  0.1025325E+00
         21   -1    0    0  502  501  0.00000000000E+00  0.00000000000E+00  0.21656924349E+04  0.21656924349E+04  0.00000000000E+00 0.  1.
         21   -1    0    0  501  502 -0.00000000000E+00 -0.00000000000E+00 -0.24228289950E+02  0.24228289950E+02  0.00000000000E+00 0.  1.
      99926    2    1    2    0    0  0.00000000000E+00  0.00000000000E+00  0.21414641449E+04  0.21899207248E+04  0.45813109152E+03 0.  0.
      99925    2    3    3    0    0 -0.95821710122E+02 -0.46008152871E+01  0.16560249985E+04  0.16795271114E+04  0.26303907442E+03 0.  0.
         25    1    3    3    0    0  0.95821710122E+02  0.46008152871E+01  0.48543914643E+03  0.51039361342E+03  0.12509000000E+03 0.  0.
         25    1    4    4    0    0 -0.32209425286E+02  0.31327113209E+02  0.68774516291E+03  0.70047109313E+03  0.12509000000E+03 0.  0.
         25    1    4    4    0    0 -0.63612284836E+02 -0.35927928496E+02  0.96827983557E+03  0.97905601827E+03  0.12509000000E+03 0.  0.
<mgrwt>
<rscale>  2 0.45813109E+03</rscale>
<asrwt>0</asrwt>
<pdfrwt beam="1">  1       21 0.31848405E+00 0.45813109E+03</pdfrwt>
<pdfrwt beam="2">  1       21 0.35629853E-02 0.45813109E+03</pdfrwt>
<totfact> 0.10589776E+04</totfact>
</mgrwt>
</event>
<event>
 7    0  0.4831799E-002  0.4517742E+03  0.7546771E-02  0.1027194E+00
         21   -1    0    0  502  501  0.00000000000E+00  0.00000000000E+00  0.70353996726E+03  0.70353996726E+03  0.00000000000E+00 0.  1.
         21   -1    0    0  501  502 -0.00000000000E+00 -0.00000000000E+00 -0.72526075395E+02  0.72526075395E+02  0.00000000000E+00 0.  1.
      99926    2    1    2    0    0  0.00000000000E+00  0.00000000000E+00  0.63101389187E+03  0.77606604266E+03  0.45177424765E+03 0.  0.
      99925    2    3    3    0    0  0.76255945106E+02  0.59820269551E+02  0.48792381393E+03  0.56272192552E+03  0.26304540187E+03 0.  0.
         25    1    4    4    0    0 -0.27167851615E+01  0.38184264288E+02  0.22997276713E+03  0.26457588832E+03  0.12509000000E+03 0.  0.
         25    1    4    4    0    0  0.78972730267E+02  0.21636005263E+02  0.25795104681E+03  0.29814603720E+03  0.12509000000E+03 0.  0.
         25    1    3    3    0    0 -0.76255945106E+02 -0.59820269551E+02  0.14309007793E+03  0.21334411714E+03  0.12509000000E+03 0.  0.
<mgrwt>
<rscale>  2 0.45177425E+03</rscale>
<asrwt>0</asrwt>
<pdfrwt beam="1">  1       21 0.10346176E+00 0.45177425E+03</pdfrwt>
<pdfrwt beam="2">  1       21 0.10665600E-01 0.45177425E+03</pdfrwt>
<totfact> 0.50203452E+04</totfact>
</mgrwt>
</event>
<event>
 7    0  0.4831799E-002  0.4508760E+03  0.7546771E-02  0.1027461E+00
         21   -1    0    0  502  501  0.00000000000E+00  0.00000000000E+00  0.13676466098E+04  0.13676466098E+04  0.00000000000E+00 0. -1.
         21   -1    0    0  501  502 -0.00000000000E+00 -0.00000000000E+00 -0.37160402982E+02  0.37160402982E+02  0.00000000000E+00 0. -1.
      99926    2    1    2    0    0  0.00000000000E+00  0.35527136788E-14  0.13304862068E+04  0.14048070128E+04  0.45087603244E+03 0.  0.
      99925    2    3    3    0    0 -0.99317916090E+02  0.22242804598E+02  0.71652976470E+03  0.77002452111E+03  0.26299062455E+03 0.  0.
         25    1    3    3    0    0  0.99317916090E+02 -0.22242804598E+02  0.61395644212E+03  0.63478249167E+03  0.12509000000E+03 0.  0.
         25    1    4    4    0    0 -0.40614412412E+02 -0.18669595842E+02  0.41669473323E+03  0.43735579692E+03  0.12509000000E+03 0.  0.
         25    1    4    4    0    0 -0.58703503678E+02  0.40912400440E+02  0.29983503147E+03  0.33266872419E+03  0.12509000000E+03 0.  0.
<mgrwt>
<rscale>  2 0.45087603E+03</rscale>
<asrwt>0</asrwt>
<pdfrwt beam="1">  1       21 0.20112447E+00 0.45087603E+03</pdfrwt>
<pdfrwt beam="2">  1       21 0.54647660E-02 0.45087603E+03</pdfrwt>
<totfact> 0.27061098E+04</totfact>
</mgrwt>
</event>
<event>
 7    0  0.4831799E-002  0.4511017E+03  0.7546771E-02  0.1027394E+00
         21   -1    0    0  502  501  0.00000000000E+00  0.00000000000E+00  0.19370946567E+03  0.19370946567E+03  0.00000000000E+00 0. -1.
         21   -1    0    0  501  502 -0.00000000000E+00 -0.00000000000E+00 -0.26262624774E+03  0.26262624774E+03  0.00000000000E+00 0. -1.
      99926    2    1    2    0    0  0.00000000000E+00  0.00000000000E+00 -0.68916782071E+02  0.45633571342E+03  0.45110171856E+03 0.  0.
      99925    2    3    3    0    0  0.44179318492E+02 -0.97453784044E+02 -0.19936646437E+02  0.28459284167E+03  0.26295734151E+03 0.  0.
         25    1    4    4    0    0  0.21654310729E+02 -0.81709719410E+02 -0.36856212286E+02  0.15540680778E+03  0.12509000000E+03 0.  0.
         25    1    4    4    0    0  0.22525007763E+02 -0.15744064634E+02  0.16919565849E+02  0.12918603390E+03  0.12509000000E+03 0.  0.
         25    1    3    3    0    0 -0.44179318492E+02  0.97453784044E+02 -0.48980135634E+02  0.17174287174E+03  0.12509000000E+03 0.  0.
<mgrwt>
<rscale>  2 0.45110172E+03</rscale>
<asrwt>0</asrwt>
<pdfrwt beam="1">  1       21 0.28486686E-01 0.45110172E+03</pdfrwt>
<pdfrwt beam="2">  1       21 0.38621507E-01 0.45110172E+03</pdfrwt>
<totfact> 0.70618365E+04</totfact>
</mgrwt>
</event>
<event>
 7    0  0.4831799E-002  0.4586868E+03  0.7546771E-02  0.1025163E+00
         21   -1    0    0  502  501  0.00000000000E+00  0.00000000000E+00  0.15093040871E+03  0.15093040871E+03  0.00000000000E+00 0. -1.
         21   -1    0    0  501  502 -0.00000000000E+00 -0.00000000000E+00 -0.34849428926E+03  0.34849428926E+03  0.00000000000E+00 0. -1.
      99926    2    1    2    0    0  0.00000000000E+00  0.00000000000E+00 -0.19756388056E+03  0.49942469797E+03  0.45868675808E+03 0.  0.
      99925    2    3    3    0    0 -0.62093322676E+02  0.18823574785E+02 -0.22891699712E+03  0.35506253635E+03  0.26354602152E+03 0.  0.
         25    1    3    3    0    0  0.62093322676E+02 -0.18823574785E+02  0.31353116566E+02  0.14436216162E+03  0.12509000000E+03 0.  0.
         25    1    4    4    0    0  0.99535342383E+01 -0.19976274000E+01 -0.10198177852E+03  0.16171225869E+03  0.12509000000E+03 0.  0.
         25    1    4    4    0    0 -0.72046856914E+02  0.20821202185E+02 -0.12693521860E+03  0.19335027766E+03  0.12509000000E+03 0.  0.
<mgrwt>
<rscale>  2 0.45868676E+03</rscale>
<asrwt>0</asrwt>
<pdfrwt beam="1">  1       21 0.22195649E-01 0.45868676E+03</pdfrwt>
<pdfrwt beam="2">  1       21 0.51249160E-01 0.45868676E+03</pdfrwt>
<totfact> 0.63434157E+04</totfact>
</mgrwt>
</event>
<event>
 7    0  0.4831799E-002  0.4498861E+03  0.7546771E-02  0.1027756E+00
         21   -1    0    0  502  501  0.00000000000E+00  0.00000000000E+00  0.31016304324E+03  0.31016304324E+03  0.00000000000E+00 0.  1.
         21   -1    0    0  501  502 -0.00000000000E+00 -0.00000000000E+00 -0.16313802184E+03  0.16313802184E+03  0.00000000000E+00 0.  1.
      99926    2    1    2    0    0  0.00000000000E+00  0.00000000000E+00  0.14702502141E+03  0.47330106508E+03  0.44988614258E+03 0.  0.
      99925    2    3    3    0    0 -0.57761090167E+02  0.87266330750E+02  0.63708766355E+02  0.29015941914E+03  0.26302457221E+03 0.  0.
         25    1    4    4    0    0 -0.67112229497E+02  0.31851639106E+02  0.24535846390E+02  0.14754014410E+03  0.12509000000E+03 0.  0.
         25    1    4    4    0    0  0.93511393300E+01  0.55414691644E+02  0.39172919964E+02  0.14261927505E+03  0.12509000000E+03 0.  0.
         25    1    3    3    0    0  0.57761090167E+02 -0.87266330750E+02  0.83316255054E+02  0.18314164594E+03  0.12509000000E+03 0.  0.
<mgrwt>
<rscale>  2 0.44988614E+03</rscale>
<asrwt>0</asrwt>
<pdfrwt beam="1">  1       21 0.45612212E-01 0.44988614E+03</pdfrwt>
<pdfrwt beam="2">  1       21 0.23990886E-01 0.44988614E+03</pdfrwt>
<totfact> 0.69988718E+04</totfact>
</mgrwt>
</event>
<event>
 7    0  0.4831799E-002  0.4571532E+03  0.7546771E-02  0.1025610E+00
         21   -1    0    0  502  501  0.00000000000E+00  0.00000000000E+00  0.36771517785E+03  0.36771517785E+03  0.00000000000E+00 0. -1.
         21   -1    0    0  501  502 -0.00000000000E+00 -0.00000000000E+00 -0.14208622526E+03  0.14208622526E+03  0.00000000000E+00 0. -1.
      99926    2    1    2    0    0  0.00000000000E+00  0.00000000000E+00  0.22562895259E+03  0.50980140311E+03  0.45715319792E+03 0.  0.
      99925    2    3    3    0    0  0.10178850509E+03 -0.53343386054E+02  0.13247806175E+03  0.31607217669E+03  0.26295392644E+03 0.  0.
         25    1    4    4    0    0  0.58443433804E+02 -0.28240224263E+02  0.23717983082E+02  0.14290974789E+03  0.12509000000E+03 0.  0.
         25    1    3    3    0    0 -0.10178850509E+03  0.53343386054E+02  0.93150890843E+02  0.19372922642E+03  0.12509000000E+03 0.  0.
         25    1    4    4    0    0  0.43345071287E+02 -0.25103161791E+02  0.10876007866E+03  0.17316242880E+03  0.12509000000E+03 0.  0.
<mgrwt>
<rscale>  2 0.45715320E+03</rscale>
<asrwt>0</asrwt>
<pdfrwt beam="1">  1       21 0.54075761E-01 0.45715320E+03</pdfrwt>
<pdfrwt beam="2">  1       21 0.20895033E-01 0.45715320E+03</pdfrwt>
<totfact> 0.63495388E+04</totfact>
</mgrwt>
</event>
<event>
 7    0  0.4831799E-002  0.4384910E+03  0.7546771E-02  0.1031211E+00
         21   -1    0    0  502  501  0.00000000000E+00  0.00000000000E+00  0.10889024151E+04  0.10889024151E+04  0.00000000000E+00 0. -1.
         21   -1    0    0  501  502 -0.00000000000E+00 -0.00000000000E+00 -0.44144075993E+02  0.44144075993E+02  0.00000000000E+00 0. -1.
      99926    2    1    2    0    0 -0.71054273576E-14 -0.35527136788E-14  0.10447583391E+04  0.11330464911E+04  0.43849100771E+03 0.  0.
      99925    2    3    3    0    0 -0.46018601597E+02 -0.18868596432E+02  0.45322875542E+03  0.52639297210E+03  0.26305801778E+03 0.  0.
         25    1    3    3    0    0  0.46018601597E+02  0.18868596432E+02  0.59152958371E+03  0.60665351901E+03  0.12509000000E+03 0.  0.
         25    1    4    4    0    0 -0.57320556711E+02  0.89773380982E+01  0.20974332560E+03  0.25100997899E+03  0.12509000000E+03 0.  0.
         25    1    4    4    0    0  0.11301955114E+02 -0.27845934530E+02  0.24348542982E+03  0.27538299311E+03  0.12509000000E+03 0.  0.
<mgrwt>
<rscale>  2 0.43849101E+03</rscale>
<asrwt>0</asrwt>
<pdfrwt beam="1">  1       21 0.16013269E+00 0.43849101E+03</pdfrwt>
<pdfrwt beam="2">  1       21 0.64917766E-02 0.43849101E+03</pdfrwt>
<totfact> 0.39154742E+04</totfact>
</mgrwt>
</event>
<event>
 7    0  0.4831799E-002  0.4382918E+03  0.7546771E-02  0.1031272E+00
         21   -1    0    0  502  501  0.00000000000E+00  0.00000000000E+00  0.80663970063E+02  0.80663970063E+02  0.00000000000E+00 0. -1.
         21   -1    0    0  501  502 -0.00000000000E+00 -0.00000000000E+00 -0.59537029707E+03  0.59537029707E+03  0.00000000000E+00 0. -1.
      99926    2    1    2    0    0 -0.71054273576E-14  0.00000000000E+00 -0.51470632700E+03  0.67603426713E+03  0.43829182889E+03 0.  0.
      99925    2    3    3    0    0  0.49916828435E+02 -0.76580603808E+02 -0.28047814106E+03  0.39520223578E+03  0.26298391759E+03 0.  0.
         25    1    4    4    0    0 -0.14591777678E+02 -0.30324126441E+02 -0.14516115159E+03  0.19455523805E+03  0.12509000000E+03 0.  0.
         25    1    3    3    0    0 -0.49916828435E+02  0.76580603808E+02 -0.23422818594E+03  0.28083203134E+03  0.12509000000E+03 0.  0.
         25    1    4    4    0    0  0.64508606113E+02 -0.46256477367E+02 -0.13531698947E+03  0.20064699774E+03  0.12509000000E+03 0.  0.
<mgrwt>
<rscale>  2 0.43829183E+03</rscale>
<asrwt>0</asrwt>
<pdfrwt beam="1">  1       21 0.11862348E-01 0.43829183E+03</pdfrwt>
<pdfrwt beam="2">  1       21 0.87554457E-01 0.43829183E+03</pdfrwt>
<totfact> 0.61986036E+04</totfact>
</mgrwt>
</event>
<event>
 7    0  0.4831799E-002  0.4393260E+03  0.7546771E-02  0.1030954E+00
         21   -1    0    0  502  501  0.00000000000E+00  0.00000000000E+00  0.31438584398E+03  0.31438584398E+03  0.00000000000E+00 0. -1.
         21   -1    0    0  501  502 -0.00000000000E+00 -0.00000000000E+00 -0.15347963678E+03  0.15347963678E+03  0.00000000000E+00 0. -1.
      99926    2    1    2    0    0  0.00000000000E+00  0.00000000000E+00  0.16090620721E+03  0.46786548076E+03  0.43932596164E+03 0.  0.
      99925    2    3    3    0    0  0.52518012521E+02 -0.59747533779E+02  0.16331480920E+03  0.31960483563E+03  0.26295934025E+03 0.  0.
         25    1    3    3    0    0 -0.52518012521E+02  0.59747533779E+02 -0.24086019930E+01  0.14826064513E+03  0.12509000000E+03 0.  0.
         25    1    4    4    0    0  0.20685617995E+02 -0.70228378405E+02  0.93533763446E+02  0.17249925487E+03  0.12509000000E+03 0.  0.
         25    1    4    4    0    0  0.31832394527E+02  0.10480844626E+02  0.69781045752E+02  0.14710558076E+03  0.12509000000E+03 0.  0.
<mgrwt>
<rscale>  2 0.43932596E+03</rscale>
<asrwt>0</asrwt>
<pdfrwt beam="1">  1       21 0.46233212E-01 0.43932596E+03</pdfrwt>
<pdfrwt beam="2">  1       21 0.22570535E-01 0.43932596E+03</pdfrwt>
<totfact> 0.76700875E+04</totfact>
</mgrwt>
</event>
<event>
 7    0  0.4831799E-002  0.4788649E+03  0.7546771E-02  0.1019448E+00
         21   -1    0    0  502  501  0.00000000000E+00  0.00000000000E+00  0.50987875509E+02  0.50987875509E+02  0.00000000000E+00 0. -1.
         21   -1    0    0  501  502 -0.00000000000E+00 -0.00000000000E+00 -0.11243438613E+04  0.11243438613E+04  0.00000000000E+00 0. -1.
      99926    2    1    2    0    0 -0.35527136788E-14  0.00000000000E+00 -0.10733559858E+04  0.11753317368E+04  0.47886492804E+03 0.  0.
      99925    2    3    3    0    0  0.30649878883E+02  0.12361887291E+03 -0.55900319463E+03  0.63088032236E+03  0.26325722919E+03 0.  0.
         25    1    3    3    0    0 -0.30649878883E+02 -0.12361887291E+03 -0.51435279113E+03  0.54445141441E+03  0.12509000000E+03 0.  0.
         25    1    4    4    0    0 -0.18075755587E+02  0.41109320261E+02 -0.21969465187E+03  0.25676829499E+03  0.12509000000E+03 0.  0.
         25    1    4    4    0    0  0.48725634470E+02  0.82509552653E+02 -0.33930854276E+03  0.37411202737E+03  0.12509000000E+03 0.  0.
<mgrwt>
<rscale>  2 0.47886493E+03</rscale>
<asrwt>0</asrwt>
<pdfrwt beam="1">  1       21 0.74982170E-02 0.47886493E+03</pdfrwt>
<pdfrwt beam="2">  1       21 0.16534469E+00 0.47886493E+03</pdfrwt>
<totfact> 0.27472416E+04</totfact>
</mgrwt>
</event>
<event>
 7    0  0.4831799E-002  0.4492533E+03  0.7546771E-02  0.1027945E+00
         21   -1    0    0  502  501  0.00000000000E+00  0.00000000000E+00  0.23443265196E+03  0.23443265196E+03  0.00000000000E+00 0. -1.
         21   -1    0    0  501  502 -0.00000000000E+00 -0.00000000000E+00 -0.21523080913E+03  0.21523080913E+03  0.00000000000E+00 0. -1.
      99926    2    1    2    0    0  0.00000000000E+00  0.00000000000E+00  0.19201842835E+02  0.44966346109E+03  0.44925328877E+03 0.  0.
      99925    2    3    3    0    0  0.99330987664E+02  0.41010099044E+02  0.51049924247E+01  0.28415000960E+03  0.26299561531E+03 0.  0.
         25    1    4    4    0    0  0.38653756688E+02  0.49096374418E+01  0.38738043027E+02  0.13662489350E+03  0.12509000000E+03 0.  0.
         25    1    3    3    0    0 -0.99330987664E+02 -0.41010099044E+02  0.14096850411E+02  0.16551345149E+03  0.12509000000E+03 0.  0.
         25    1    4    4    0    0  0.60677230975E+02  0.36100461603E+02 -0.33633050602E+02  0.14752511610E+03  0.12509000000E+03 0.  0.
<mgrwt>
<rscale>  2 0.44925329E+03</rscale>
<asrwt>0</asrwt>
<pdfrwt beam="1">  1       21 0.34475390E-01 0.44925329E+03</pdfrwt>
<pdfrwt beam="2">  1       21 0.31651590E-01 0.44925329E+03</pdfrwt>
<totfact> 0.72192383E+04</totfact>
</mgrwt>
</event>
<event>
 7    0  0.4831799E-002  0.4211259E+03  0.7546771E-02  0.1036700E+00
         21   -1    0    0  502  501  0.00000000000E+00  0.00000000000E+00  0.68595900052E+03  0.68595900052E+03  0.00000000000E+00 0.  1.
         21   -1    0    0  501  502 -0.00000000000E+00 -0.00000000000E+00 -0.64634706627E+02  0.64634706627E+02  0.00000000000E+00 0.  1.
      99926    2    1    2    0    0  0.17763568394E-14  0.00000000000E+00  0.62132429389E+03  0.75059370715E+03  0.42112591351E+03 0.  0.
      99925    2    3    3    0    0  0.11127611969E+02 -0.63436374136E+02  0.32842816555E+03  0.42565733274E+03  0.26300400697E+03 0.  0.
         25    1    4    4    0    0  0.36370172161E+02 -0.14059484954E+02  0.19188147853E+03  0.23234988367E+03  0.12509000000E+03 0.  0.
         25    1    4    4    0    0 -0.25242560193E+02 -0.49376889181E+02  0.13654668702E+03  0.19330744907E+03  0.12509000000E+03 0.  0.
         25    1    3    3    0    0 -0.11127611969E+02  0.63436374136E+02  0.29289612835E+03  0.32493637441E+03  0.12509000000E+03 0.  0.
<mgrwt>
<rscale>  2 0.42112591E+03</rscale>
<asrwt>0</asrwt>
<pdfrwt beam="1">  1       21 0.10087632E+00 0.42112591E+03</pdfrwt>
<pdfrwt beam="2">  1       21 0.95051043E-02 0.42112591E+03</pdfrwt>
<totfact> 0.66169662E+04</totfact>
</mgrwt>
</event>
<event>
 7    0  0.4831799E-002  0.4409965E+03  0.7546771E-02  0.1030441E+00
         21   -1    0    0  502  501  0.00000000000E+00  0.00000000000E+00  0.18085503816E+03  0.18085503816E+03  0.00000000000E+00 0. -1.
         21   -1    0    0  501  502 -0.00000000000E+00 -0.00000000000E+00 -0.26883123126E+03  0.26883123126E+03  0.00000000000E+00 0. -1.
      99926    2    1    2    0    0  0.71054273576E-14 -0.14210854715E-13 -0.87976193097E+02  0.44968626943E+03  0.44099651967E+03 0.  0.
      99925    2    3    3    0    0  0.42665117361E+02  0.89827030364E+02 -0.55290773666E+02  0.28657571683E+03  0.26301970307E+03 0.  0.
         25    1    4    4    0    0  0.28188712197E+02  0.35079329000E+01 -0.31228453294E+02  0.13202133723E+03  0.12509000000E+03 0.  0.
         25    1    4    4    0    0  0.14476405164E+02  0.86319097464E+02 -0.24062320371E+02  0.15455437960E+03  0.12509000000E+03 0.  0.
         25    1    3    3    0    0 -0.42665117361E+02 -0.89827030364E+02 -0.32685419431E+02  0.16311055259E+03  0.12509000000E+03 0.  0.
<mgrwt>
<rscale>  2 0.44099652E+03</rscale>
<asrwt>0</asrwt>
<pdfrwt beam="1">  1       21 0.26596329E-01 0.44099652E+03</pdfrwt>
<pdfrwt beam="2">  1       21 0.39534005E-01 0.44099652E+03</pdfrwt>
<totfact> 0.77202533E+04</totfact>
</mgrwt>
</event>
<event>
 7    0  0.4831799E-002  0.4517428E+03  0.7546771E-02  0.1027204E+00
         21   -1    0    0  502  501  0.00000000000E+00  0.00000000000E+00  0.44439790059E+03  0.44439790059E+03  0.00000000000E+00 0.  1.
         21   -1    0    0  501  502 -0.00000000000E+00 -0.00000000000E+00 -0.11480226764E+03  0.11480226764E+03  0.00000000000E+00 0.  1.
      99926    2    1    2    0    0  0.00000000000E+00  0.00000000000E+00  0.32959563295E+03  0.55920016823E+03  0.45174278842E+03 0.  0.
      99925    2    3    3    0    0 -0.96256334291E+02  0.28989623724E+02  0.15231795651E+03  0.32007559225E+03  0.26294855904E+03 0.  0.
         25    1    4    4    0    0 -0.75841765073E+02  0.16726120305E+02  0.46197435431E+02  0.15431606388E+03  0.12509000000E+03 0.  0.
         25    1    3    3    0    0  0.96256334291E+02 -0.28989623724E+02  0.17727767644E+03  0.23912457599E+03  0.12509000000E+03 0.  0.
         25    1    4    4    0    0 -0.20414569218E+02  0.12263503419E+02  0.10612052107E+03  0.16575952837E+03  0.12509000000E+03 0.  0.
<mgrwt>
<rscale>  2 0.45174279E+03</rscale>
<asrwt>0</asrwt>
<pdfrwt beam="1">  1       21 0.65352632E-01 0.45174279E+03</pdfrwt>
<pdfrwt beam="2">  1       21 0.16882687E-01 0.45174279E+03</pdfrwt>
<totfact> 0.62866763E+04</totfact>
</mgrwt>
</event>
<event>
 7    0  0.4831799E-002  0.4588389E+03  0.7546771E-02  0.1025119E+00
         21   -1    0    0  502  501  0.00000000000E+00  0.00000000000E+00  0.13836554734E+03  0.13836554734E+03  0.00000000000E+00 0.  1.
         21   -1    0    0  501  502 -0.00000000000E+00 -0.00000000000E+00 -0.38039290656E+03  0.38039290656E+03  0.00000000000E+00 0.  1.
      99926    2    1    2    0    0  0.00000000000E+00 -0.14210854715E-13 -0.24202735921E+03  0.51875845390E+03  0.45883885067E+03 0.  0.
      99925    2    3    3    0    0  0.66889830807E+02 -0.95588542027E+02 -0.15531035981E+03  0.32698054871E+03  0.26302766498E+03 0.  0.
         25    1    4    4    0    0  0.49358353499E+02 -0.86970605097E+02 -0.73244834519E+02  0.17610351244E+03  0.12509000000E+03 0.  0.
         25    1    4    4    0    0  0.17531477308E+02 -0.86179369300E+01 -0.82065525286E+02  0.15087703627E+03  0.12509000000E+03 0.  0.
         25    1    3    3    0    0 -0.66889830807E+02  0.95588542027E+02 -0.86716999408E+02  0.19177790519E+03  0.12509000000E+03 0.  0.
<mgrwt>
<rscale>  2 0.45883885E+03</rscale>
<asrwt>0</asrwt>
<pdfrwt beam="1">  1       21 0.20347875E-01 0.45883885E+03</pdfrwt>
<pdfrwt beam="2">  1       21 0.55940133E-01 0.45883885E+03</pdfrwt>
<totfact> 0.62059933E+04</totfact>
</mgrwt>
</event>
<event>
 7    0  0.4831799E-002  0.4556203E+03  0.7546771E-02  0.1026059E+00
         21   -1    0    0  502  501  0.00000000000E+00  0.00000000000E+00  0.26627490257E+03  0.26627490257E+03  0.00000000000E+00 0.  1.
         21   -1    0    0  501  502 -0.00000000000E+00 -0.00000000000E+00 -0.19490181647E+03  0.19490181647E+03  0.00000000000E+00 0.  1.
      99926    2    1    2    0    0  0.00000000000E+00  0.00000000000E+00  0.71373086100E+02  0.46117671904E+03  0.45562029011E+03 0.  0.
      99925    2    3    3    0    0 -0.10924690369E+03  0.17286999936E+02  0.71154661161E+02  0.29419982799E+03  0.26316691785E+03 0.  0.
         25    1    3    3    0    0  0.10924690369E+03 -0.17286999936E+02  0.21842493835E+00  0.16697689104E+03  0.12509000000E+03 0.  0.
         25    1    4    4    0    0 -0.46714767483E+02 -0.31774071874E+02  0.34968853955E+02  0.14164106040E+03  0.12509000000E+03 0.  0.
         25    1    4    4    0    0 -0.62532136211E+02  0.49061071810E+02  0.36185807206E+02  0.15255876759E+03  0.12509000000E+03 0.  0.
<mgrwt>
<rscale>  2 0.45562029E+03</rscale>
<asrwt>0</asrwt>
<pdfrwt beam="1">  1       21 0.39158074E-01 0.45562029E+03</pdfrwt>
<pdfrwt beam="2">  1       21 0.28662032E-01 0.45562029E+03</pdfrwt>
<totfact> 0.67759081E+04</totfact>
</mgrwt>
</event>
<event>
 7    0  0.4831799E-002  0.4592027E+03  0.7546771E-02  0.1025013E+00
         21   -1    0    0  502  501  0.00000000000E+00  0.00000000000E+00  0.79415320825E+02  0.79415320825E+02  0.00000000000E+00 0. -1.
         21   -1    0    0  501  502 -0.00000000000E+00 -0.00000000000E+00 -0.66381121720E+03  0.66381121720E+03  0.00000000000E+00 0. -1.
      99926    2    1    2    0    0  0.00000000000E+00  0.00000000000E+00 -0.58439589637E+03  0.74322653802E+03  0.45920270374E+03 0.  0.
      99925    2    3    3    0    0 -0.58318143978E+02  0.89091284715E+02 -0.44516550577E+03  0.52788756641E+03  0.26297279766E+03 0.  0.
         25    1    4    4    0    0 -0.13536057202E+02  0.59834711325E+02 -0.16154615758E+03  0.21332624464E+03  0.12509000000E+03 0.  0.
         25    1    4    4    0    0 -0.44782086776E+02  0.29256573390E+02 -0.28361934819E+03  0.31456132176E+03  0.12509000000E+03 0.  0.
         25    1    3    3    0    0  0.58318143978E+02 -0.89091284715E+02 -0.13923039060E+03  0.21533897162E+03  0.12509000000E+03 0.  0.
<mgrwt>
<rscale>  2 0.45920270E+03</rscale>
<asrwt>0</asrwt>
<pdfrwt beam="1">  1       21 0.11678723E-01 0.45920270E+03</pdfrwt>
<pdfrwt beam="2">  1       21 0.97619303E-01 0.45920270E+03</pdfrwt>
<totfact> 0.48979757E+04</totfact>
</mgrwt>
</event>
<event>
 7    0  0.4831799E-002  0.4206690E+03  0.7546771E-02  0.1036849E+00
         21   -1    0    0  502  501  0.00000000000E+00  0.00000000000E+00  0.28882269614E+03  0.28882269614E+03  0.00000000000E+00 0.  1.
         21   -1    0    0  501  502 -0.00000000000E+00 -0.00000000000E+00 -0.15317566602E+03  0.15317566602E+03  0.00000000000E+00 0.  1.
      99926    2    1    2    0    0  0.00000000000E+00 -0.35527136788E-14  0.13564703012E+03  0.44199836216E+03  0.42066903306E+03 0.  0.
      99925    2    3    3    0    0  0.71858283072E+02  0.17503779049E+02  0.10921527361E+03  0.29429548142E+03  0.26308146888E+03 0.  0.
         25    1    3    3    0    0 -0.71858283072E+02 -0.17503779049E+02  0.26431756503E+02  0.14770288074E+03  0.12509000000E+03 0.  0.
         25    1    4    4    0    0  0.35899720370E+02  0.36966843524E+02  0.86955628228E+02  0.16082327824E+03  0.12509000000E+03 0.  0.
         25    1    4    4    0    0  0.35958562702E+02 -0.19463064474E+02  0.22259645385E+02  0.13347220318E+03  0.12509000000E+03 0.  0.
<mgrwt>
<rscale>  2 0.42066903E+03</rscale>
<asrwt>0</asrwt>
<pdfrwt beam="1">  1       21 0.42473926E-01 0.42066903E+03</pdfrwt>
<pdfrwt beam="2">  1       21 0.22525833E-01 0.42066903E+03</pdfrwt>
<totfact> 0.92256578E+04</totfact>
</mgrwt>
</event>
<event>
 7    0  0.4831799E-002  0.4535072E+03  0.7546771E-02  0.1026681E+00
         21   -1    0    0  502  501  0.00000000000E+00  0.00000000000E+00  0.76077266420E+03  0.76077266420E+03  0.00000000000E+00 0.  1.
         21   -1    0    0  501  502 -0.00000000000E+00 -0.00000000000E+00 -0.67585498184E+02  0.67585498184E+02  0.00000000000E+00 0.  1.
      99926    2    1    2    0    0  0.00000000000E+00 -0.14210854715E-13  0.69318716602E+03  0.82835816239E+03  0.45350721941E+03 0.  0.
      99925    2    3    3    0    0  0.64536326622E+02  0.90931321594E+02  0.42356112625E+03  0.51090083908E+03  0.26302508816E+03 0.  0.
         25    1    4    4    0    0  0.22533698085E+02  0.59003922487E+02  0.28120916627E+03  0.31418996437E+03  0.12509000000E+03 0.  0.
         25    1    3    3    0    0 -0.64536326622E+02 -0.90931321594E+02  0.26962603977E+03  0.31745732331E+03  0.12509000000E+03 0.  0.
         25    1    4    4    0    0  0.42002628537E+02  0.31927399107E+02  0.14235195998E+03  0.19671087471E+03  0.12509000000E+03 0.  0.
<mgrwt>
<rscale>  2 0.45350722E+03</rscale>
<asrwt>0</asrwt>
<pdfrwt beam="1">  1       21 0.11187833E+00 0.45350722E+03</pdfrwt>
<pdfrwt beam="2">  1       21 0.99390443E-02 0.45350722E+03</pdfrwt>
<totfact> 0.46971297E+04</totfact>
</mgrwt>
</event>
<event>
 7    0  0.4831799E-002  0.4545083E+03  0.7546771E-02  0.1026386E+00
         21   -1    0    0  502  501  0.00000000000E+00  0.00000000000E+00  0.17653331430E+03  0.17653331430E+03  0.00000000000E+00 0.  1.
         21   -1    0    0  501  502 -0.00000000000E+00 -0.00000000000E+00 -0.29254783340E+03  0.29254783340E+03  0.00000000000E+00 0.  1.
      99926    2    1    2    0    0 -0.71054273576E-14 -0.71054273576E-14 -0.11601451911E+03  0.46908114770E+03  0.45450825568E+03 0.  0.
      99925    2    3    3    0    0  0.46813514126E+02  0.41794295912E+02  0.23608894075E+02  0.27139332844E+03  0.26298039959E+03 0.  0.
         25    1    3    3    0    0 -0.46813514126E+02 -0.41794295912E+02 -0.13962341318E+03  0.19768781926E+03  0.12509000000E+03 0.  0.
         25    1    4    4    0    0 -0.43474168832E+01 -0.46085610524E+01 -0.62839033459E+01  0.12540787220E+03  0.12509000000E+03 0.  0.
         25    1    4    4    0    0  0.51160931009E+02  0.46402856964E+02  0.29892797421E+02  0.14598545624E+03  0.12509000000E+03 0.  0.
<mgrwt>
<rscale>  2 0.45450826E+03</rscale>
<asrwt>0</asrwt>
<pdfrwt beam="1">  1       21 0.25960782E-01 0.45450826E+03</pdfrwt>
<pdfrwt beam="2">  1       21 0.43021740E-01 0.45450826E+03</pdfrwt>
<totfact> 0.67768104E+04</totfact>
</mgrwt>
</event>
<event>
 7    0  0.4831799E-002  0.4668969E+03  0.7546771E-02  0.1022800E+00
         21   -1    0    0  502  501  0.00000000000E+00  0.00000000000E+00  0.17347130682E+02  0.17347130682E+02  0.00000000000E+00 0.  1.
         21   -1    0    0  501  502 -0.00000000000E+00 -0.00000000000E+00 -0.31416250075E+04  0.31416250075E+04  0.00000000000E+00 0.  1.
      99926    2    1    2    0    0  0.00000000000E+00  0.14210854715E-13 -0.31242778768E+04  0.31589721382E+04  0.46689690322E+03 0.  0.
      99925    2    3    3    0    0 -0.31340424502E+02  0.78560310173E+02 -0.25579050028E+04  0.25728154312E+04  0.26333874661E+03 0.  0.
         25    1    4    4    0    0  0.12037126575E+02  0.68644825803E+02 -0.14135076612E+04  0.14207422078E+04  0.12509000000E+03 0.  0.
         25    1    3    3    0    0  0.31340424502E+02 -0.78560310173E+02 -0.56637287407E+03  0.58615670697E+03  0.12509000000E+03 0.  0.
         25    1    4    4    0    0 -0.43377551077E+02  0.99154843697E+01 -0.11443973416E+04  0.11520732235E+04  0.12509000000E+03 0.  0.
<mgrwt>
<rscale>  2 0.46689690E+03</rscale>
<asrwt>0</asrwt>
<pdfrwt beam="1">  1       21 0.25510483E-02 0.46689690E+03</pdfrwt>
<pdfrwt beam="2">  1       21 0.46200374E+00 0.46689690E+03</pdfrwt>
<totfact> 0.22410185E+03</totfact>
</mgrwt>
</event>
<event>
 7    0  0.4831799E-002  0.4482638E+03  0.7546771E-02  0.1028241E+00
         21   -1    0    0  502  501  0.00000000000E+00  0.00000000000E+00  0.16115803525E+03  0.16115803525E+03  0.00000000000E+00 0. -1.
         21   -1    0    0  501  502 -0.00000000000E+00 -0.00000000000E+00 -0.31171337337E+03  0.31171337337E+03  0.00000000000E+00 0. -1.
      99926    2    1    2    0    0  0.00000000000E+00  0.26645352591E-14 -0.15055533812E+03  0.47287140863E+03  0.44826382774E+03 0.  0.
      99925    2    3    3    0    0  0.66371176007E+02  0.75842425692E+01 -0.76175021017E+01  0.27152249057E+03  0.26306611869E+03 0.  0.
         25    1    4    4    0    0  0.26877433419E+02  0.18033156636E+02 -0.41369979382E+02  0.13567083128E+03  0.12509000000E+03 0.  0.
         25    1    4    4    0    0  0.39493742588E+02 -0.10448914067E+02  0.33752477280E+02  0.13585165929E+03  0.12509000000E+03 0.  0.
         25    1    3    3    0    0 -0.66371176007E+02 -0.75842425692E+01 -0.14293783602E+03  0.20134891806E+03  0.12509000000E+03 0.  0.
<mgrwt>
<rscale>  2 0.44826383E+03</rscale>
<asrwt>0</asrwt>
<pdfrwt beam="1">  1       21 0.23699711E-01 0.44826383E+03</pdfrwt>
<pdfrwt beam="2">  1       21 0.45840202E-01 0.44826383E+03</pdfrwt>
<totfact> 0.70940156E+04</totfact>
</mgrwt>
</event>
<event>
 7    0  0.4831799E-002  0.4511986E+03  0.7546771E-02  0.1027365E+00
         21   -1    0    0  502  501  0.00000000000E+00  0.00000000000E+00  0.28504609227E+02  0.28504609227E+02  0.00000000000E+00 0.  1.
         21   -1    0    0  501  502 -0.00000000000E+00 -0.00000000000E+00 -0.17855024570E+04  0.17855024570E+04  0.00000000000E+00 0.  1.
      99926    2    1    2    0    0  0.71054273576E-14  0.00000000000E+00 -0.17569978478E+04  0.18140070663E+04  0.45119862505E+03 0.  0.
      99925    2    3    3    0    0 -0.39414203838E+02 -0.98627645784E+02 -0.12131781340E+04  0.12459680877E+04  0.26335223313E+03 0.  0.
         25    1    4    4    0    0 -0.59974461461E+02 -0.45217028393E+02 -0.66115275887E+03  0.67706129290E+03  0.12509000000E+03 0.  0.
         25    1    4    4    0    0  0.20560257623E+02 -0.53410617391E+02 -0.55202537515E+03  0.56890679479E+03  0.12509000000E+03 0.  0.
         25    1    3    3    0    0  0.39414203838E+02  0.98627645784E+02 -0.54381971379E+03  0.56803897858E+03  0.12509000000E+03 0.  0.
<mgrwt>
<rscale>  2 0.45119863E+03</rscale>
<asrwt>0</asrwt>
<pdfrwt beam="1">  1       21 0.41918528E-02 0.45119863E+03</pdfrwt>
<pdfrwt beam="2">  1       21 0.26257398E+00 0.45119863E+03</pdfrwt>
<totfact> 0.17502620E+04</totfact>
</mgrwt>
</event>
<event>
 7    0  0.4831799E-002  0.4496103E+03  0.7546771E-02  0.1027838E+00
         21   -1    0    0  502  501  0.00000000000E+00  0.00000000000E+00  0.62127812897E+02  0.62127812897E+02  0.00000000000E+00 0.  1.
         21   -1    0    0  501  502 -0.00000000000E+00 -0.00000000000E+00 -0.81344170590E+03  0.81344170590E+03  0.00000000000E+00 0.  1.
      99926    2    1    2    0    0  0.14210854715E-13  0.71054273576E-14 -0.75131389300E+03  0.87556951879E+03  0.44961029395E+03 0.  0.
      99925    2    3    3    0    0 -0.65092856013E+02 -0.36978358550E+02 -0.32329820555E+03  0.42340868932E+03  0.26296142222E+03 0.  0.
         25    1    4    4    0    0 -0.64807073435E+02 -0.39229472822E+02 -0.14819444800E+03  0.20820185115E+03  0.12509000000E+03 0.  0.
         25    1    4    4    0    0 -0.28578257837E+00  0.22511142727E+01 -0.17510375756E+03  0.21520683817E+03  0.12509000000E+03 0.  0.
         25    1    3    3    0    0  0.65092856013E+02  0.36978358550E+02 -0.42801568745E+03  0.45216082947E+03  0.12509000000E+03 0.  0.
<mgrwt>
<rscale>  2 0.44961029E+03</rscale>
<asrwt>0</asrwt>
<pdfrwt beam="1">  1       21 0.91364430E-02 0.44961029E+03</pdfrwt>
<pdfrwt beam="2">  1       21 0.11962378E+00 0.44961029E+03</pdfrwt>
<totfact> 0.46227673E+04</totfact>
</mgrwt>
</event>
<event>
 7    0  0.4831799E-002  0.4552412E+03  0.7546771E-02  0.1026170E+00
         21   -1    0    0  502  501  0.00000000000E+00  0.00000000000E+00  0.11348999494E+04  0.11348999494E+04  0.00000000000E+00 0.  1.
         21   -1    0    0  501  502 -0.00000000000E+00 -0.00000000000E+00 -0.45652606630E+02  0.45652606630E+02  0.00000000000E+00 0.  1.
      99926    2    1    2    0    0  0.00000000000E+00  0.35527136788E-14  0.10892473428E+04  0.11805525560E+04  0.45524121499E+03 0.  0.
      99925    2    3    3    0    0  0.25494760876E+02  0.29270743416E+02  0.40846009317E+03  0.48728093065E+03  0.26286174770E+03 0.  0.
         25    1    4    4    0    0  0.12920832617E+02  0.23105761609E+02  0.27802181432E+03  0.30601382562E+03  0.12509000000E+03 0.  0.
         25    1    4    4    0    0  0.12573928259E+02  0.61649818068E+01  0.13043827885E+03  0.18126710502E+03  0.12509000000E+03 0.  0.
         25    1    3    3    0    0 -0.25494760876E+02 -0.29270743416E+02  0.68078724961E+03  0.69327162540E+03  0.12509000000E+03 0.  0.
<mgrwt>
<rscale>  2 0.45524121E+03</rscale>
<asrwt>0</asrwt>
<pdfrwt beam="1">  1       21 0.16689703E+00 0.45524121E+03</pdfrwt>
<pdfrwt beam="2">  1       21 0.67136194E-02 0.45524121E+03</pdfrwt>
<totfact> 0.32716959E+04</totfact>
</mgrwt>
</event>
<event>
 7    0  0.4831799E-002  0.4395618E+03  0.7546771E-02  0.1030881E+00
         21   -1    0    0  502  501  0.00000000000E+00  0.00000000000E+00  0.24560608607E+03  0.24560608607E+03  0.00000000000E+00 0. -1.
         21   -1    0    0  501  502 -0.00000000000E+00 -0.00000000000E+00 -0.19667116956E+03  0.19667116956E+03  0.00000000000E+00 0. -1.
      99926    2    1    2    0    0  0.35527136788E-14  0.00000000000E+00  0.48934916507E+02  0.44227725563E+03  0.43956176448E+03 0.  0.
      99925    2    3    3    0    0  0.24765601960E+02 -0.89661037444E+02  0.63130589548E+02  0.28574782737E+03  0.26270499203E+03 0.  0.
         25    1    4    4    0    0 -0.13585487210E+02 -0.62672093450E+02  0.67078248935E+01  0.14072974019E+03  0.12509000000E+03 0.  0.
         25    1    3    3    0    0 -0.24765601960E+02  0.89661037444E+02 -0.14195673040E+02  0.15652942825E+03  0.12509000000E+03 0.  0.
         25    1    4    4    0    0  0.38351089170E+02 -0.26988943994E+02  0.56422764654E+02  0.14501808718E+03  0.12509000000E+03 0.  0.
<mgrwt>
<rscale>  2 0.43956176E+03</rscale>
<asrwt>0</asrwt>
<pdfrwt beam="1">  1       21 0.36118542E-01 0.43956176E+03</pdfrwt>
<pdfrwt beam="2">  1       21 0.28922231E-01 0.43956176E+03</pdfrwt>
<totfact> 0.78750008E+04</totfact>
</mgrwt>
</event>
<event>
 7    0  0.4831799E-002  0.4873555E+03  0.7546771E-02  0.1017133E+00
         21   -1    0    0  502  501  0.00000000000E+00  0.00000000000E+00  0.61255424712E+03  0.61255424712E+03  0.00000000000E+00 0.  1.
         21   -1    0    0  501  502 -0.00000000000E+00 -0.00000000000E+00 -0.96936452993E+02  0.96936452993E+02  0.00000000000E+00 0.  1.
      99926    2    1    2    0    0  0.00000000000E+00  0.00000000000E+00  0.51561779412E+03  0.70949070011E+03  0.48735545952E+03 0.  0.
      99925    2    3    3    0    0  0.85840679307E+02  0.67373595542E+02  0.18542402856E+03  0.33991898242E+03  0.26316348653E+03 0.  0.
         25    1    4    4    0    0  0.68485295997E+02  0.20212596061E+01  0.89074774931E+02  0.16815512150E+03  0.12509000000E+03 0.  0.
         25    1    4    4    0    0  0.17355383310E+02  0.65352335936E+02  0.96349253627E+02  0.17176386092E+03  0.12509000000E+03 0.  0.
         25    1    3    3    0    0 -0.85840679307E+02 -0.67373595542E+02  0.33019376557E+03  0.36957171769E+03  0.12509000000E+03 0.  0.
<mgrwt>
<rscale>  2 0.48735546E+03</rscale>
<asrwt>0</asrwt>
<pdfrwt beam="1">  1       21 0.90081505E-01 0.48735546E+03</pdfrwt>
<pdfrwt beam="2">  1       21 0.14255361E-01 0.48735546E+03</pdfrwt>
<totfact> 0.40925340E+04</totfact>
</mgrwt>
</event>
<event>
 7    0  0.4831799E-002  0.4629593E+03  0.7546771E-02  0.1023926E+00
         21   -1    0    0  502  501  0.00000000000E+00  0.00000000000E+00  0.33157270246E+03  0.33157270246E+03  0.00000000000E+00 0.  1.
         21   -1    0    0  501  502 -0.00000000000E+00 -0.00000000000E+00 -0.16160203767E+03  0.16160203767E+03  0.00000000000E+00 0.  1.
      99926    2    1    2    0    0  0.00000000000E+00  0.00000000000E+00  0.16997066479E+03  0.49317474013E+03  0.46295928267E+03 0.  0.
      99925    2    3    3    0    0  0.53732564639E+02  0.96417530680E+02  0.15760320463E+03  0.32589057801E+03  0.26302541703E+03 0.  0.
         25    1    4    4    0    0  0.34224256467E+02  0.68337252216E+02  0.42839025933E+02  0.15272187143E+03  0.12509000000E+03 0.  0.
         25    1    4    4    0    0  0.19508308173E+02  0.28080278465E+02  0.11476417870E+03  0.17316870658E+03  0.12509000000E+03 0.  0.
         25    1    3    3    0    0 -0.53732564639E+02 -0.96417530680E+02  0.12367460160E+02  0.16728416212E+03  0.12509000000E+03 0.  0.
<mgrwt>
<rscale>  2 0.46295928E+03</rscale>
<asrwt>0</asrwt>
<pdfrwt beam="1">  1       21 0.48760692E-01 0.46295928E+03</pdfrwt>
<pdfrwt beam="2">  1       21 0.23765006E-01 0.46295928E+03</pdfrwt>
<totfact> 0.61757471E+04</totfact>
</mgrwt>
</event>
<event>
 7    0  0.4831799E-002  0.4734394E+03  0.7546771E-02  0.1020954E+00
         21   -1    0    0  502  501  0.00000000000E+00  0.00000000000E+00  0.13741193967E+03  0.13741193967E+03  0.00000000000E+00 0.  1.
         21   -1    0    0  501  502 -0.00000000000E+00 -0.00000000000E+00 -0.40779722071E+03  0.40779722071E+03  0.00000000000E+00 0.  1.
      99926    2    1    2    0    0  0.71054273576E-14  0.14210854715E-13 -0.27038528104E+03  0.54520916038E+03  0.47343936081E+03 0.  0.
      99925    2    3    3    0    0  0.54741685189E+02  0.11435771340E+03 -0.20099959418E+03  0.35406465915E+03  0.26246258265E+03 0.  0.
         25    1    3    3    0    0 -0.54741685189E+02 -0.11435771340E+03 -0.69385686859E+02  0.19114450123E+03  0.12509000000E+03 0.  0.
         25    1    4    4    0    0  0.58935662894E+02  0.51371304945E+02 -0.13169488937E+03  0.19774598686E+03  0.12509000000E+03 0.  0.
         25    1    4    4    0    0 -0.41939777048E+01  0.62986408452E+02 -0.69304704811E+02  0.15631867229E+03  0.12509000000E+03 0.  0.
<mgrwt>
<rscale>  2 0.47343936E+03</rscale>
<asrwt>0</asrwt>
<pdfrwt beam="1">  1       21 0.20207638E-01 0.47343936E+03</pdfrwt>
<pdfrwt beam="2">  1       21 0.59970180E-01 0.47343936E+03</pdfrwt>
<totfact> 0.53874505E+04</totfact>
</mgrwt>
</event>
<event>
 7    0  0.4831799E-002  0.4464087E+03  0.7546771E-02  0.1028798E+00
         21   -1    0    0  502  501  0.00000000000E+00  0.00000000000E+00  0.25476885598E+03  0.25476885598E+03  0.00000000000E+00 0.  1.
         21   -1    0    0  501  502 -0.00000000000E+00 -0.00000000000E+00 -0.19555055366E+03  0.19555055366E+03  0.00000000000E+00 0.  1.
      99926    2    1    2    0    0  0.00000000000E+00  0.00000000000E+00  0.59218302318E+02  0.45031940964E+03  0.44640874025E+03 0.  0.
      99925    2    3    3    0    0 -0.41087172128E+02  0.93419979662E+02  0.14213131507E+02  0.28272340190E+03  0.26327753523E+03 0.  0.
         25    1    4    4    0    0 -0.30029975897E+02  0.84831132997E+02  0.26105262401E+02  0.15629175731E+03  0.12509000000E+03 0.  0.
         25    1    3    3    0    0  0.41087172128E+02 -0.93419979662E+02  0.45005170811E+02  0.16759600775E+03  0.12509000000E+03 0.  0.
         25    1    4    4    0    0 -0.11057196230E+02  0.85888466649E+01 -0.11892130894E+02  0.12643164459E+03  0.12509000000E+03 0.  0.
<mgrwt>
<rscale>  2 0.44640874E+03</rscale>
<asrwt>0</asrwt>
<pdfrwt beam="1">  1       21 0.37466008E-01 0.44640874E+03</pdfrwt>
<pdfrwt beam="2">  1       21 0.28757434E-01 0.44640874E+03</pdfrwt>
<totfact> 0.73821496E+04</totfact>
</mgrwt>
</event>
<event>
 7    0  0.4831799E-002  0.4596740E+03  0.7546771E-02  0.1024876E+00
         21   -1    0    0  502  501  0.00000000000E+00  0.00000000000E+00  0.62932054583E+03  0.62932054583E+03  0.00000000000E+00 0.  1.
         21   -1    0    0  501  502 -0.00000000000E+00 -0.00000000000E+00 -0.83939815244E+02  0.83939815244E+02  0.00000000000E+00 0.  1.
      99926    2    1    2    0    0 -0.14210854715E-13 -0.35527136788E-14  0.54538073058E+03  0.71326036107E+03  0.45967401643E+03 0.  0.
      99925    2    3    3    0    0  0.80495738204E+02  0.25414707082E+02  0.21494579787E+03  0.34999706253E+03  0.26300337746E+03 0.  0.
         25    1    4    4    0    0  0.61852743059E+02  0.30655323036E+02  0.75235752746E+02  0.16147271363E+03  0.12509000000E+03 0.  0.
         25    1    4    4    0    0  0.18642995144E+02 -0.52406159541E+01  0.13971004512E+03  0.18852434891E+03  0.12509000000E+03 0.  0.
         25    1    3    3    0    0 -0.80495738204E+02 -0.25414707082E+02  0.33043493272E+03  0.36326329854E+03  0.12509000000E+03 0.  0.
<mgrwt>
<rscale>  2 0.45967402E+03</rscale>
<asrwt>0</asrwt>
<pdfrwt beam="1">  1       21 0.92547136E-01 0.45967402E+03</pdfrwt>
<pdfrwt beam="2">  1       21 0.12344091E-01 0.45967402E+03</pdfrwt>
<totfact> 0.50313194E+04</totfact>
</mgrwt>
</event>
<event>
 7    0  0.4831799E-002  0.4374383E+03  0.7546771E-02  0.1031536E+00
         21   -1    0    0  502  501  0.00000000000E+00  0.00000000000E+00  0.40745871057E+03  0.40745871057E+03  0.00000000000E+00 0. -1.
         21   -1    0    0  501  502 -0.00000000000E+00 -0.00000000000E+00 -0.11740590456E+03  0.11740590456E+03  0.00000000000E+00 0. -1.
      99926    2    1    2    0    0  0.00000000000E+00  0.71054273576E-14  0.29005280602E+03  0.52486461513E+03  0.43743826300E+03 0.  0.
      99925    2    3    3    0    0 -0.74428641417E+02  0.32082505002E+02  0.24692164039E+03  0.36969788114E+03  0.26293975933E+03 0.  0.
         25    1    4    4    0    0 -0.16241050457E+02 -0.19655755220E+02  0.12055332668E+03  0.17558682498E+03  0.12509000000E+03 0.  0.
         25    1    4    4    0    0 -0.58187590961E+02  0.51738260222E+02  0.12636831371E+03  0.19411105616E+03  0.12509000000E+03 0.  0.
         25    1    3    3    0    0  0.74428641417E+02 -0.32082505002E+02  0.43131165629E+02  0.15516673400E+03  0.12509000000E+03 0.  0.
<mgrwt>
<rscale>  2 0.43743826E+03</rscale>
<asrwt>0</asrwt>
<pdfrwt beam="1">  1       21 0.59920398E-01 0.43743826E+03</pdfrwt>
<pdfrwt beam="2">  1       21 0.17265574E-01 0.43743826E+03</pdfrwt>
<totfact> 0.73219933E+04</totfact>
</mgrwt>
</event>
<event>
 7    0  0.4831799E-002  0.4314700E+03  0.7546771E-02  0.1033397E+00
         21   -1    0    0  502  501  0.00000000000E+00  0.00000000000E+00  0.24721584477E+03  0.24721584477E+03  0.00000000000E+00 0. -1.
         21   -1    0    0  501  502 -0.00000000000E+00 -0.00000000000E+00 -0.18826298361E+03  0.18826298361E+03  0.00000000000E+00 0. -1.
      99926    2    1    2    0    0  0.71054273576E-14  0.00000000000E+00  0.58952861154E+02  0.43547882838E+03  0.43147001070E+03 0.  0.
      99925    2    3    3    0    0  0.54985196387E+02 -0.47207641148E+02  0.90642952973E+02  0.28747983101E+03  0.26301440095E+03 0.  0.
         25    1    4    4    0    0  0.33301091483E+02 -0.49376520494E+02  0.14198397798E+02  0.13926990368E+03  0.12509000000E+03 0.  0.
         25    1    4    4    0    0  0.21684104903E+02  0.21688793462E+01  0.76444555175E+02  0.14820992733E+03  0.12509000000E+03 0.  0.
         25    1    3    3    0    0 -0.54985196387E+02  0.47207641148E+02 -0.31690091819E+02  0.14799899737E+03  0.12509000000E+03 0.  0.
<mgrwt>
<rscale>  2 0.43147001E+03</rscale>
<asrwt>0</asrwt>
<pdfrwt beam="1">  1       21 0.36355271E-01 0.43147001E+03</pdfrwt>
<pdfrwt beam="2">  1       21 0.27685733E-01 0.43147001E+03</pdfrwt>
<totfact> 0.84843175E+04</totfact>
</mgrwt>
</event>
<event>
 7    0  0.4831799E-002  0.4599293E+03  0.7546771E-02  0.1024802E+00
         21   -1    0    0  502  501  0.00000000000E+00  0.00000000000E+00  0.58247922848E+03  0.58247922848E+03  0.00000000000E+00 0.  1.
         21   -1    0    0  501  502 -0.00000000000E+00 -0.00000000000E+00 -0.90790762478E+02  0.90790762478E+02  0.00000000000E+00 0.  1.
      99926    2    1    2    0    0  0.71054273576E-14  0.17763568394E-14  0.49168846601E+03  0.67326999096E+03  0.45992926970E+03 0.  0.
      99925    2    3    3    0    0  0.60343941233E+02  0.13981445080E+02  0.16152698847E+03  0.31481360393E+03  0.26302046530E+03 0.  0.
         25    1    4    4    0    0  0.12968277990E+02 -0.26012033543E+02  0.57501047759E+02  0.14070778485E+03  0.12509000000E+03 0.  0.
         25    1    4    4    0    0  0.47375663242E+02  0.39993478623E+02  0.10402594071E+03  0.17410581909E+03  0.12509000000E+03 0.  0.
         25    1    3    3    0    0 -0.60343941233E+02 -0.13981445080E+02  0.33016147754E+03  0.35845638703E+03  0.12509000000E+03 0.  0.
<mgrwt>
<rscale>  2 0.45992927E+03</rscale>
<asrwt>0</asrwt>
<pdfrwt beam="1">  1       21 0.85658708E-01 0.45992927E+03</pdfrwt>
<pdfrwt beam="2">  1       21 0.13351583E-01 0.45992927E+03</pdfrwt>
<totfact> 0.52316096E+04</totfact>
</mgrwt>
</event>
<event>
 7    0  0.4831799E-002  0.4502654E+03  0.7546771E-02  0.1027643E+00
         21   -1    0    0  502  501  0.00000000000E+00  0.00000000000E+00  0.43866034055E+02  0.43866034055E+02  0.00000000000E+00 0. -1.
         21   -1    0    0  501  502 -0.00000000000E+00 -0.00000000000E+00 -0.11554434644E+04  0.11554434644E+04  0.00000000000E+00 0. -1.
      99926    2    1    2    0    0 -0.35527136788E-14  0.14210854715E-13 -0.11115774303E+04  0.11993094985E+04  0.45026535447E+03 0.  0.
      99925    2    3    3    0    0 -0.30926007582E+02  0.67313023665E+02 -0.91420975960E+03  0.95417898902E+03  0.26304105658E+03 0.  0.
         25    1    4    4    0    0 -0.19989080451E+02  0.61991539287E+01 -0.33058288158E+03  0.35407702910E+03  0.12509000000E+03 0.  0.
         25    1    3    3    0    0  0.30926007582E+02 -0.67313023665E+02 -0.19736767075E+03  0.24513050944E+03  0.12509000000E+03 0.  0.
         25    1    4    4    0    0 -0.10936927131E+02  0.61113869736E+02 -0.58362687802E+03  0.60010195992E+03  0.12509000000E+03 0.  0.
<mgrwt>
<rscale>  2 0.45026535E+03</rscale>
<asrwt>0</asrwt>
<pdfrwt beam="1">  1       21 0.64508867E-02 0.45026535E+03</pdfrwt>
<pdfrwt beam="2">  1       21 0.16991818E+00 0.45026535E+03</pdfrwt>
<totfact> 0.33392543E+04</totfact>
</mgrwt>
</event>
<event>
 7    0  0.4831799E-002  0.4389657E+03  0.7546771E-02  0.1031065E+00
         21   -1    0    0  502  501  0.00000000000E+00  0.00000000000E+00  0.16055987771E+04  0.16055987771E+04  0.00000000000E+00 0. -1.
         21   -1    0    0  501  502 -0.00000000000E+00 -0.00000000000E+00 -0.30002965446E+02  0.30002965446E+02  0.00000000000E+00 0. -1.
      99926    2    1    2    0    0  0.00000000000E+00  0.00000000000E+00  0.15755958116E+04  0.16356017425E+04  0.43896571451E+03 0.  0.
      99925    2    3    3    0    0 -0.27947941654E+02 -0.82505608360E+01  0.66047700726E+03  0.71151349272E+03  0.26300649045E+03 0.  0.
         25    1    3    3    0    0  0.27947941654E+02  0.82505608360E+01  0.91511880437E+03  0.92408824979E+03  0.12509000000E+03 0.  0.
         25    1    4    4    0    0  0.22171827089E+02 -0.12486031307E+02  0.27622084246E+03  0.30429090161E+03  0.12509000000E+03 0.  0.
         25    1    4    4    0    0 -0.50119768743E+02  0.42354704705E+01  0.38425616479E+03  0.40722259111E+03  0.12509000000E+03 0.  0.
<mgrwt>
<rscale>  2 0.43896571E+03</rscale>
<asrwt>0</asrwt>
<pdfrwt beam="1">  1       21 0.23611741E+00 0.43896571E+03</pdfrwt>
<pdfrwt beam="2">  1       21 0.44122019E-02 0.43896571E+03</pdfrwt>
<totfact> 0.23420066E+04</totfact>
</mgrwt>
</event>
<event>
 7    0  0.4831799E-002  0.4574703E+03  0.7546771E-02  0.1025517E+00
         21   -1    0    0  502  501  0.00000000000E+00  0.00000000000E+00  0.10976207157E+03  0.10976207157E+03  0.00000000000E+00 0. -1.
         21   -1    0    0  501  502 -0.00000000000E+00 -0.00000000000E+00 -0.47666524087E+03  0.47666524087E+03  0.00000000000E+00 0. -1.
      99926    2    1    2    0    0  0.14210854715E-13  0.71054273576E-14 -0.36690316930E+03  0.58642731243E+03  0.45747028005E+03 0.  0.
      99925    2    3    3    0    0  0.71209795975E+02  0.50693357308E+02 -0.32694015854E+03  0.42867687077E+03  0.26312229238E+03 0.  0.
         25    1    3    3    0    0 -0.71209795975E+02 -0.50693357308E+02 -0.39963010755E+02  0.15775044167E+03  0.12509000000E+03 0.  0.
         25    1    4    4    0    0  0.45241736974E+02  0.65555361091E+02 -0.16436987601E+03  0.22138040648E+03  0.12509000000E+03 0.  0.
         25    1    4    4    0    0  0.25968059002E+02 -0.14862003784E+02 -0.16257028253E+03  0.20729646429E+03  0.12509000000E+03 0.  0.
<mgrwt>
<rscale>  2 0.45747028E+03</rscale>
<asrwt>0</asrwt>
<pdfrwt beam="1">  1       21 0.16141481E-01 0.45747028E+03</pdfrwt>
<pdfrwt beam="2">  1       21 0.70097830E-01 0.45747028E+03</pdfrwt>
<totfact> 0.58373396E+04</totfact>
</mgrwt>
</event>
<event>
 7    0  0.4831799E-002  0.4554765E+03  0.7546771E-02  0.1026101E+00
         21   -1    0    0  502  501  0.00000000000E+00  0.00000000000E+00  0.10916975582E+03  0.10916975582E+03  0.00000000000E+00 0. -1.
         21   -1    0    0  501  502 -0.00000000000E+00 -0.00000000000E+00 -0.47508313260E+03  0.47508313260E+03  0.00000000000E+00 0. -1.
      99926    2    1    2    0    0  0.00000000000E+00  0.00000000000E+00 -0.36591337677E+03  0.58425288842E+03  0.45547649591E+03 0.  0.
      99925    2    3    3    0    0  0.44142401878E+01  0.11045246011E+03 -0.26352027499E+03  0.38841855319E+03  0.26307186408E+03 0.  0.
         25    1    4    4    0    0  0.86410372761E+00  0.24381531359E+02 -0.16026086326E+03  0.20475902456E+03  0.12509000000E+03 0.  0.
         25    1    3    3    0    0 -0.44142401878E+01 -0.11045246011E+03 -0.10239310178E+03  0.19583433523E+03  0.12509000000E+03 0.  0.
         25    1    4    4    0    0  0.35501364602E+01  0.86070928754E+02 -0.10325941172E+03  0.18365952863E+03  0.12509000000E+03 0.  0.
<mgrwt>
<rscale>  2 0.45547650E+03</rscale>
<asrwt>0</asrwt>
<pdfrwt beam="1">  1       21 0.16054376E-01 0.45547650E+03</pdfrwt>
<pdfrwt beam="2">  1       21 0.69865166E-01 0.45547650E+03</pdfrwt>
<totfact> 0.59433983E+04</totfact>
</mgrwt>
</event>
<event>
 7    0  0.4831799E-002  0.4566885E+03  0.7546771E-02  0.1025746E+00
         21   -1    0    0  502  501  0.00000000000E+00  0.00000000000E+00  0.12523173804E+03  0.12523173804E+03  0.00000000000E+00 0. -1.
         21   -1    0    0  501  502 -0.00000000000E+00 -0.00000000000E+00 -0.41635689961E+03  0.41635689961E+03  0.00000000000E+00 0. -1.
      99926    2    1    2    0    0  0.00000000000E+00  0.00000000000E+00 -0.29112516156E+03  0.54158863765E+03  0.45668850734E+03 0.  0.
      99925    2    3    3    0    0  0.39173630116E+02 -0.22323060477E+02 -0.57595715122E+02  0.27285754012E+03  0.26287083991E+03 0.  0.
         25    1    4    4    0    0  0.25406046202E+02 -0.15099173248E+01  0.10824484323E+02  0.12811098546E+03  0.12509000000E+03 0.  0.
         25    1    3    3    0    0 -0.39173630116E+02  0.22323060477E+02 -0.23352944644E+03  0.26873109753E+03  0.12509000000E+03 0.  0.
         25    1    4    4    0    0  0.13767583914E+02 -0.20813143152E+02 -0.68420199445E+02  0.14474655466E+03  0.12509000000E+03 0.  0.
<mgrwt>
<rscale>  2 0.45668851E+03</rscale>
<asrwt>0</asrwt>
<pdfrwt beam="1">  1       21 0.18416432E-01 0.45668851E+03</pdfrwt>
<pdfrwt beam="2">  1       21 0.61228956E-01 0.45668851E+03</pdfrwt>
<totfact> 0.61598558E+04</totfact>
</mgrwt>
</event>
<event>
 7    0  0.4831799E-002  0.4577243E+03  0.7546771E-02  0.1025443E+00
         21   -1    0    0  502  501  0.00000000000E+00  0.00000000000E+00  0.23882496698E+03  0.23882496698E+03  0.00000000000E+00 0. -1.
         21   -1    0    0  501  502 -0.00000000000E+00 -0.00000000000E+00 -0.21931489901E+03  0.21931489901E+03  0.00000000000E+00 0. -1.
      99926    2    1    2    0    0 -0.14210854715E-13  0.71054273576E-14  0.19510067968E+02  0.45813986600E+03  0.45772425549E+03 0.  0.
      99925    2    3    3    0    0  0.10884311202E+03 -0.38175093810E+02  0.25642460005E+01  0.28714621172E+03  0.26294906489E+03 0.  0.
         25    1    4    4    0    0  0.75329786430E+02  0.26131701685E+01  0.28812328873E+02  0.14885920790E+03  0.12509000000E+03 0.  0.
         25    1    4    4    0    0  0.33513325587E+02 -0.40788263979E+02 -0.26248082872E+02  0.13828700382E+03  0.12509000000E+03 0.  0.
         25    1    3    3    0    0 -0.10884311202E+03  0.38175093810E+02  0.16945821967E+02  0.17099365428E+03  0.12509000000E+03 0.  0.
<mgrwt>
<rscale>  2 0.45772426E+03</rscale>
<asrwt>0</asrwt>
<pdfrwt beam="1">  1       21 0.35121319E-01 0.45772426E+03</pdfrwt>
<pdfrwt beam="2">  1       21 0.32252191E-01 0.45772426E+03</pdfrwt>
<totfact> 0.66851421E+04</totfact>
</mgrwt>
</event>
<event>
 7    0  0.4831799E-002  0.4521988E+03  0.7546771E-02  0.1027068E+00
         21   -1    0    0  502  501  0.00000000000E+00  0.00000000000E+00  0.55237587865E+02  0.55237587865E+02  0.00000000000E+00 0. -1.
         21   -1    0    0  501  502 -0.00000000000E+00 -0.00000000000E+00 -0.92547371915E+03  0.92547371915E+03  0.00000000000E+00 0. -1.
      99926    2    1    2    0    0  0.00000000000E+00  0.00000000000E+00 -0.87023613128E+03  0.98071130701E+03  0.45219878761E+03 0.  0.
      99925    2    3    3    0    0  0.10489768114E+03  0.27413161538E+02 -0.59862763799E+03  0.66263319292E+03  0.26262653039E+03 0.  0.
         25    1    4    4    0    0  0.63812530463E+02  0.43379440389E+02 -0.25537557344E+03  0.29464895469E+03  0.12509000000E+03 0.  0.
         25    1    4    4    0    0  0.41085150679E+02 -0.15966278851E+02 -0.34325206456E+03  0.36798423823E+03  0.12509000000E+03 0.  0.
         25    1    3    3    0    0 -0.10489768114E+03 -0.27413161538E+02 -0.27160849329E+03  0.31807811409E+03  0.12509000000E+03 0.  0.
<mgrwt>
<rscale>  2 0.45219879E+03</rscale>
<asrwt>0</asrwt>
<pdfrwt beam="1">  1       21 0.81231747E-02 0.45219879E+03</pdfrwt>
<pdfrwt beam="2">  1       21 0.13609908E+00 0.45219879E+03</pdfrwt>
<totfact> 0.40807698E+04</totfact>
</mgrwt>
</event>
<event>
 7    0  0.4831799E-002  0.4571028E+03  0.7546771E-02  0.1025625E+00
         21   -1    0    0  502  501  0.00000000000E+00  0.00000000000E+00  0.42730625963E+02  0.42730625963E+02  0.00000000000E+00 0.  1.
         21   -1    0    0  501  502 -0.00000000000E+00 -0.00000000000E+00 -0.12224429318E+04  0.12224429318E+04  0.00000000000E+00 0.  1.
      99926    2    1    2    0    0  0.00000000000E+00  0.00000000000E+00 -0.11797123058E+04  0.12651735577E+04  0.45710284042E+03 0.  0.
      99925    2    3    3    0    0  0.10002488390E+03  0.56173363311E+02 -0.76895054055E+03  0.82072653047E+03  0.26295756285E+03 0.  0.
         25    1    4    4    0    0  0.52570336082E+02  0.54187409568E+02 -0.49045620872E+03  0.51175650104E+03  0.12509000000E+03 0.  0.
         25    1    4    4    0    0  0.47454547822E+02  0.19859537433E+01 -0.27849433183E+03  0.30897002943E+03  0.12509000000E+03 0.  0.
         25    1    3    3    0    0 -0.10002488390E+03 -0.56173363311E+02 -0.41076176527E+03  0.44444702728E+03  0.12509000000E+03 0.  0.
<mgrwt>
<rscale>  2 0.45710284E+03</rscale>
<asrwt>0</asrwt>
<pdfrwt beam="1">  1       21 0.62839155E-02 0.45710284E+03</pdfrwt>
<pdfrwt beam="2">  1       21 0.17977102E+00 0.45710284E+03</pdfrwt>
<totfact> 0.29654792E+04</totfact>
</mgrwt>
</event>
<event>
 6    0  0.4831799E-002  0.4365950E+03  0.7546771E-02  0.1031797E+00
         21   -1    0    0  502  501  0.00000000000E+00  0.00000000000E+00  0.93143495543E+02  0.93143495543E+02  0.00000000000E+00 0. -1.
         21   -1    0    0  501  502 -0.00000000000E+00 -0.00000000000E+00 -0.51161702306E+03  0.51161702306E+03  0.00000000000E+00 0. -1.
      99926    2    1    2    0    0 -0.17763568394E-14  0.00000000000E+00 -0.41847352752E+03  0.60476051860E+03  0.43659499726E+03 0.  0.
         25    1    3    3    0    0 -0.30463739576E+01  0.61925753975E+02 -0.18370803529E+03  0.23073844441E+03  0.12509000000E+03 0.  0.
         25    1    3    3    0    0 -0.15182202023E+02 -0.33158260165E+02 -0.33363221026E+02  0.13450123454E+03  0.12509000000E+03 0.  0.
         25    1    3    3    0    0  0.18228575981E+02 -0.28767493810E+02 -0.20140227120E+03  0.23952083965E+03  0.12509000000E+03 0.  0.
<mgrwt>
<rscale>  2 0.43659500E+03</rscale>
<asrwt>0</asrwt>
<pdfrwt beam="1">  1       21 0.13697573E-01 0.43659500E+03</pdfrwt>
<pdfrwt beam="2">  1       21 0.75237796E-01 0.43659500E+03</pdfrwt>
<totfact> 0.67705863E+04</totfact>
</mgrwt>
</event>
<event>
 7    0  0.4831799E-002  0.4688102E+03  0.7546771E-02  0.1022257E+00
         21   -1    0    0  502  501  0.00000000000E+00  0.00000000000E+00  0.20115218768E+03  0.20115218768E+03  0.00000000000E+00 0. -1.
         21   -1    0    0  501  502 -0.00000000000E+00 -0.00000000000E+00 -0.27315516384E+03  0.27315516384E+03  0.00000000000E+00 0. -1.
      99926    2    1    2    0    0  0.00000000000E+00  0.00000000000E+00 -0.72002976155E+02  0.47430735152E+03  0.46881023361E+03 0.  0.
      99925    2    3    3    0    0 -0.20436777789E+01 -0.10195814447E+03  0.29632454219E+02  0.28358003662E+03  0.26294469948E+03 0.  0.
         25    1    4    4    0    0 -0.10668612137E+02 -0.74382938901E+02 -0.17169821135E+02  0.14693179282E+03  0.12509000000E+03 0.  0.
         25    1    3    3    0    0  0.20436777789E+01  0.10195814447E+03 -0.10163543037E+03  0.19072731490E+03  0.12509000000E+03 0.  0.
         25    1    4    4    0    0  0.86249343578E+01 -0.27575205570E+02  0.46802275354E+02  0.13664824380E+03  0.12509000000E+03 0.  0.
<mgrwt>
<rscale>  2 0.46881023E+03</rscale>
<asrwt>0</asrwt>
<pdfrwt beam="1">  1       21 0.29581204E-01 0.46881023E+03</pdfrwt>
<pdfrwt beam="2">  1       21 0.40169877E-01 0.46881023E+03</pdfrwt>
<totfact> 0.60235364E+04</totfact>
</mgrwt>
</event>
<event>
 7    0  0.4831799E-002  0.4135789E+03  0.7546771E-02  0.1039177E+00
         21   -1    0    0  502  501  0.00000000000E+00  0.00000000000E+00  0.12676242745E+04  0.12676242745E+04  0.00000000000E+00 0. -1.
         21   -1    0    0  501  502 -0.00000000000E+00 -0.00000000000E+00 -0.33733868795E+02  0.33733868795E+02  0.00000000000E+00 0. -1.
      99926    2    1    2    0    0  0.00000000000E+00 -0.71054273576E-14  0.12338904057E+04  0.13013581433E+04  0.41357887256E+03 0.  0.
      99925    2    3    3    0    0 -0.56853778443E+02  0.35897280895E+02  0.82129624148E+03  0.86500688645E+03  0.26303693739E+03 0.  0.
         25    1    4    4    0    0 -0.63888998372E+02  0.39291339528E+02  0.46218696697E+03  0.48465442741E+03  0.12509000000E+03 0.  0.
         25    1    4    4    0    0  0.70352199293E+01 -0.33940586329E+01  0.35910927451E+03  0.38035245903E+03  0.12509000000E+03 0.  0.
         25    1    3    3    0    0  0.56853778443E+02 -0.35897280895E+02  0.41259416419E+03  0.43635125681E+03  0.12509000000E+03 0.  0.
<mgrwt>
<rscale>  2 0.41357887E+03</rscale>
<asrwt>0</asrwt>
<pdfrwt beam="1">  1       21 0.18641530E+00 0.41357887E+03</pdfrwt>
<pdfrwt beam="2">  1       21 0.49608639E-02 0.41357887E+03</pdfrwt>
<totfact> 0.40687289E+04</totfact>
</mgrwt>
</event>
<event>
 7    0  0.4831799E-002  0.4541093E+03  0.7546771E-02  0.1026504E+00
         21   -1    0    0  502  501  0.00000000000E+00  0.00000000000E+00  0.11365570655E+03  0.11365570655E+03  0.00000000000E+00 0.  1.
         21   -1    0    0  501  502 -0.00000000000E+00 -0.00000000000E+00 -0.45359626587E+03  0.45359626587E+03  0.00000000000E+00 0.  1.
      99926    2    1    2    0    0  0.00000000000E+00  0.14210854715E-13 -0.33994055932E+03  0.56725197242E+03  0.45410925596E+03 0.  0.
      99925    2    3    3    0    0  0.31594326620E+02  0.93296370302E+02 -0.28163102084E+03  0.39769394529E+03  0.26294871751E+03 0.  0.
         25    1    4    4    0    0 -0.58114664067E+01  0.35143158384E+02 -0.88044694156E+02  0.15706110592E+03  0.12509000000E+03 0.  0.
         25    1    3    3    0    0 -0.31594326620E+02 -0.93296370302E+02 -0.58309538482E+02  0.16955802713E+03  0.12509000000E+03 0.  0.
         25    1    4    4    0    0  0.37405793026E+02  0.58153211917E+02 -0.19358632668E+03  0.24063283937E+03  0.12509000000E+03 0.  0.
<mgrwt>
<rscale>  2 0.45410926E+03</rscale>
<asrwt>0</asrwt>
<pdfrwt beam="1">  1       21 0.16714075E-01 0.45410926E+03</pdfrwt>
<pdfrwt beam="2">  1       21 0.66705332E-01 0.45410926E+03</pdfrwt>
<totfact> 0.61170446E+04</totfact>
</mgrwt>
</event>
<event>
 7    0  0.4831799E-002  0.4556792E+03  0.7546771E-02  0.1026042E+00
         21   -1    0    0  502  501  0.00000000000E+00  0.00000000000E+00  0.90188102626E+03  0.90188102626E+03  0.00000000000E+00 0.  1.
         21   -1    0    0  501  502 -0.00000000000E+00 -0.00000000000E+00 -0.57558467110E+02  0.57558467110E+02  0.00000000000E+00 0.  1.
      99926    2    1    2    0    0  0.00000000000E+00  0.00000000000E+00  0.84432255915E+03  0.95943949337E+03  0.45567922659E+03 0.  0.
      99925    2    3    3    0    0 -0.49340760889E+02  0.62821635905E+02  0.70099849872E+03  0.75311362727E+03  0.26343912343E+03 0.  0.
         25    1    4    4    0    0 -0.11155413863E+02  0.60406507450E+02  0.43339291579E+03  0.45524753372E+03  0.12509000000E+03 0.  0.
         25    1    3    3    0    0  0.49340760889E+02 -0.62821635905E+02  0.14332406043E+03  0.20632586610E+03  0.12509000000E+03 0.  0.
         25    1    4    4    0    0 -0.38185347026E+02  0.24151284550E+01  0.26760558293E+03  0.29786609355E+03  0.12509000000E+03 0.  0.
<mgrwt>
<rscale>  2 0.45567923E+03</rscale>
<asrwt>0</asrwt>
<pdfrwt beam="1">  1       21 0.13262955E+00 0.45567923E+03</pdfrwt>
<pdfrwt beam="2">  1       21 0.84644810E-02 0.45567923E+03</pdfrwt>
<totfact> 0.40545189E+04</totfact>
</mgrwt>
</event>
<event>
 7    0  0.4831799E-002  0.4521043E+03  0.7546771E-02  0.1027096E+00
         21   -1    0    0  502  501  0.00000000000E+00  0.00000000000E+00  0.15443496795E+03  0.15443496795E+03  0.00000000000E+00 0.  1.
         21   -1    0    0  501  502 -0.00000000000E+00 -0.00000000000E+00 -0.33088083201E+03  0.33088083201E+03  0.00000000000E+00 0.  1.
      99926    2    1    2    0    0  0.00000000000E+00  0.00000000000E+00 -0.17644586406E+03  0.48531579997E+03  0.45210428305E+03 0.  0.
      99925    2    3    3    0    0 -0.70245433134E+02 -0.84693312046E+02 -0.11967389735E+03  0.30931028220E+03  0.26314184575E+03 0.  0.
         25    1    3    3    0    0  0.70245433134E+02  0.84693312046E+02 -0.56771966715E+02  0.17600551777E+03  0.12509000000E+03 0.  0.
         25    1    4    4    0    0 -0.16807399180E+02 -0.36304572854E+02 -0.17624478995E+02  0.13250902247E+03  0.12509000000E+03 0.  0.
         25    1    4    4    0    0 -0.53438033953E+02 -0.48388739192E+02 -0.10204941835E+03  0.17680125972E+03  0.12509000000E+03 0.  0.
<mgrwt>
<rscale>  2 0.45210428E+03</rscale>
<asrwt>0</asrwt>
<pdfrwt beam="1">  1       21 0.22711025E-01 0.45210428E+03</pdfrwt>
<pdfrwt beam="2">  1       21 0.48658946E-01 0.45210428E+03</pdfrwt>
<totfact> 0.67861768E+04</totfact>
</mgrwt>
</event>
<event>
 7    0  0.4831799E-002  0.4548550E+03  0.7546771E-02  0.1026284E+00
         21   -1    0    0  502  501  0.00000000000E+00  0.00000000000E+00  0.85380534609E+02  0.85380534609E+02  0.00000000000E+00 0. -1.
         21   -1    0    0  501  502 -0.00000000000E+00 -0.00000000000E+00 -0.60579707058E+03  0.60579707058E+03  0.00000000000E+00 0. -1.
      99926    2    1    2    0    0  0.17763568394E-14  0.00000000000E+00 -0.52041653598E+03  0.69117760519E+03  0.45485504395E+03 0.  0.
      99925    2    3    3    0    0  0.15833734993E+02  0.90918168466E+02 -0.22843032991E+03  0.36039025182E+03  0.26302832065E+03 0.  0.
         25    1    3    3    0    0 -0.15833734993E+02 -0.90918168466E+02 -0.29198620606E+03  0.33078735337E+03  0.12509000000E+03 0.  0.
         25    1    4    4    0    0  0.25352329504E+02  0.10569989445E+02 -0.85875084175E+02  0.15419631471E+03  0.12509000000E+03 0.  0.
         25    1    4    4    0    0 -0.95185945110E+01  0.80348179020E+02 -0.14255524574E+03  0.20619393711E+03  0.12509000000E+03 0.  0.
<mgrwt>
<rscale>  2 0.45485504E+03</rscale>
<asrwt>0</asrwt>
<pdfrwt beam="1">  1       21 0.12555962E-01 0.45485504E+03</pdfrwt>
<pdfrwt beam="2">  1       21 0.89087800E-01 0.45485504E+03</pdfrwt>
<totfact> 0.53445621E+04</totfact>
</mgrwt>
</event>
<event>
 7    0  0.4831799E-002  0.4569853E+03  0.7546771E-02  0.1025659E+00
         21   -1    0    0  502  501  0.00000000000E+00  0.00000000000E+00  0.52101976643E+03  0.52101976643E+03  0.00000000000E+00 0. -1.
         21   -1    0    0  501  502 -0.00000000000E+00 -0.00000000000E+00 -0.10020519395E+03  0.10020519395E+03  0.00000000000E+00 0. -1.
      99926    2    1    2    0    0  0.00000000000E+00  0.00000000000E+00  0.42081457248E+03  0.62122496038E+03  0.45698528093E+03 0.  0.
      99925    2    3    3    0    0 -0.64447778368E+02 -0.93844672832E+02  0.24154693503E+03  0.37476049501E+03  0.26294518067E+03 0.  0.
         25    1    4    4    0    0 -0.27027962201E+02 -0.84652468374E+02  0.10709716801E+03  0.18711991513E+03  0.12509000000E+03 0.  0.
         25    1    4    4    0    0 -0.37419816167E+02 -0.91922044585E+01  0.13444976702E+03  0.18764057988E+03  0.12509000000E+03 0.  0.
         25    1    3    3    0    0  0.64447778368E+02  0.93844672832E+02  0.17926763745E+03  0.24646446537E+03  0.12509000000E+03 0.  0.
<mgrwt>
<rscale>  2 0.45698528E+03</rscale>
<asrwt>0</asrwt>
<pdfrwt beam="1">  1       21 0.76620553E-01 0.45698528E+03</pdfrwt>
<pdfrwt beam="2">  1       21 0.14736058E-01 0.45698528E+03</pdfrwt>
<totfact> 0.56499540E+04</totfact>
</mgrwt>
</event>
<event>
 7    0  0.4831799E-002  0.4561007E+03  0.7546771E-02  0.1025918E+00
         21   -1    0    0  502  501  0.00000000000E+00  0.00000000000E+00  0.13284947100E+03  0.13284947100E+03  0.00000000000E+00 0. -1.
         21   -1    0    0  501  502 -0.00000000000E+00 -0.00000000000E+00 -0.39147287041E+03  0.39147287041E+03  0.00000000000E+00 0. -1.
      99926    2    1    2    0    0  0.14210854715E-13  0.00000000000E+00 -0.25862339941E+03  0.52432234141E+03  0.45610070705E+03 0.  0.
      99925    2    3    3    0    0 -0.98188949116E+02 -0.45151475686E+02 -0.12042184727E+03  0.30885331208E+03  0.26307645580E+03 0.  0.
         25    1    4    4    0    0 -0.28270909516E+02  0.14745729901E+02 -0.55214871314E+02  0.14040253199E+03  0.12509000000E+03 0.  0.
         25    1    4    4    0    0 -0.69918039600E+02 -0.59897205588E+02 -0.65206975953E+02  0.16845078009E+03  0.12509000000E+03 0.  0.
         25    1    3    3    0    0  0.98188949116E+02  0.45151475686E+02 -0.13820155214E+03  0.21546902933E+03  0.12509000000E+03 0.  0.
<mgrwt>
<rscale>  2 0.45610071E+03</rscale>
<asrwt>0</asrwt>
<pdfrwt beam="1">  1       21 0.19536687E-01 0.45610071E+03</pdfrwt>
<pdfrwt beam="2">  1       21 0.57569539E-01 0.45610071E+03</pdfrwt>
<totfact> 0.63040589E+04</totfact>
</mgrwt>
</event>
<event>
 7    0  0.4831799E-002  0.4365641E+03  0.7546771E-02  0.1031806E+00
         21   -1    0    0  502  501  0.00000000000E+00  0.00000000000E+00  0.13938723698E+03  0.13938723698E+03  0.00000000000E+00 0. -1.
         21   -1    0    0  501  502 -0.00000000000E+00 -0.00000000000E+00 -0.34183219691E+03  0.34183219691E+03  0.00000000000E+00 0. -1.
      99926    2    1    2    0    0  0.00000000000E+00  0.00000000000E+00 -0.20244495993E+03  0.48121943389E+03  0.43656406375E+03 0.  0.
      99925    2    3    3    0    0 -0.10462065501E+02  0.52282630212E+02 -0.21582339714E+03  0.34458335184E+03  0.26327745702E+03 0.  0.
         25    1    3    3    0    0  0.10462065501E+02 -0.52282630212E+02  0.13378437206E+02  0.13663608205E+03  0.12509000000E+03 0.  0.
         25    1    4    4    0    0  0.22555034950E+02  0.17784399338E+02 -0.14306143478E+03  0.19219546478E+03  0.12509000000E+03 0.  0.
         25    1    4    4    0    0 -0.33017100451E+02  0.34498230874E+02 -0.72761962353E+02  0.15238788706E+03  0.12509000000E+03 0.  0.
<mgrwt>
<rscale>  2 0.43656406E+03</rscale>
<asrwt>0</asrwt>
<pdfrwt beam="1">  1       21 0.20498123E-01 0.43656406E+03</pdfrwt>
<pdfrwt beam="2">  1       21 0.50269440E-01 0.43656406E+03</pdfrwt>
<totfact> 0.77323322E+04</totfact>
</mgrwt>
</event>
<event>
 7    0  0.4831799E-002  0.4586171E+03  0.7546771E-02  0.1025183E+00
         21   -1    0    0  502  501  0.00000000000E+00  0.00000000000E+00  0.32759412947E+03  0.32759412947E+03  0.00000000000E+00 0. -1.
         21   -1    0    0  501  502 -0.00000000000E+00 -0.00000000000E+00 -0.16051083249E+03  0.16051083249E+03  0.00000000000E+00 0. -1.
      99926    2    1    2    0    0  0.00000000000E+00  0.00000000000E+00  0.16708329698E+03  0.48810496195E+03  0.45861707966E+03 0.  0.
      99925    2    3    3    0    0  0.10998184663E+03  0.18105304483E+02  0.14086409535E+03  0.31852087286E+03  0.26303810456E+03 0.  0.
         25    1    3    3    0    0 -0.10998184663E+03 -0.18105304483E+02  0.26219201624E+02  0.16958408909E+03  0.12509000000E+03 0.  0.
         25    1    4    4    0    0  0.38704132140E+02 -0.28117205952E+02  0.75981547481E+02  0.15397821525E+03  0.12509000000E+03 0.  0.
         25    1    4    4    0    0  0.71277714491E+02  0.46222510434E+02  0.64882547874E+02  0.16454265761E+03  0.12509000000E+03 0.  0.
<mgrwt>
<rscale>  2 0.45861708E+03</rscale>
<asrwt>0</asrwt>
<pdfrwt beam="1">  1       21 0.48175607E-01 0.45861708E+03</pdfrwt>
<pdfrwt beam="2">  1       21 0.23604534E-01 0.45861708E+03</pdfrwt>
<totfact> 0.64249899E+04</totfact>
</mgrwt>
</event>
<event>
 7    0  0.4831799E-002  0.4533608E+03  0.7546771E-02  0.1026725E+00
         21   -1    0    0  502  501  0.00000000000E+00  0.00000000000E+00  0.52073980798E+02  0.52073980798E+02  0.00000000000E+00 0.  1.
         21   -1    0    0  501  502 -0.00000000000E+00 -0.00000000000E+00 -0.98675018171E+03  0.98675018171E+03  0.00000000000E+00 0.  1.
      99926    2    1    2    0    0  0.00000000000E+00  0.00000000000E+00 -0.93467620091E+03  0.10388241625E+04  0.45336082766E+03 0.  0.
      99925    2    3    3    0    0  0.77729860681E+02  0.46658376477E+02 -0.73802399546E+03  0.78874710769E+03  0.26310387051E+03 0.  0.
         25    1    4    4    0    0  0.44776336026E+02  0.40311568459E+00 -0.26907959777E+03  0.30009401994E+03  0.12509000000E+03 0.  0.
         25    1    4    4    0    0  0.32953524655E+02  0.46255260792E+02 -0.46894439769E+03  0.48865308774E+03  0.12509000000E+03 0.  0.
         25    1    3    3    0    0 -0.77729860681E+02 -0.46658376477E+02 -0.19665220545E+03  0.25007705482E+03  0.12509000000E+03 0.  0.
<mgrwt>
<rscale>  2 0.45336083E+03</rscale>
<asrwt>0</asrwt>
<pdfrwt beam="1">  1       21 0.76579388E-02 0.45336083E+03</pdfrwt>
<pdfrwt beam="2">  1       21 0.14511031E+00 0.45336083E+03</pdfrwt>
<totfact> 0.38176317E+04</totfact>
</mgrwt>
</event>
<event>
 7    0  0.4831799E-002  0.4543823E+03  0.7546771E-02  0.1026423E+00
         21   -1    0    0  502  501  0.00000000000E+00  0.00000000000E+00  0.32447119783E+03  0.32447119783E+03  0.00000000000E+00 0. -1.
         21   -1    0    0  501  502 -0.00000000000E+00 -0.00000000000E+00 -0.15907671952E+03  0.15907671952E+03  0.00000000000E+00 0. -1.
      99926    2    1    2    0    0  0.00000000000E+00 -0.35527136788E-14  0.16539447831E+03  0.48354791735E+03  0.45438227840E+03 0.  0.
      99925    2    3    3    0    0  0.76957563683E+02 -0.11474950535E+02  0.17110228270E+02  0.27452670310E+03  0.26271278938E+03 0.  0.
         25    1    4    4    0    0  0.36291422885E+02  0.34355786149E+02  0.84293526550E+01  0.13496647548E+03  0.12509000000E+03 0.  0.
         25    1    3    3    0    0 -0.76957563683E+02  0.11474950535E+02  0.14828425004E+03  0.20902121425E+03  0.12509000000E+03 0.  0.
         25    1    4    4    0    0  0.40666140799E+02 -0.45830736684E+02  0.86808756148E+01  0.13956022762E+03  0.12509000000E+03 0.  0.
<mgrwt>
<rscale>  2 0.45438228E+03</rscale>
<asrwt>0</asrwt>
<pdfrwt beam="1">  1       21 0.47716353E-01 0.45438228E+03</pdfrwt>
<pdfrwt beam="2">  1       21 0.23393635E-01 0.45438228E+03</pdfrwt>
<totfact> 0.66769546E+04</totfact>
</mgrwt>
</event>
<event>
 7    0  0.4831799E-002  0.4526463E+03  0.7546771E-02  0.1026936E+00
         21   -1    0    0  502  501  0.00000000000E+00  0.00000000000E+00  0.53893158612E+03  0.53893158612E+03  0.00000000000E+00 0.  1.
         21   -1    0    0  501  502 -0.00000000000E+00 -0.00000000000E+00 -0.95043922718E+02  0.95043922718E+02  0.00000000000E+00 0.  1.
      99926    2    1    2    0    0  0.35527136788E-14 -0.17763568394E-14  0.44388766340E+03  0.63397550883E+03  0.45264631677E+03 0.  0.
      99925    2    3    3    0    0 -0.80760455673E+01 -0.44711977017E+01  0.12440577500E+03  0.29075342441E+03  0.26263195318E+03 0.  0.
         25    1    4    4    0    0 -0.28687482268E+02 -0.33319196592E+02  0.68259804244E+02  0.14913098094E+03  0.12509000000E+03 0.  0.
         25    1    4    4    0    0  0.20611436701E+02  0.28847998890E+02  0.56145970757E+02  0.14162244347E+03  0.12509000000E+03 0.  0.
         25    1    3    3    0    0  0.80760455673E+01  0.44711977017E+01  0.31948188840E+03  0.34322208442E+03  0.12509000000E+03 0.  0.
<mgrwt>
<rscale>  2 0.45264632E+03</rscale>
<asrwt>0</asrwt>
<pdfrwt beam="1">  1       21 0.79254644E-01 0.45264632E+03</pdfrwt>
<pdfrwt beam="2">  1       21 0.13977048E-01 0.45264632E+03</pdfrwt>
<totfact> 0.57698682E+04</totfact>
</mgrwt>
</event>
<event>
 7    0  0.4831799E-002  0.4482949E+03  0.7546771E-02  0.1028232E+00
         21   -1    0    0  502  501  0.00000000000E+00  0.00000000000E+00  0.34566481980E+03  0.34566481980E+03  0.00000000000E+00 0. -1.
         21   -1    0    0  501  502 -0.00000000000E+00 -0.00000000000E+00 -0.14534914741E+03  0.14534914741E+03  0.00000000000E+00 0. -1.
      99926    2    1    2    0    0  0.14210854715E-13 -0.88817841970E-15  0.20031567239E+03  0.49101396722E+03  0.44829493350E+03 0.  0.
      99925    2    3    3    0    0 -0.70540436650E+02  0.75481352340E+01  0.21421883496E+03  0.34653651715E+03  0.26299224498E+03 0.  0.
         25    1    4    4    0    0  0.43692281574E+01  0.38135903778E+01  0.82074258525E+02  0.14972416518E+03  0.12509000000E+03 0.  0.
         25    1    3    3    0    0  0.70540436650E+02 -0.75481352340E+01 -0.13903162574E+02  0.14447745007E+03  0.12509000000E+03 0.  0.
         25    1    4    4    0    0 -0.74909664807E+02  0.37345448561E+01  0.13214457644E+03  0.19681235197E+03  0.12509000000E+03 0.  0.
<mgrwt>
<rscale>  2 0.44829493E+03</rscale>
<asrwt>0</asrwt>
<pdfrwt beam="1">  1       21 0.50833062E-01 0.44829493E+03</pdfrwt>
<pdfrwt beam="2">  1       21 0.21374875E-01 0.44829493E+03</pdfrwt>
<totfact> 0.69534853E+04</totfact>
</mgrwt>
</event>
<event>
 7    0  0.4831799E-002  0.4642974E+03  0.7546771E-02  0.1023542E+00
         21   -1    0    0  502  501  0.00000000000E+00  0.00000000000E+00  0.13694790517E+03  0.13694790517E+03  0.00000000000E+00 0. -1.
         21   -1    0    0  501  502 -0.00000000000E+00 -0.00000000000E+00 -0.39352929882E+03  0.39352929882E+03  0.00000000000E+00 0. -1.
      99926    2    1    2    0    0  0.00000000000E+00  0.00000000000E+00 -0.25658139365E+03  0.53047720399E+03  0.46429737495E+03 0.  0.
      99925    2    3    3    0    0 -0.97294187732E+02 -0.59875163555E+02 -0.20797677205E+03  0.35423557577E+03  0.26301580038E+03 0.  0.
         25    1    3    3    0    0  0.97294187732E+02  0.59875163555E+02 -0.48604621605E+02  0.17624162822E+03  0.12509000000E+03 0.  0.
         25    1    4    4    0    0 -0.59174403718E+02 -0.43999498348E+02 -0.15460893153E+03  0.21210609543E+03  0.12509000000E+03 0.  0.
         25    1    4    4    0    0 -0.38119784014E+02 -0.15875665207E+02 -0.53367840516E+02  0.14212948034E+03  0.12509000000E+03 0.  0.
<mgrwt>
<rscale>  2 0.46429737E+03</rscale>
<asrwt>0</asrwt>
<pdfrwt beam="1">  1       21 0.20139398E-01 0.46429737E+03</pdfrwt>
<pdfrwt beam="2">  1       21 0.57871954E-01 0.46429737E+03</pdfrwt>
<totfact> 0.58725214E+04</totfact>
</mgrwt>
</event>
<event>
 7    0  0.4831799E-002  0.4541357E+03  0.7546771E-02  0.1026496E+00
         21   -1    0    0  502  501  0.00000000000E+00  0.00000000000E+00  0.23149843194E+03  0.23149843194E+03  0.00000000000E+00 0. -1.
         21   -1    0    0  501  502 -0.00000000000E+00 -0.00000000000E+00 -0.22272210894E+03  0.22272210894E+03  0.00000000000E+00 0. -1.
      99926    2    1    2    0    0  0.00000000000E+00 -0.35527136788E-14  0.87763229974E+01  0.45422054088E+03  0.45413574613E+03 0.  0.
      99925    2    3    3    0    0 -0.10443249721E+03  0.27369394311E+02 -0.25745986115E+02  0.28541731774E+03  0.26295429117E+03 0.  0.
         25    1    3    3    0    0  0.10443249721E+03 -0.27369394311E+02  0.34522309113E+02  0.16880322315E+03  0.12509000000E+03 0.  0.
         25    1    4    4    0    0 -0.25900318731E+02  0.37871823820E+02 -0.32664484583E+02  0.13718446779E+03  0.12509000000E+03 0.  0.
         25    1    4    4    0    0 -0.78532178478E+02 -0.10502429509E+02  0.69184984673E+01  0.14823284995E+03  0.12509000000E+03 0.  0.
<mgrwt>
<rscale>  2 0.45413575E+03</rscale>
<asrwt>0</asrwt>
<pdfrwt beam="1">  1       21 0.34043887E-01 0.45413575E+03</pdfrwt>
<pdfrwt beam="2">  1       21 0.32753251E-01 0.45413575E+03</pdfrwt>
<totfact> 0.69078059E+04</totfact>
</mgrwt>
</event>
<event>
 7    0  0.4831799E-002  0.4596640E+03  0.7546771E-02  0.1024879E+00
         21   -1    0    0  502  501  0.00000000000E+00  0.00000000000E+00  0.84351551349E+02  0.84351551349E+02  0.00000000000E+00 0.  1.
         21   -1    0    0  501  502 -0.00000000000E+00 -0.00000000000E+00 -0.62622149911E+03  0.62622149911E+03  0.00000000000E+00 0.  1.
      99926    2    1    2    0    0  0.00000000000E+00  0.00000000000E+00 -0.54186994776E+03  0.71057305046E+03  0.45966402921E+03 0.  0.
      99925    2    3    3    0    0 -0.18665956250E+01  0.10559540872E+03 -0.41767153352E+03  0.50508186154E+03  0.26363668641E+03 0.  0.
         25    1    3    3    0    0  0.18665956250E+01 -0.10559540872E+03 -0.12419841424E+03  0.20549118892E+03  0.12509000000E+03 0.  0.
         25    1    4    4    0    0  0.12288320199E+02  0.59068919652E+02 -0.28146103619E+03  0.31385978251E+03  0.12509000000E+03 0.  0.
         25    1    4    4    0    0 -0.14154915824E+02  0.46526489070E+02 -0.13621049733E+03  0.19122207903E+03  0.12509000000E+03 0.  0.
<mgrwt>
<rscale>  2 0.45966403E+03</rscale>
<asrwt>0</asrwt>
<pdfrwt beam="1">  1       21 0.12404640E-01 0.45966403E+03</pdfrwt>
<pdfrwt beam="2">  1       21 0.92091399E-01 0.45966403E+03</pdfrwt>
<totfact> 0.50455566E+04</totfact>
</mgrwt>
</event>
<event>
 7    0  0.4831799E-002  0.4535055E+03  0.7546771E-02  0.1026682E+00
         21   -1    0    0  502  501  0.00000000000E+00  0.00000000000E+00  0.43055269518E+02  0.43055269518E+02  0.00000000000E+00 0.  1.
         21   -1    0    0  501  502 -0.00000000000E+00 -0.00000000000E+00 -0.11942047132E+04  0.11942047132E+04  0.00000000000E+00 0.  1.
      99926    2    1    2    0    0  0.35527136788E-14  0.14210854715E-13 -0.11511494437E+04  0.12372599827E+04  0.45350548304E+03 0.  0.
      99925    2    3    3    0    0  0.95118468075E+01  0.10464908829E+03 -0.61751272458E+03  0.67917615122E+03  0.26251928015E+03 0.  0.
         25    1    4    4    0    0 -0.30045447798E+02  0.41863354827E+02 -0.33839559624E+03  0.36443704129E+03  0.12509000000E+03 0.  0.
         25    1    3    3    0    0 -0.95118468075E+01 -0.10464908829E+03 -0.53363671910E+03  0.55808383150E+03  0.12509000000E+03 0.  0.
         25    1    4    4    0    0  0.39557294606E+02  0.62785733464E+02 -0.27911712834E+03  0.31473910993E+03  0.12509000000E+03 0.  0.
<mgrwt>
<rscale>  2 0.45350548E+03</rscale>
<asrwt>0</asrwt>
<pdfrwt beam="1">  1       21 0.63316566E-02 0.45350548E+03</pdfrwt>
<pdfrwt beam="2">  1       21 0.17561836E+00 0.45350548E+03</pdfrwt>
<totfact> 0.31355859E+04</totfact>
</mgrwt>
</event>
<event>
 7    0  0.4831799E-002  0.4563989E+03  0.7546771E-02  0.1025831E+00
         21   -1    0    0  502  501  0.00000000000E+00  0.00000000000E+00  0.22663132756E+03  0.22663132756E+03  0.00000000000E+00 0. -1.
         21   -1    0    0  501  502 -0.00000000000E+00 -0.00000000000E+00 -0.22977842556E+03  0.22977842556E+03  0.00000000000E+00 0. -1.
      99926    2    1    2    0    0  0.00000000000E+00  0.00000000000E+00 -0.31470980022E+01  0.45640975313E+03  0.45639890285E+03 0.  0.
      99925    2    3    3    0    0 -0.82056410474E+02  0.24417282731E+02 -0.77949127761E+02  0.28737629504E+03  0.26302017078E+03 0.  0.
         25    1    4    4    0    0 -0.29170222157E+02 -0.13367100848E+02 -0.64215111727E+01  0.12929936253E+03  0.12509000000E+03 0.  0.
         25    1    3    3    0    0  0.82056410474E+02 -0.24417282731E+02  0.74802029759E+02  0.16903345808E+03  0.12509000000E+03 0.  0.
         25    1    4    4    0    0 -0.52886188317E+02  0.37784383579E+02 -0.71527616588E+02  0.15807693251E+03  0.12509000000E+03 0.  0.
<mgrwt>
<rscale>  2 0.45639890E+03</rscale>
<asrwt>0</asrwt>
<pdfrwt beam="1">  1       21 0.33328137E-01 0.45639890E+03</pdfrwt>
<pdfrwt beam="2">  1       21 0.33790945E-01 0.45639890E+03</pdfrwt>
<totfact> 0.67684001E+04</totfact>
</mgrwt>
</event>
<event>
 7    0  0.4831799E-002  0.4821858E+03  0.7546771E-02  0.1018536E+00
         21   -1    0    0  502  501  0.00000000000E+00  0.00000000000E+00  0.34214921372E+03  0.34214921372E+03  0.00000000000E+00 0.  1.
         21   -1    0    0  501  502 -0.00000000000E+00 -0.00000000000E+00 -0.16988431307E+03  0.16988431307E+03  0.00000000000E+00 0.  1.
      99926    2    1    2    0    0  0.00000000000E+00  0.00000000000E+00  0.17226490065E+03  0.51203352679E+03  0.48218579050E+03 0.  0.
      99925    2    3    3    0    0  0.49914449008E+02 -0.97912183184E+02  0.18920291587E+02  0.28567026771E+03  0.26300432807E+03 0.  0.
         25    1    3    3    0    0 -0.49914449008E+02  0.97912183184E+02  0.15334460906E+03  0.22636325909E+03  0.12509000000E+03 0.  0.
         25    1    4    4    0    0  0.41106215888E+02 -0.51803118493E+02  0.47089604740E+02  0.14912485723E+03  0.12509000000E+03 0.  0.
         25    1    4    4    0    0  0.88082331204E+01 -0.46109064691E+02 -0.28169313153E+02  0.13654541047E+03  0.12509000000E+03 0.  0.
<mgrwt>
<rscale>  2 0.48218579E+03</rscale>
<asrwt>0</asrwt>
<pdfrwt beam="1">  1       21 0.50316061E-01 0.48218579E+03</pdfrwt>
<pdfrwt beam="2">  1       21 0.24982987E-01 0.48218579E+03</pdfrwt>
<totfact> 0.52220792E+04</totfact>
</mgrwt>
</event>
<event>
 7    0  0.4831799E-002  0.4428128E+03  0.7546771E-02  0.1029887E+00
         21   -1    0    0  502  501  0.00000000000E+00  0.00000000000E+00  0.11606838497E+04  0.11606838497E+04  0.00000000000E+00 0. -1.
         21   -1    0    0  501  502 -0.00000000000E+00 -0.00000000000E+00 -0.42234414378E+02  0.42234414378E+02  0.00000000000E+00 0. -1.
      99926    2    1    2    0    0  0.00000000000E+00  0.00000000000E+00  0.11184494353E+04  0.12029182640E+04  0.44281283933E+03 0.  0.
      99925    2    3    3    0    0 -0.86312019770E+02  0.35841879276E+02  0.60559586731E+03  0.66682060936E+03  0.26299993441E+03 0.  0.
         25    1    3    3    0    0  0.86312019770E+02 -0.35841879276E+02  0.51285356797E+03  0.53609765467E+03  0.12509000000E+03 0.  0.
         25    1    4    4    0    0 -0.10629518543E+02  0.31682625925E+02  0.33638810341E+03  0.36044589006E+03  0.12509000000E+03 0.  0.
         25    1    4    4    0    0 -0.75682501226E+02  0.41592533506E+01  0.26920776390E+03  0.30637471930E+03  0.12509000000E+03 0.  0.
<mgrwt>
<rscale>  2 0.44281284E+03</rscale>
<asrwt>0</asrwt>
<pdfrwt beam="1">  1       21 0.17068878E+00 0.44281284E+03</pdfrwt>
<pdfrwt beam="2">  1       21 0.62109440E-02 0.44281284E+03</pdfrwt>
<totfact> 0.35297323E+04</totfact>
</mgrwt>
</event>
<event>
 7    0  0.4831799E-002  0.4444839E+03  0.7546771E-02  0.1029380E+00
         21   -1    0    0  502  501  0.00000000000E+00  0.00000000000E+00  0.14415414609E+03  0.14415414609E+03  0.00000000000E+00 0.  1.
         21   -1    0    0  501  502 -0.00000000000E+00 -0.00000000000E+00 -0.34262958267E+03  0.34262958267E+03  0.00000000000E+00 0.  1.
      99926    2    1    2    0    0  0.00000000000E+00  0.17763568394E-14 -0.19847543659E+03  0.48678372876E+03  0.44448385759E+03 0.  0.
      99925    2    3    3    0    0 -0.56064204456E+02 -0.14625603133E+02 -0.32874974747E+02  0.27131186435E+03  0.26300619857E+03 0.  0.
         25    1    4    4    0    0 -0.31020930998E+02  0.29070887163E+02  0.15987602025E+01  0.13212675268E+03  0.12509000000E+03 0.  0.
         25    1    3    3    0    0  0.56064204456E+02  0.14625603133E+02 -0.16560046184E+03  0.21547186440E+03  0.12509000000E+03 0.  0.
         25    1    4    4    0    0 -0.25043273458E+02 -0.43696490296E+02 -0.34473734950E+02  0.13918511167E+03  0.12509000000E+03 0.  0.
<mgrwt>
<rscale>  2 0.44448386E+03</rscale>
<asrwt>0</asrwt>
<pdfrwt beam="1">  1       21 0.21199139E-01 0.44448386E+03</pdfrwt>
<pdfrwt beam="2">  1       21 0.50386703E-01 0.44448386E+03</pdfrwt>
<totfact> 0.72038281E+04</totfact>
</mgrwt>
</event>
<event>
 7    0  0.4831799E-002  0.4519005E+03  0.7546771E-02  0.1027157E+00
         21   -1    0    0  502  501  0.00000000000E+00  0.00000000000E+00  0.16271543916E+04  0.16271543916E+04  0.00000000000E+00 0. -1.
         21   -1    0    0  501  502 -0.00000000000E+00 -0.00000000000E+00 -0.31375952024E+02  0.31375952024E+02  0.00000000000E+00 0. -1.
      99926    2    1    2    0    0  0.00000000000E+00 -0.88817841970E-15  0.15957784396E+04  0.16585303436E+04  0.45190051174E+03 0.  0.
      99925    2    3    3    0    0  0.90393779473E+02 -0.57502249302E+01  0.77460087518E+03  0.82295616928E+03  0.26276651286E+03 0.  0.
         25    1    4    4    0    0  0.57077308354E+02  0.22271614927E+02  0.48303148295E+03  0.50271340303E+03  0.12509000000E+03 0.  0.
         25    1    3    3    0    0 -0.90393779473E+02  0.57502249302E+01  0.82117756441E+03  0.83557417435E+03  0.12509000000E+03 0.  0.
         25    1    4    4    0    0  0.33316471119E+02 -0.28021839857E+02  0.29156939223E+03  0.32024276626E+03  0.12509000000E+03 0.  0.
<mgrwt>
<rscale>  2 0.45190051E+03</rscale>
<asrwt>0</asrwt>
<pdfrwt beam="1">  1       21 0.23928735E+00 0.45190051E+03</pdfrwt>
<pdfrwt beam="2">  1       21 0.46141117E-02 0.45190051E+03</pdfrwt>
<totfact> 0.20630946E+04</totfact>
</mgrwt>
</event>
<event>
 7    0  0.4831799E-002  0.4442245E+03  0.7546771E-02  0.1029458E+00
         21   -1    0    0  502  501  0.00000000000E+00  0.00000000000E+00  0.33691162747E+03  0.33691162747E+03  0.00000000000E+00 0. -1.
         21   -1    0    0  501  502 -0.00000000000E+00 -0.00000000000E+00 -0.14642965276E+03  0.14642965276E+03  0.00000000000E+00 0. -1.
      99926    2    1    2    0    0 -0.71054273576E-14  0.00000000000E+00  0.19048197471E+03  0.48334128023E+03  0.44422450459E+03 0.  0.
      99925    2    3    3    0    0  0.56882579201E+02 -0.84113249115E+02  0.10336740734E+03  0.30018254459E+03  0.26289555470E+03 0.  0.
         25    1    4    4    0    0  0.63556069408E+02 -0.22081233797E+02  0.51604886498E+02  0.15112090277E+03  0.12509000000E+03 0.  0.
         25    1    4    4    0    0 -0.66734902069E+01 -0.62032015318E+02  0.51762520842E+02  0.14906164181E+03  0.12509000000E+03 0.  0.
         25    1    3    3    0    0 -0.56882579201E+02  0.84113249115E+02  0.87114567367E+02  0.18315873564E+03  0.12509000000E+03 0.  0.
<mgrwt>
<rscale>  2 0.44422450E+03</rscale>
<asrwt>0</asrwt>
<pdfrwt beam="1">  1       21 0.49545827E-01 0.44422450E+03</pdfrwt>
<pdfrwt beam="2">  1       21 0.21533773E-01 0.44422450E+03</pdfrwt>
<totfact> 0.72460569E+04</totfact>
</mgrwt>
</event>
<event>
 7    0  0.4831799E-002  0.4512949E+03  0.7546771E-02  0.1027337E+00
         21   -1    0    0  502  501  0.00000000000E+00  0.00000000000E+00  0.34561652688E+03  0.34561652688E+03  0.00000000000E+00 0. -1.
         21   -1    0    0  501  502 -0.00000000000E+00 -0.00000000000E+00 -0.14732156091E+03  0.14732156091E+03  0.00000000000E+00 0. -1.
      99926    2    1    2    0    0  0.35527136788E-14  0.00000000000E+00  0.19829496597E+03  0.49293808779E+03  0.45129487573E+03 0.  0.
      99925    2    3    3    0    0 -0.19619197748E+02 -0.98851817261E+02  0.78163272877E+02  0.29234963727E+03  0.26306314544E+03 0.  0.
         25    1    3    3    0    0  0.19619197748E+02  0.98851817261E+02  0.12013169310E+03  0.20058845052E+03  0.12509000000E+03 0.  0.
         25    1    4    4    0    0 -0.26813207367E+02 -0.18139153095E+02  0.59124165902E+02  0.14209557367E+03  0.12509000000E+03 0.  0.
         25    1    4    4    0    0  0.71940096188E+01 -0.80712664166E+02  0.19039106975E+02  0.15025406359E+03  0.12509000000E+03 0.  0.
<mgrwt>
<rscale>  2 0.45129488E+03</rscale>
<asrwt>0</asrwt>
<pdfrwt beam="1">  1       21 0.50825960E-01 0.45129488E+03</pdfrwt>
<pdfrwt beam="2">  1       21 0.21664935E-01 0.45129488E+03</pdfrwt>
<totfact> 0.67740324E+04</totfact>
</mgrwt>
</event>
<event>
 7    0  0.4831799E-002  0.4225321E+03  0.7546771E-02  0.1036245E+00
         21   -1    0    0  502  501  0.00000000000E+00  0.00000000000E+00  0.21609384459E+02  0.21609384459E+02  0.00000000000E+00 0.  1.
         21   -1    0    0  501  502 -0.00000000000E+00 -0.00000000000E+00 -0.20654611150E+04  0.20654611150E+04  0.00000000000E+00 0.  1.
      99926    2    1    2    0    0  0.00000000000E+00  0.71054273576E-14 -0.20438517305E+04  0.20870704995E+04  0.42253209733E+03 0.  0.
      99925    2    3    3    0    0 -0.61171390590E+02  0.40636426436E+02 -0.11812650470E+04  0.12123725214E+04  0.26280555757E+03 0.  0.
         25    1    4    4    0    0 -0.67425183621E+02  0.35651218791E+02 -0.58406273127E+03  0.60215774258E+03  0.12509000000E+03 0.  0.
         25    1    4    4    0    0  0.62537930314E+01  0.49852076445E+01 -0.59720231575E+03  0.61021477880E+03  0.12509000000E+03 0.  0.
         25    1    3    3    0    0  0.61171390590E+02 -0.40636426436E+02 -0.86258668351E+03  0.87469797808E+03  0.12509000000E+03 0.  0.
<mgrwt>
<rscale>  2 0.42253210E+03</rscale>
<asrwt>0</asrwt>
<pdfrwt beam="1">  1       21 0.31778496E-02 0.42253210E+03</pdfrwt>
<pdfrwt beam="2">  1       21 0.30374438E+00 0.42253210E+03</pdfrwt>
<totfact> 0.16012184E+04</totfact>
</mgrwt>
</event>
<event>
 7    0  0.4831799E-002  0.4414286E+03  0.7546771E-02  0.1030309E+00
         21   -1    0    0  502  501  0.00000000000E+00  0.00000000000E+00  0.20268541465E+03  0.20268541465E+03  0.00000000000E+00 0. -1.
         21   -1    0    0  501  502 -0.00000000000E+00 -0.00000000000E+00 -0.24034690499E+03  0.24034690499E+03  0.00000000000E+00 0. -1.
      99926    2    1    2    0    0  0.00000000000E+00 -0.35527136788E-14 -0.37661490340E+02  0.44303231965E+03  0.44142864474E+03 0.  0.
      99925    2    3    3    0    0  0.28828333948E+02  0.10715302904E+02 -0.11930982043E+03  0.29052052187E+03  0.26309969559E+03 0.  0.
         25    1    3    3    0    0 -0.28828333948E+02 -0.10715302904E+02  0.81648330095E+02  0.15251179778E+03  0.12509000000E+03 0.  0.
         25    1    4    4    0    0 -0.57751791106E+00 -0.32630231323E+02 -0.58501436316E+02  0.14189782125E+03  0.12509000000E+03 0.  0.
         25    1    4    4    0    0  0.29405851859E+02  0.43345534227E+02 -0.60808384119E+02  0.14862270062E+03  0.12509000000E+03 0.  0.
<mgrwt>
<rscale>  2 0.44142864E+03</rscale>
<asrwt>0</asrwt>
<pdfrwt beam="1">  1       21 0.29806679E-01 0.44142864E+03</pdfrwt>
<pdfrwt beam="2">  1       21 0.35345133E-01 0.44142864E+03</pdfrwt>
<totfact> 0.77488312E+04</totfact>
</mgrwt>
</event>
<event>
 7    0  0.4831799E-002  0.4660061E+03  0.7546771E-02  0.1023054E+00
         21   -1    0    0  502  501  0.00000000000E+00  0.00000000000E+00  0.17611785942E+03  0.17611785942E+03  0.00000000000E+00 0. -1.
         21   -1    0    0  501  502 -0.00000000000E+00 -0.00000000000E+00 -0.30826191178E+03  0.30826191178E+03  0.00000000000E+00 0. -1.
      99926    2    1    2    0    0 -0.88817841970E-15  0.00000000000E+00 -0.13214405237E+03  0.48437977120E+03  0.46600612890E+03 0.  0.
      99925    2    3    3    0    0 -0.76401334439E+01 -0.12289908005E+03 -0.84744031055E+02  0.30256440981E+03  0.26306104951E+03 0.  0.
         25    1    4    4    0    0 -0.21184198612E+01 -0.16807326737E+02 -0.40941988354E+02  0.13270541980E+03  0.12509000000E+03 0.  0.
         25    1    4    4    0    0 -0.55217135827E+01 -0.10609175331E+03 -0.43802042701E+02  0.16985899001E+03  0.12509000000E+03 0.  0.
         25    1    3    3    0    0  0.76401334439E+01  0.12289908005E+03 -0.47400021312E+02  0.18181536139E+03  0.12509000000E+03 0.  0.
<mgrwt>
<rscale>  2 0.46600613E+03</rscale>
<asrwt>0</asrwt>
<pdfrwt beam="1">  1       21 0.25899686E-01 0.46600613E+03</pdfrwt>
<pdfrwt beam="2">  1       21 0.45332633E-01 0.46600613E+03</pdfrwt>
<totfact> 0.60887548E+04</totfact>
</mgrwt>
</event>
<event>
 7    0  0.4831799E-002  0.4553756E+03  0.7546771E-02  0.1026131E+00
         21   -1    0    0  502  501  0.00000000000E+00  0.00000000000E+00  0.81310888853E+03  0.81310888853E+03  0.00000000000E+00 0. -1.
         21   -1    0    0  501  502 -0.00000000000E+00 -0.00000000000E+00 -0.63757422344E+02  0.63757422344E+02  0.00000000000E+00 0. -1.
      99926    2    1    2    0    0  0.35527136788E-14  0.14210854715E-13  0.74935146619E+03  0.87686631088E+03  0.45537556728E+03 0.  0.
      99925    2    3    3    0    0 -0.30663282729E+02 -0.10837915039E+03  0.49594333427E+03  0.57264687269E+03  0.26320785104E+03 0.  0.
         25    1    3    3    0    0  0.30663282729E+02  0.10837915039E+03  0.25340813192E+03  0.30421943819E+03  0.12509000000E+03 0.  0.
         25    1    4    4    0    0 -0.18277038979E+02 -0.84474669730E+02  0.20887450135E+03  0.25835263767E+03  0.12509000000E+03 0.  0.
         25    1    4    4    0    0 -0.12386243750E+02 -0.23904480662E+02  0.28706883292E+03  0.31429423502E+03  0.12509000000E+03 0.  0.
<mgrwt>
<rscale>  2 0.45537557E+03</rscale>
<asrwt>0</asrwt>
<pdfrwt beam="1">  1       21 0.11957483E+00 0.45537557E+03</pdfrwt>
<pdfrwt beam="2">  1       21 0.93760920E-02 0.45537557E+03</pdfrwt>
<totfact> 0.44119135E+04</totfact>
</mgrwt>
</event>
<event>
 7    0  0.4831799E-002  0.4564368E+03  0.7546771E-02  0.1025820E+00
         21   -1    0    0  502  501  0.00000000000E+00  0.00000000000E+00  0.15119619633E+03  0.15119619633E+03  0.00000000000E+00 0. -1.
         21   -1    0    0  501  502 -0.00000000000E+00 -0.00000000000E+00 -0.34447723364E+03  0.34447723364E+03  0.00000000000E+00 0. -1.
      99926    2    1    2    0    0  0.35527136788E-14 -0.71054273576E-14 -0.19328103731E+03  0.49567342997E+03  0.45643684096E+03 0.  0.
      99925    2    3    3    0    0  0.31918062655E+02 -0.32175082175E+02 -0.23563106233E+03  0.35604882126E+03  0.26304898205E+03 0.  0.
         25    1    4    4    0    0 -0.20433320144E+02  0.26148010119E+01 -0.11804441678E+03  0.17322341120E+03  0.12509000000E+03 0.  0.
         25    1    3    3    0    0 -0.31918062655E+02  0.32175082175E+02  0.42350025011E+02  0.13962460870E+03  0.12509000000E+03 0.  0.
         25    1    4    4    0    0  0.52351382799E+02 -0.34789883187E+02 -0.11758664555E+03  0.18282541006E+03  0.12509000000E+03 0.  0.
<mgrwt>
<rscale>  2 0.45643684E+03</rscale>
<asrwt>0</asrwt>
<pdfrwt beam="1">  1       21 0.22234735E-01 0.45643684E+03</pdfrwt>
<pdfrwt beam="2">  1       21 0.50658416E-01 0.45643684E+03</pdfrwt>
<totfact> 0.64833018E+04</totfact>
</mgrwt>
</event>
<event>
 7    0  0.4831799E-002  0.4580921E+03  0.7546771E-02  0.1025336E+00
         21   -1    0    0  502  501  0.00000000000E+00  0.00000000000E+00  0.42554499962E+02  0.42554499962E+02  0.00000000000E+00 0. -1.
         21   -1    0    0  501  502 -0.00000000000E+00 -0.00000000000E+00 -0.12328214023E+04  0.12328214023E+04  0.00000000000E+00 0. -1.
      99926    2    1    2    0    0 -0.17763568394E-14  0.00000000000E+00 -0.11902669024E+04  0.12753759023E+04  0.45809212313E+03 0.  0.
      99925    2    3    3    0    0 -0.10502939316E+02 -0.23240354134E+02 -0.43148405545E+03  0.50592847545E+03  0.26293479490E+03 0.  0.
         25    1    3    3    0    0  0.10502939316E+02  0.23240354134E+02 -0.75878284693E+03  0.76944742685E+03  0.12509000000E+03 0.  0.
         25    1    4    4    0    0  0.22363507744E+01 -0.13298466527E+02 -0.29155858692E+03  0.31754648192E+03  0.12509000000E+03 0.  0.
         25    1    4    4    0    0 -0.12739290090E+02 -0.99418876073E+01 -0.13992546853E+03  0.18838199353E+03  0.12509000000E+03 0.  0.
<mgrwt>
<rscale>  2 0.45809212E+03</rscale>
<asrwt>0</asrwt>
<pdfrwt beam="1">  1       21 0.62580151E-02 0.45809212E+03</pdfrwt>
<pdfrwt beam="2">  1       21 0.18129725E+00 0.45809212E+03</pdfrwt>
<totfact> 0.29130979E+04</totfact>
</mgrwt>
</event>
<event>
 7    0  0.4831799E-002  0.4547607E+03  0.7546771E-02  0.1026312E+00
         21   -1    0    0  502  501  0.00000000000E+00  0.00000000000E+00  0.34558488618E+02  0.34558488618E+02  0.00000000000E+00 0.  1.
         21   -1    0    0  501  502 -0.00000000000E+00 -0.00000000000E+00 -0.14960673327E+04  0.14960673327E+04  0.00000000000E+00 0.  1.
      99926    2    1    2    0    0 -0.35527136788E-14  0.00000000000E+00 -0.14615088440E+04  0.15306258213E+04  0.45476071021E+03 0.  0.
      99925    2    3    3    0    0  0.25920752451E+02  0.36060547489E+02 -0.12693582828E+04  0.12970844014E+04  0.26303088387E+03 0.  0.
         25    1    4    4    0    0  0.20412795211E+01  0.25102646404E+01 -0.79487720917E+03  0.80466623764E+03  0.12509000000E+03 0.  0.
         25    1    3    3    0    0 -0.25920752451E+02 -0.36060547489E+02 -0.19215056127E+03  0.23354141985E+03  0.12509000000E+03 0.  0.
         25    1    4    4    0    0  0.23879472930E+02  0.33550282849E+02 -0.47448107361E+03  0.49241816378E+03  0.12509000000E+03 0.  0.
<mgrwt>
<rscale>  2 0.45476071E+03</rscale>
<asrwt>0</asrwt>
<pdfrwt beam="1">  1       21 0.50821301E-02 0.45476071E+03</pdfrwt>
<pdfrwt beam="2">  1       21 0.22000993E+00 0.45476071E+03</pdfrwt>
<totfact> 0.23081281E+04</totfact>
</mgrwt>
</event>
<event>
 7    0  0.4831799E-002  0.4576092E+03  0.7546771E-02  0.1025477E+00
         21   -1    0    0  502  501  0.00000000000E+00  0.00000000000E+00  0.68950506596E+02  0.68950506596E+02  0.00000000000E+00 0. -1.
         21   -1    0    0  501  502 -0.00000000000E+00 -0.00000000000E+00 -0.75926267148E+03  0.75926267148E+03  0.00000000000E+00 0. -1.
      99926    2    1    2    0    0  0.71054273576E-14  0.00000000000E+00 -0.69031216489E+03  0.82821317808E+03  0.45760920374E+03 0.  0.
      99925    2    3    3    0    0 -0.59300505897E+02  0.63015467236E+02 -0.29497898375E+03  0.40462926511E+03  0.26310595247E+03 0.  0.
         25    1    3    3    0    0  0.59300505897E+02 -0.63015467236E+02 -0.39533318114E+03  0.42358391296E+03  0.12509000000E+03 0.  0.
         25    1    4    4    0    0 -0.42318610637E+02  0.71102620973E+02 -0.14794195249E+03  0.21066745577E+03  0.12509000000E+03 0.  0.
         25    1    4    4    0    0 -0.16981895260E+02 -0.80871537372E+01 -0.14703703126E+03  0.19396180934E+03  0.12509000000E+03 0.  0.
<mgrwt>
<rscale>  2 0.45760920E+03</rscale>
<asrwt>0</asrwt>
<pdfrwt beam="1">  1       21 0.10139781E-01 0.45760920E+03</pdfrwt>
<pdfrwt beam="2">  1       21 0.11165627E+00 0.45760920E+03</pdfrwt>
<totfact> 0.45491761E+04</totfact>
</mgrwt>
</event>
<event>
 7    0  0.4831799E-002  0.4564190E+03  0.7546771E-02  0.1025825E+00
         21   -1    0    0  502  501  0.00000000000E+00  0.00000000000E+00  0.38261431925E+03  0.38261431925E+03  0.00000000000E+00 0. -1.
         21   -1    0    0  501  502 -0.00000000000E+00 -0.00000000000E+00 -0.13611509466E+03  0.13611509466E+03  0.00000000000E+00 0. -1.
      99926    2    1    2    0    0  0.00000000000E+00  0.00000000000E+00  0.24649922459E+03  0.51872941391E+03  0.45641903677E+03 0.  0.
      99925    2    3    3    0    0 -0.29544616143E+02 -0.64915786663E+02  0.25680465509E+03  0.37436649035E+03  0.26289673737E+03 0.  0.
         25    1    4    4    0    0 -0.50011208026E+02 -0.15431017869E+02  0.11446946183E+03  0.17745422799E+03  0.12509000000E+03 0.  0.
         25    1    4    4    0    0  0.20466591884E+02 -0.49484768794E+02  0.14233519326E+03  0.19691226236E+03  0.12509000000E+03 0.  0.
         25    1    3    3    0    0  0.29544616143E+02  0.64915786663E+02 -0.10305430497E+02  0.14436292356E+03  0.12509000000E+03 0.  0.
<mgrwt>
<rscale>  2 0.45641904E+03</rscale>
<asrwt>0</asrwt>
<pdfrwt beam="1">  1       21 0.56266811E-01 0.45641904E+03</pdfrwt>
<pdfrwt beam="2">  1       21 0.20016926E-01 0.45641904E+03</pdfrwt>
<totfact> 0.63258680E+04</totfact>
</mgrwt>
</event>
<event>
 7    0  0.4831799E-002  0.4509788E+03  0.7546771E-02  0.1027431E+00
         21   -1    0    0  502  501  0.00000000000E+00  0.00000000000E+00  0.22776186742E+03  0.22776186742E+03  0.00000000000E+00 0. -1.
         21   -1    0    0  501  502 -0.00000000000E+00 -0.00000000000E+00 -0.22323964705E+03  0.22323964705E+03  0.00000000000E+00 0. -1.
      99926    2    1    2    0    0  0.00000000000E+00  0.00000000000E+00  0.45222203760E+01  0.45100151447E+03  0.45097884161E+03 0.  0.
      99925    2    3    3    0    0  0.65095517728E+02 -0.39284822183E+02 -0.75724985371E+02  0.28406486237E+03  0.26301682255E+03 0.  0.
         25    1    3    3    0    0 -0.65095517728E+02  0.39284822183E+02  0.80247205747E+02  0.16693665209E+03  0.12509000000E+03 0.  0.
         25    1    4    4    0    0  0.16251534714E+02  0.18143845349E+02 -0.41854080027E+02  0.13413643658E+03  0.12509000000E+03 0.  0.
         25    1    4    4    0    0  0.48843983013E+02 -0.57428667532E+02 -0.33870905344E+02  0.14992842579E+03  0.12509000000E+03 0.  0.
<mgrwt>
<rscale>  2 0.45097884E+03</rscale>
<asrwt>0</asrwt>
<pdfrwt beam="1">  1       21 0.33494393E-01 0.45097884E+03</pdfrwt>
<pdfrwt beam="2">  1       21 0.32829360E-01 0.45097884E+03</pdfrwt>
<totfact> 0.71093490E+04</totfact>
</mgrwt>
</event>
<event>
 7    0  0.4831799E-002  0.4362618E+03  0.7546771E-02  0.1031900E+00
         21   -1    0    0  502  501  0.00000000000E+00  0.00000000000E+00  0.84600269114E+02  0.84600269114E+02  0.00000000000E+00 0.  1.
         21   -1    0    0  501  502 -0.00000000000E+00 -0.00000000000E+00 -0.56242253434E+03  0.56242253434E+03  0.00000000000E+00 0.  1.
      99926    2    1    2    0    0  0.00000000000E+00 -0.88817841970E-15 -0.47782226522E+03  0.64702280345E+03  0.43626183771E+03 0.  0.
      99925    2    3    3    0    0 -0.95098908068E+02 -0.42456697555E+01 -0.32169134386E+03  0.42546874519E+03  0.26168015666E+03 0.  0.
         25    1    4    4    0    0 -0.52725672430E+02  0.16259590224E+02 -0.21345027037E+03  0.25348155126E+03  0.12509000000E+03 0.  0.
         25    1    3    3    0    0  0.95098908068E+02  0.42456697555E+01 -0.15613092136E+03  0.22155405826E+03  0.12509000000E+03 0.  0.
         25    1    4    4    0    0 -0.42373235638E+02 -0.20505259979E+02 -0.10824107349E+03  0.17198719393E+03  0.12509000000E+03 0.  0.
<mgrwt>
<rscale>  2 0.43626184E+03</rscale>
<asrwt>0</asrwt>
<pdfrwt beam="1">  1       21 0.12441216E-01 0.43626184E+03</pdfrwt>
<pdfrwt beam="2">  1       21 0.82709194E-01 0.43626184E+03</pdfrwt>
<totfact> 0.64952463E+04</totfact>
</mgrwt>
</event>
<event>
 7    0  0.4831799E-002  0.4550426E+03  0.7546771E-02  0.1026229E+00
         21   -1    0    0  502  501  0.00000000000E+00  0.00000000000E+00  0.22787381104E+03  0.22787381104E+03  0.00000000000E+00 0.  1.
         21   -1    0    0  501  502 -0.00000000000E+00 -0.00000000000E+00 -0.22716932553E+03  0.22716932553E+03  0.00000000000E+00 0.  1.
      99926    2    1    2    0    0  0.00000000000E+00 -0.71054273576E-14  0.70448551388E+00  0.45504313658E+03  0.45504259124E+03 0.  0.
      99925    2    3    3    0    0 -0.45391834769E+02  0.53871600213E+02  0.89431713748E+02  0.28627525722E+03  0.26266504049E+03 0.  0.
         25    1    3    3    0    0  0.45391834769E+02 -0.53871600213E+02 -0.88727228235E+02  0.16876787936E+03  0.12509000000E+03 0.  0.
         25    1    4    4    0    0 -0.34946414956E+01  0.40479922468E+01  0.71345121179E+02  0.14410493807E+03  0.12509000000E+03 0.  0.
         25    1    4    4    0    0 -0.41897193274E+02  0.49823607966E+02  0.18086592569E+02  0.14217031914E+03  0.12509000000E+03 0.  0.
<mgrwt>
<rscale>  2 0.45504259E+03</rscale>
<asrwt>0</asrwt>
<pdfrwt beam="1">  1       21 0.33510855E-01 0.45504259E+03</pdfrwt>
<pdfrwt beam="2">  1       21 0.33407254E-01 0.45504259E+03</pdfrwt>
<totfact> 0.68519341E+04</totfact>
</mgrwt>
</event>
<event>
 7    0  0.4831799E-002  0.4567218E+03  0.7546771E-02  0.1025736E+00
         21   -1    0    0  502  501  0.00000000000E+00  0.00000000000E+00  0.87055092874E+03  0.87055092874E+03  0.00000000000E+00 0.  1.
         21   -1    0    0  501  502 -0.00000000000E+00 -0.00000000000E+00 -0.59903091793E+02  0.59903091793E+02  0.00000000000E+00 0.  1.
      99926    2    1    2    0    0 -0.35527136788E-14 -0.71054273576E-14  0.81064783695E+03  0.93045402053E+03  0.45672176298E+03 0.  0.
      99925    2    3    3    0    0  0.20714132386E+02  0.44411958314E+02  0.72079955962E+03  0.76883187366E+03  0.26296187458E+03 0.  0.
         25    1    4    4    0    0 -0.18533572949E+02  0.49538396399E+02  0.34373316782E+03  0.36959105076E+03  0.12509000000E+03 0.  0.
         25    1    3    3    0    0 -0.20714132386E+02 -0.44411958314E+02  0.89848277329E+02  0.16162214688E+03  0.12509000000E+03 0.  0.
         25    1    4    4    0    0  0.39247705336E+02 -0.51264380846E+01  0.37706639180E+03  0.39924082290E+03  0.12509000000E+03 0.  0.
<mgrwt>
<rscale>  2 0.45672176E+03</rscale>
<asrwt>0</asrwt>
<pdfrwt beam="1">  1       21 0.12802219E+00 0.45672176E+03</pdfrwt>
<pdfrwt beam="2">  1       21 0.88092787E-02 0.45672176E+03</pdfrwt>
<totfact> 0.41382502E+04</totfact>
</mgrwt>
</event>
<event>
 7    0  0.4831799E-002  0.4590904E+03  0.7546771E-02  0.1025045E+00
         21   -1    0    0  502  501  0.00000000000E+00  0.00000000000E+00  0.51835200089E+02  0.51835200089E+02  0.00000000000E+00 0.  1.
         21   -1    0    0  501  502 -0.00000000000E+00 -0.00000000000E+00 -0.10165097754E+04  0.10165097754E+04  0.00000000000E+00 0.  1.
      99926    2    1    2    0    0  0.00000000000E+00 -0.14210854715E-13 -0.96467457532E+03  0.10683449755E+04  0.45909035102E+03 0.  0.
      99925    2    3    3    0    0 -0.33836556030E+02 -0.98090306585E+02 -0.47907139718E+03  0.55626629454E+03  0.26297559978E+03 0.  0.
         25    1    3    3    0    0  0.33836556030E+02  0.98090306585E+02 -0.48560317814E+03  0.51207868095E+03  0.12509000000E+03 0.  0.
         25    1    4    4    0    0 -0.41055484205E+02 -0.84942242575E+02 -0.27026397657E+03  0.31239536246E+03  0.12509000000E+03 0.  0.
         25    1    4    4    0    0  0.72189281741E+01 -0.13148064010E+02 -0.20880742061E+03  0.24387093208E+03  0.12509000000E+03 0.  0.
<mgrwt>
<rscale>  2 0.45909035E+03</rscale>
<asrwt>0</asrwt>
<pdfrwt beam="1">  1       21 0.76228242E-02 0.45909035E+03</pdfrwt>
<pdfrwt beam="2">  1       21 0.14948672E+00 0.45909035E+03</pdfrwt>
<totfact> 0.35465714E+04</totfact>
</mgrwt>
</event>
<event>
 7    0  0.4831799E-002  0.4462779E+03  0.7546771E-02  0.1028838E+00
         21   -1    0    0  502  501  0.00000000000E+00  0.00000000000E+00  0.30323892063E+03  0.30323892063E+03  0.00000000000E+00 0.  1.
         21   -1    0    0  501  502 -0.00000000000E+00 -0.00000000000E+00 -0.16419725847E+03  0.16419725847E+03  0.00000000000E+00 0.  1.
      99926    2    1    2    0    0 -0.35527136788E-14  0.00000000000E+00  0.13904166217E+03  0.46743617910E+03  0.44627793774E+03 0.  0.
      99925    2    3    3    0    0  0.15914171890E+02 -0.86146856527E+02  0.14827341534E+03  0.31444181605E+03  0.26308574311E+03 0.  0.
         25    1    4    4    0    0 -0.31886783830E+02 -0.37556001100E+02  0.63660399690E+02  0.14875273036E+03  0.12509000000E+03 0.  0.
         25    1    4    4    0    0  0.47800955721E+02 -0.48590855427E+02  0.84613015652E+02  0.16568908569E+03  0.12509000000E+03 0.  0.
         25    1    3    3    0    0 -0.15914171890E+02  0.86146856527E+02 -0.92317531765E+01  0.15299436304E+03  0.12509000000E+03 0.  0.
<mgrwt>
<rscale>  2 0.44627794E+03</rscale>
<asrwt>0</asrwt>
<pdfrwt beam="1">  1       21 0.44593959E-01 0.44627794E+03</pdfrwt>
<pdfrwt beam="2">  1       21 0.24146656E-01 0.44627794E+03</pdfrwt>
<totfact> 0.72516955E+04</totfact>
</mgrwt>
</event>
<event>
 7    0  0.4831799E-002  0.4552914E+03  0.7546771E-02  0.1026156E+00
         21   -1    0    0  502  501  0.00000000000E+00  0.00000000000E+00  0.12695160006E+03  0.12695160006E+03  0.00000000000E+00 0.  1.
         21   -1    0    0  501  502 -0.00000000000E+00 -0.00000000000E+00 -0.40820731688E+03  0.40820731688E+03  0.00000000000E+00 0.  1.
      99926    2    1    2    0    0  0.00000000000E+00  0.88817841970E-15 -0.28125571682E+03  0.53515891694E+03  0.45529143209E+03 0.  0.
      99925    2    3    3    0    0  0.10275180841E+03  0.43138675012E+01 -0.23322211099E+03  0.36624687185E+03  0.26299748004E+03 0.  0.
         25    1    4    4    0    0  0.55266643176E+02 -0.16426313793E+02 -0.71050142256E+02  0.15498340701E+03  0.12509000000E+03 0.  0.
         25    1    4    4    0    0  0.47485165235E+02  0.20740181294E+02 -0.16217196873E+03  0.21126346485E+03  0.12509000000E+03 0.  0.
         25    1    3    3    0    0 -0.10275180841E+03 -0.43138675012E+01 -0.48033605838E+02  0.16891204508E+03  0.12509000000E+03 0.  0.
<mgrwt>
<rscale>  2 0.45529143E+03</rscale>
<asrwt>0</asrwt>
<pdfrwt beam="1">  1       21 0.18669353E-01 0.45529143E+03</pdfrwt>
<pdfrwt beam="2">  1       21 0.60030488E-01 0.45529143E+03</pdfrwt>
<totfact> 0.62713220E+04</totfact>
</mgrwt>
</event>
<event>
 7    0  0.4831799E-002  0.4522930E+03  0.7546771E-02  0.1027040E+00
         21   -1    0    0  502  501  0.00000000000E+00  0.00000000000E+00  0.23699025359E+03  0.23699025359E+03  0.00000000000E+00 0.  1.
         21   -1    0    0  501  502 -0.00000000000E+00 -0.00000000000E+00 -0.21579894827E+03  0.21579894827E+03  0.00000000000E+00 0.  1.
      99926    2    1    2    0    0 -0.71054273576E-14  0.00000000000E+00  0.21191305325E+02  0.45278920186E+03  0.45229303543E+03 0.  0.
      99925    2    3    3    0    0 -0.46715780105E+02  0.73366780347E+02  0.81771025908E+02  0.28883048994E+03  0.26300475788E+03 0.  0.
         25    1    4    4    0    0 -0.33584062970E+02  0.50386980994E+02  0.81222372198E+02  0.16096993193E+03  0.12509000000E+03 0.  0.
         25    1    3    3    0    0  0.46715780105E+02 -0.73366780347E+02 -0.60579720584E+02  0.16395871192E+03  0.12509000000E+03 0.  0.
         25    1    4    4    0    0 -0.13131717136E+02  0.22979799352E+02  0.54865371074E+00  0.12786055801E+03  0.12509000000E+03 0.  0.
<mgrwt>
<rscale>  2 0.45229304E+03</rscale>
<asrwt>0</asrwt>
<pdfrwt beam="1">  1       21 0.34851508E-01 0.45229304E+03</pdfrwt>
<pdfrwt beam="2">  1       21 0.31735139E-01 0.45229304E+03</pdfrwt>
<totfact> 0.70212356E+04</totfact>
</mgrwt>
</event>
<event>
 7    0  0.4831799E-002  0.3960287E+03  0.7546771E-02  0.1045164E+00
         21   -1    0    0  502  501  0.00000000000E+00  0.00000000000E+00  0.25158816845E+03  0.25158816845E+03  0.00000000000E+00 0. -1.
         21   -1    0    0  501  502 -0.00000000000E+00 -0.00000000000E+00 -0.15584866273E+03  0.15584866273E+03  0.00000000000E+00 0. -1.
      99926    2    1    2    0    0  0.00000000000E+00  0.00000000000E+00  0.95739505713E+02  0.40743683118E+03  0.39602868387E+03 0.  0.
      99925    2    3    3    0    0  0.25902053369E+02  0.25503100867E+02  0.71757555819E+02  0.27498319196E+03  0.26295490967E+03 0.  0.
         25    1    3    3    0    0 -0.25902053369E+02 -0.25503100867E+02  0.23981949894E+02  0.13245363922E+03  0.12509000000E+03 0.  0.
         25    1    4    4    0    0  0.14959509575E+02 -0.27639721945E+02  0.30624280766E+02  0.13256355392E+03  0.12509000000E+03 0.  0.
         25    1    4    4    0    0  0.10942543795E+02  0.53142822812E+02  0.41133275053E+02  0.14241963803E+03  0.12509000000E+03 0.  0.
<mgrwt>
<rscale>  2 0.39602868E+03</rscale>
<asrwt>0</asrwt>
<pdfrwt beam="1">  1       21 0.36998260E-01 0.39602868E+03</pdfrwt>
<pdfrwt beam="2">  1       21 0.22918921E-01 0.39602868E+03</pdfrwt>
<totfact> 0.11905992E+05</totfact>
</mgrwt>
</event>
<event>
 7    0  0.4831799E-002  0.4514871E+03  0.7546771E-02  0.1027280E+00
         21   -1    0    0  502  501  0.00000000000E+00  0.00000000000E+00  0.75339406651E+03  0.75339406651E+03  0.00000000000E+00 0. -1.
         21   -1    0    0  501  502 -0.00000000000E+00 -0.00000000000E+00 -0.67640755526E+02  0.67640755526E+02  0.00000000000E+00 0. -1.
      99926    2    1    2    0    0  0.71054273576E-14  0.00000000000E+00  0.68575331098E+03  0.82103482204E+03  0.45148707121E+03 0.  0.
      99925    2    3    3    0    0 -0.50410585842E+02 -0.39854704303E+02  0.59479895532E+03  0.65355399467E+03  0.26309200308E+03 0.  0.
         25    1    4    4    0    0  0.15022433421E+02 -0.22797875709E+02  0.30350038128E+03  0.32940158801E+03  0.12509000000E+03 0.  0.
         25    1    4    4    0    0 -0.65433019263E+02 -0.17056828594E+02  0.29129857404E+03  0.32415240667E+03  0.12509000000E+03 0.  0.
         25    1    3    3    0    0  0.50410585842E+02  0.39854704303E+02  0.90954355664E+02  0.16748082736E+03  0.12509000000E+03 0.  0.
<mgrwt>
<rscale>  2 0.45148707E+03</rscale>
<asrwt>0</asrwt>
<pdfrwt beam="1">  1       21 0.11079324E+00 0.45148707E+03</pdfrwt>
<pdfrwt beam="2">  1       21 0.99471704E-02 0.45148707E+03</pdfrwt>
<totfact> 0.48075709E+04</totfact>
</mgrwt>
</event>
<event>
 6    0  0.4831799E-002  0.4567701E+03  0.7546771E-02  0.1025722E+00
         21   -1    0    0  502  501  0.00000000000E+00  0.00000000000E+00  0.19667753940E+03  0.19667753940E+03  0.00000000000E+00 0.  1.
         21   -1    0    0  501  502 -0.00000000000E+00 -0.00000000000E+00 -0.26520428138E+03  0.26520428138E+03  0.00000000000E+00 0.  1.
      99926    2    1    2    0    0  0.71054273576E-14  0.71054273576E-14 -0.68526741982E+02  0.46188182078E+03  0.45677007564E+03 0.  0.
         25    1    3    3    0    0  0.48826567118E+02  0.44207147298E+02 -0.11704858863E+03  0.18353796809E+03  0.12509000000E+03 0.  0.
         25    1    3    3    0    0 -0.57379723707E+02 -0.23889098928E+02 -0.67006931894E+01  0.13984108527E+03  0.12509000000E+03 0.  0.
         25    1    3    3    0    0  0.85531565891E+01 -0.20318048369E+02  0.55222539841E+02  0.13850276742E+03  0.12509000000E+03 0.  0.
<mgrwt>
<rscale>  2 0.45677008E+03</rscale>
<asrwt>0</asrwt>
<pdfrwt beam="1">  1       21 0.28923168E-01 0.45677008E+03</pdfrwt>
<pdfrwt beam="2">  1       21 0.39000629E-01 0.45677008E+03</pdfrwt>
<totfact> 0.67091582E+04</totfact>
</mgrwt>
</event>
<event>
 7    0  0.4831799E-002  0.4560059E+03  0.7546771E-02  0.1025946E+00
         21   -1    0    0  502  501  0.00000000000E+00  0.00000000000E+00  0.42383606774E+03  0.42383606774E+03  0.00000000000E+00 0. -1.
         21   -1    0    0  501  502 -0.00000000000E+00 -0.00000000000E+00 -0.12265436480E+03  0.12265436480E+03  0.00000000000E+00 0. -1.
      99926    2    1    2    0    0  0.00000000000E+00  0.14210854715E-13  0.30118170294E+03  0.54649043254E+03  0.45600589325E+03 0.  0.
      99925    2    3    3    0    0 -0.46188297232E+02 -0.76459767537E+02  0.10437636096E+03  0.29677197991E+03  0.26305841268E+03 0.  0.
         25    1    4    4    0    0 -0.33218790858E+02 -0.76721842267E+02  0.40991704015E+02  0.15594087676E+03  0.12509000000E+03 0.  0.
         25    1    3    3    0    0  0.46188297232E+02  0.76459767537E+02  0.19680534198E+03  0.24971845263E+03  0.12509000000E+03 0.  0.
         25    1    4    4    0    0 -0.12969506374E+02  0.26207472989E+00  0.63384656948E+02  0.14083110315E+03  0.12509000000E+03 0.  0.
<mgrwt>
<rscale>  2 0.45600589E+03</rscale>
<asrwt>0</asrwt>
<pdfrwt beam="1">  1       21 0.62328833E-01 0.45600589E+03</pdfrwt>
<pdfrwt beam="2">  1       21 0.18037407E-01 0.45600589E+03</pdfrwt>
<totfact> 0.61607211E+04</totfact>
</mgrwt>
</event>
<event>
 7    0  0.4831799E-002  0.4556716E+03  0.7546771E-02  0.1026044E+00
         21   -1    0    0  502  501  0.00000000000E+00  0.00000000000E+00  0.20178036228E+03  0.20178036228E+03  0.00000000000E+00 0. -1.
         21   -1    0    0  501  502 -0.00000000000E+00 -0.00000000000E+00 -0.25725572476E+03  0.25725572476E+03  0.00000000000E+00 0. -1.
      99926    2    1    2    0    0  0.00000000000E+00  0.00000000000E+00 -0.55475362478E+02  0.45903608704E+03  0.45567160694E+03 0.  0.
      99925    2    3    3    0    0  0.39025500398E+02 -0.98582849535E+02  0.67249901416E+01  0.28365661313E+03  0.26301003931E+03 0.  0.
         25    1    4    4    0    0  0.40446815452E+01 -0.90247260644E+01  0.97254750441E+01  0.12585665693E+03  0.12509000000E+03 0.  0.
         25    1    4    4    0    0  0.34980818853E+02 -0.89558123470E+02 -0.30004849025E+01  0.15779995620E+03  0.12509000000E+03 0.  0.
         25    1    3    3    0    0 -0.39025500398E+02  0.98582849535E+02 -0.62200352620E+02  0.17537947391E+03  0.12509000000E+03 0.  0.
<mgrwt>
<rscale>  2 0.45567161E+03</rscale>
<asrwt>0</asrwt>
<pdfrwt beam="1">  1       21 0.29673583E-01 0.45567161E+03</pdfrwt>
<pdfrwt beam="2">  1       21 0.37831724E-01 0.45567161E+03</pdfrwt>
<totfact> 0.67886496E+04</totfact>
</mgrwt>
</event>
<event>
 7    0  0.4831799E-002  0.4535404E+03  0.7546771E-02  0.1026671E+00
         21   -1    0    0  502  501  0.00000000000E+00  0.00000000000E+00  0.25437498893E+03  0.25437498893E+03  0.00000000000E+00 0.  1.
         21   -1    0    0  501  502 -0.00000000000E+00 -0.00000000000E+00 -0.20216107363E+03  0.20216107363E+03  0.00000000000E+00 0.  1.
      99926    2    1    2    0    0  0.00000000000E+00  0.71054273576E-14  0.52213915304E+02  0.45653606256E+03  0.45354038791E+03 0.  0.
      99925    2    3    3    0    0 -0.22218185844E+02 -0.62265359231E+02 -0.57826704478E+02  0.27729580803E+03  0.26301789798E+03 0.  0.
         25    1    4    4    0    0 -0.51711501425E+02 -0.30208594338E+02 -0.26798870667E+02  0.14125270306E+03  0.12509000000E+03 0.  0.
         25    1    3    3    0    0  0.22218185844E+02  0.62265359231E+02  0.11004061978E+03  0.17924025453E+03  0.12509000000E+03 0.  0.
         25    1    4    4    0    0  0.29493315581E+02 -0.32056764893E+02 -0.31027833811E+02  0.13604310497E+03  0.12509000000E+03 0.  0.
<mgrwt>
<rscale>  2 0.45354039E+03</rscale>
<asrwt>0</asrwt>
<pdfrwt beam="1">  1       21 0.37408087E-01 0.45354039E+03</pdfrwt>
<pdfrwt beam="2">  1       21 0.29729570E-01 0.45354039E+03</pdfrwt>
<totfact> 0.69236101E+04</totfact>
</mgrwt>
</event>
<event>
 7    0  0.4831799E-002  0.4545854E+03  0.7546771E-02  0.1026363E+00
         21   -1    0    0  502  501  0.00000000000E+00  0.00000000000E+00  0.16036838632E+03  0.16036838632E+03  0.00000000000E+00 0. -1.
         21   -1    0    0  501  502 -0.00000000000E+00 -0.00000000000E+00 -0.32214557135E+03  0.32214557135E+03  0.00000000000E+00 0. -1.
      99926    2    1    2    0    0  0.00000000000E+00  0.14210854715E-13 -0.16177718503E+03  0.48251395767E+03  0.45458537344E+03 0.  0.
      99925    2    3    3    0    0 -0.37503361395E+02 -0.88833989127E+02 -0.39698971076E+02  0.28289287120E+03  0.26297222008E+03 0.  0.
         25    1    3    3    0    0  0.37503361395E+02  0.88833989127E+02 -0.12207821396E+03  0.19962108647E+03  0.12509000000E+03 0.  0.
         25    1    4    4    0    0 -0.31254045103E+02 -0.68887837184E+02  0.10349965181E+02  0.14655026212E+03  0.12509000000E+03 0.  0.
         25    1    4    4    0    0 -0.62493162919E+01 -0.19946151943E+02 -0.50048936257E+02  0.13634260908E+03  0.12509000000E+03 0.  0.
<mgrwt>
<rscale>  2 0.45458537E+03</rscale>
<asrwt>0</asrwt>
<pdfrwt beam="1">  1       21 0.23583587E-01 0.45458537E+03</pdfrwt>
<pdfrwt beam="2">  1       21 0.47374348E-01 0.45458537E+03</pdfrwt>
<totfact> 0.66736938E+04</totfact>
</mgrwt>
</event>
<event>
 7    0  0.4831799E-002  0.4542911E+03  0.7546771E-02  0.1026450E+00
         21   -1    0    0  502  501  0.00000000000E+00  0.00000000000E+00  0.55825400929E+03  0.55825400929E+03  0.00000000000E+00 0. -1.
         21   -1    0    0  501  502 -0.00000000000E+00 -0.00000000000E+00 -0.92422252443E+02  0.92422252443E+02  0.00000000000E+00 0. -1.
      99926    2    1    2    0    0  0.00000000000E+00  0.00000000000E+00  0.46583175685E+03  0.65067626173E+03  0.45429106517E+03 0.  0.
      99925    2    3    3    0    0 -0.10761203383E+03  0.22763739444E+02  0.33174249319E+03  0.43683993089E+03  0.26206393452E+03 0.  0.
         25    1    4    4    0    0 -0.84756678508E+02  0.15205931765E+02  0.22039613222E+03  0.26765066432E+03  0.12509000000E+03 0.  0.
         25    1    3    3    0    0  0.10761203383E+03 -0.22763739444E+02  0.13408926366E+03  0.21383633084E+03  0.12509000000E+03 0.  0.
         25    1    4    4    0    0 -0.22855355322E+02  0.75578076783E+01  0.11134636097E+03  0.16918926658E+03  0.12509000000E+03 0.  0.
<mgrwt>
<rscale>  2 0.45429107E+03</rscale>
<asrwt>0</asrwt>
<pdfrwt beam="1">  1       21 0.82096176E-01 0.45429107E+03</pdfrwt>
<pdfrwt beam="2">  1       21 0.13591508E-01 0.45429107E+03</pdfrwt>
<totfact> 0.55974938E+04</totfact>
</mgrwt>
</event>
<event>
 7    0  0.4831799E-002  0.4510358E+03  0.7546771E-02  0.1027414E+00
         21   -1    0    0  502  501  0.00000000000E+00  0.00000000000E+00  0.23137995312E+03  0.23137995312E+03  0.00000000000E+00 0.  1.
         21   -1    0    0  501  502 -0.00000000000E+00 -0.00000000000E+00 -0.21980441168E+03  0.21980441168E+03  0.00000000000E+00 0.  1.
      99926    2    1    2    0    0  0.00000000000E+00 -0.17763568394E-14  0.11575541440E+02  0.45118436481E+03  0.45103584989E+03 0.  0.
      99925    2    3    3    0    0  0.42496971363E+02 -0.85454663179E+01 -0.93227397011E+02  0.28233478211E+03  0.26294973677E+03 0.  0.
         25    1    4    4    0    0  0.30676521740E+02 -0.34686454669E+02 -0.20881177021E+02  0.13501011361E+03  0.12509000000E+03 0.  0.
         25    1    3    3    0    0 -0.42496971363E+02  0.85454663179E+01  0.10480293845E+03  0.16884958270E+03  0.12509000000E+03 0.  0.
         25    1    4    4    0    0  0.11820449623E+02  0.26140988351E+02 -0.72346219990E+02  0.14732466850E+03  0.12509000000E+03 0.  0.
<mgrwt>
<rscale>  2 0.45103585E+03</rscale>
<asrwt>0</asrwt>
<pdfrwt beam="1">  1       21 0.34026464E-01 0.45103585E+03</pdfrwt>
<pdfrwt beam="2">  1       21 0.32324178E-01 0.45103585E+03</pdfrwt>
<totfact> 0.71046980E+04</totfact>
</mgrwt>
</event>
<event>
 7    0  0.4831799E-002  0.4630814E+03  0.7546771E-02  0.1023891E+00
         21   -1    0    0  502  501  0.00000000000E+00  0.00000000000E+00  0.35640884403E+03  0.35640884403E+03  0.00000000000E+00 0.  1.
         21   -1    0    0  501  502 -0.00000000000E+00 -0.00000000000E+00 -0.15042022693E+03  0.15042022693E+03  0.00000000000E+00 0.  1.
      99926    2    1    2    0    0  0.17763568394E-14  0.00000000000E+00  0.20598861709E+03  0.50682907096E+03  0.46308141487E+03 0.  0.
      99925    2    3    3    0    0 -0.13189209818E+02 -0.10854554556E+03  0.18413778651E+03  0.33925503475E+03  0.26311815495E+03 0.  0.
         25    1    4    4    0    0  0.32406666233E+02 -0.51282800991E+02  0.76133015707E+02  0.15850508470E+03  0.12509000000E+03 0.  0.
         25    1    3    3    0    0  0.13189209818E+02  0.10854554556E+03  0.21850830582E+02  0.16757403621E+03  0.12509000000E+03 0.  0.
         25    1    4    4    0    0 -0.45595876051E+02 -0.57262744566E+02  0.10800477081E+03  0.18074995005E+03  0.12509000000E+03 0.  0.
<mgrwt>
<rscale>  2 0.46308141E+03</rscale>
<asrwt>0</asrwt>
<pdfrwt beam="1">  1       21 0.52413065E-01 0.46308141E+03</pdfrwt>
<pdfrwt beam="2">  1       21 0.22120622E-01 0.46308141E+03</pdfrwt>
<totfact> 0.60798783E+04</totfact>
</mgrwt>
</event>
<event>
 7    0  0.4831799E-002  0.4526412E+03  0.7546771E-02  0.1026937E+00
         21   -1    0    0  502  501  0.00000000000E+00  0.00000000000E+00  0.13503095240E+04  0.13503095240E+04  0.00000000000E+00 0. -1.
         21   -1    0    0  501  502 -0.00000000000E+00 -0.00000000000E+00 -0.37932797117E+02  0.37932797117E+02  0.00000000000E+00 0. -1.
      99926    2    1    2    0    0  0.00000000000E+00  0.00000000000E+00  0.13123767269E+04  0.13882423212E+04  0.45264121430E+03 0.  0.
      99925    2    3    3    0    0 -0.44552641621E+02  0.10049610496E+03  0.87541652939E+03  0.92062482008E+03  0.26289076520E+03 0.  0.
         25    1    4    4    0    0 -0.48856828496E+02  0.82727102457E+02  0.45137430927E+03  0.47813914119E+03  0.12509000000E+03 0.  0.
         25    1    3    3    0    0  0.44552641621E+02 -0.10049610496E+03  0.43696019753E+03  0.46761750107E+03  0.12509000000E+03 0.  0.
         25    1    4    4    0    0  0.43041868749E+01  0.17769002502E+02  0.42404222013E+03  0.44248567889E+03  0.12509000000E+03 0.  0.
<mgrwt>
<rscale>  2 0.45264121E+03</rscale>
<asrwt>0</asrwt>
<pdfrwt beam="1">  1       21 0.19857490E+00 0.45264121E+03</pdfrwt>
<pdfrwt beam="2">  1       21 0.55783534E-02 0.45264121E+03</pdfrwt>
<totfact> 0.27141161E+04</totfact>
</mgrwt>
</event>
<event>
 7    0  0.4831799E-002  0.4366738E+03  0.7546771E-02  0.1031772E+00
         21   -1    0    0  502  501  0.00000000000E+00  0.00000000000E+00  0.15923634915E+03  0.15923634915E+03  0.00000000000E+00 0. -1.
         21   -1    0    0  501  502 -0.00000000000E+00 -0.00000000000E+00 -0.29937265552E+03  0.29937265552E+03  0.00000000000E+00 0. -1.
      99926    2    1    2    0    0  0.00000000000E+00 -0.13322676296E-14 -0.14013630638E+03  0.45860900467E+03  0.43667383114E+03 0.  0.
      99925    2    3    3    0    0  0.71951086622E+02 -0.33311205158E+01 -0.15470672847E+03  0.31353019667E+03  0.26301892929E+03 0.  0.
         25    1    4    4    0    0  0.30954023329E+02 -0.40356235908E+02 -0.89763742971E+02  0.16214750997E+03  0.12509000000E+03 0.  0.
         25    1    4    4    0    0  0.40997063293E+02  0.37025115392E+02 -0.64942985499E+02  0.15138268670E+03  0.12509000000E+03 0.  0.
         25    1    3    3    0    0 -0.71951086622E+02  0.33311205158E+01  0.14570422092E+02  0.14507880800E+03  0.12509000000E+03 0.  0.
<mgrwt>
<rscale>  2 0.43667383E+03</rscale>
<asrwt>0</asrwt>
<pdfrwt beam="1">  1       21 0.23417111E-01 0.43667383E+03</pdfrwt>
<pdfrwt beam="2">  1       21 0.44025390E-01 0.43667383E+03</pdfrwt>
<totfact> 0.79195924E+04</totfact>
</mgrwt>
</event>
<event>
 7    0  0.4831799E-002  0.4544000E+03  0.7546771E-02  0.1026418E+00
         21   -1    0    0  502  501  0.00000000000E+00  0.00000000000E+00  0.14734408482E+04  0.14734408482E+04  0.00000000000E+00 0. -1.
         21   -1    0    0  501  502 -0.00000000000E+00 -0.00000000000E+00 -0.35033535555E+02  0.35033535555E+02  0.00000000000E+00 0. -1.
      99926    2    1    2    0    0  0.35527136788E-14 -0.35527136788E-14  0.14384073126E+04  0.15084743837E+04  0.45440001031E+03 0.  0.
      99925    2    3    3    0    0 -0.16417794680E+02  0.29685780116E+02  0.12623773807E+04  0.12898769579E+04  0.26274536312E+03 0.  0.
         25    1    4    4    0    0  0.17107904720E+01  0.19933660951E+02  0.44323068594E+03  0.46097855341E+03  0.12509000000E+03 0.  0.
         25    1    4    4    0    0 -0.18128585152E+02  0.97521191649E+01  0.81914669475E+03  0.82889840454E+03  0.12509000000E+03 0.  0.
         25    1    3    3    0    0  0.16417794680E+02 -0.29685780116E+02  0.17602993192E+03  0.21859742577E+03  0.12509000000E+03 0.  0.
<mgrwt>
<rscale>  2 0.45440001E+03</rscale>
<asrwt>0</asrwt>
<pdfrwt beam="1">  1       21 0.21668244E+00 0.45440001E+03</pdfrwt>
<pdfrwt beam="2">  1       21 0.51519915E-02 0.45440001E+03</pdfrwt>
<totfact> 0.23682364E+04</totfact>
</mgrwt>
</event>
<event>
 7    0  0.4831799E-002  0.4528512E+03  0.7546771E-02  0.1026875E+00
         21   -1    0    0  502  501  0.00000000000E+00  0.00000000000E+00  0.19209001998E+03  0.19209001998E+03  0.00000000000E+00 0.  1.
         21   -1    0    0  501  502 -0.00000000000E+00 -0.00000000000E+00 -0.26689859583E+03  0.26689859583E+03  0.00000000000E+00 0.  1.
      99926    2    1    2    0    0  0.00000000000E+00  0.35527136788E-14 -0.74808575843E+02  0.45898861581E+03  0.45285121886E+03 0.  0.
      99925    2    3    3    0    0  0.53178372774E+02  0.20959378080E+02 -0.14387405097E+03  0.30509000368E+03  0.26289338703E+03 0.  0.
         25    1    4    4    0    0 -0.12363696478E+02  0.16814934814E+02 -0.80771665163E+02  0.15035681899E+03  0.12509000000E+03 0.  0.
         25    1    4    4    0    0  0.65542069252E+02  0.41444432663E+01 -0.63102385803E+02  0.15473318469E+03  0.12509000000E+03 0.  0.
         25    1    3    3    0    0 -0.53178372774E+02 -0.20959378080E+02  0.69065475123E+02  0.15389861213E+03  0.12509000000E+03 0.  0.
<mgrwt>
<rscale>  2 0.45285122E+03</rscale>
<asrwt>0</asrwt>
<pdfrwt beam="1">  1       21 0.28248532E-01 0.45285122E+03</pdfrwt>
<pdfrwt beam="2">  1       21 0.39249794E-01 0.45285122E+03</pdfrwt>
<totfact> 0.69436484E+04</totfact>
</mgrwt>
</event>
<event>
 7    0  0.4831799E-002  0.4290459E+03  0.7546771E-02  0.1034162E+00
         21   -1    0    0  502  501  0.00000000000E+00  0.00000000000E+00  0.26189252428E+03  0.26189252428E+03  0.00000000000E+00 0. -1.
         21   -1    0    0  501  502 -0.00000000000E+00 -0.00000000000E+00 -0.17572130896E+03  0.17572130896E+03  0.00000000000E+00 0. -1.
      99926    2    1    2    0    0  0.88817841970E-15  0.00000000000E+00  0.86171215328E+02  0.43761383324E+03  0.42904590511E+03 0.  0.
      99925    2    3    3    0    0 -0.48695702132E+01 -0.34041218558E+02  0.13668607687E+03  0.29839538399E+03  0.26300989392E+03 0.  0.
         25    1    3    3    0    0  0.48695702132E+01  0.34041218558E+02 -0.50514861542E+02  0.13921844925E+03  0.12509000000E+03 0.  0.
         25    1    4    4    0    0 -0.25612432011E+02  0.83157072552E+01  0.91402133973E+02  0.15724823006E+03  0.12509000000E+03 0.  0.
         25    1    4    4    0    0  0.20742861798E+02 -0.42356925813E+02  0.45283942897E+02  0.14114715394E+03  0.12509000000E+03 0.  0.
<mgrwt>
<rscale>  2 0.42904591E+03</rscale>
<asrwt>0</asrwt>
<pdfrwt beam="1">  1       21 0.38513606E-01 0.42904591E+03</pdfrwt>
<pdfrwt beam="2">  1       21 0.25841369E-01 0.42904591E+03</pdfrwt>
<totfact> 0.86376478E+04</totfact>
</mgrwt>
</event>
<event>
 7    0  0.4831799E-002  0.4578982E+03  0.7546771E-02  0.1025393E+00
         21   -1    0    0  502  501  0.00000000000E+00  0.00000000000E+00  0.13521197101E+04  0.13521197101E+04  0.00000000000E+00 0. -1.
         21   -1    0    0  501  502 -0.00000000000E+00 -0.00000000000E+00 -0.38767041777E+02  0.38767041777E+02  0.00000000000E+00 0. -1.
      99926    2    1    2    0    0 -0.88817841970E-15 -0.14210854715E-13  0.13133526683E+04  0.13908867518E+04  0.45789816024E+03 0.  0.
      99925    2    3    3    0    0 -0.10125360546E+01  0.72526821907E+02  0.54915400261E+03  0.61312825858E+03  0.26285923563E+03 0.  0.
         25    1    4    4    0    0 -0.40393184384E+02  0.39715097509E+02  0.26559627416E+03  0.29899462748E+03  0.12509000000E+03 0.  0.
         25    1    4    4    0    0  0.39380648330E+02  0.32811724398E+02  0.28355772845E+03  0.31413363110E+03  0.12509000000E+03 0.  0.
         25    1    3    3    0    0  0.10125360546E+01 -0.72526821907E+02  0.76419866566E+03  0.77775849325E+03  0.12509000000E+03 0.  0.
<mgrwt>
<rscale>  2 0.45789816E+03</rscale>
<asrwt>0</asrwt>
<pdfrwt beam="1">  1       21 0.19884110E+00 0.45789816E+03</pdfrwt>
<pdfrwt beam="2">  1       21 0.57010364E-02 0.45789816E+03</pdfrwt>
<totfact> 0.25985649E+04</totfact>
</mgrwt>
</event>
<event>
 7    0  0.4831799E-002  0.4560597E+03  0.7546771E-02  0.1025930E+00
         21   -1    0    0  502  501  0.00000000000E+00  0.00000000000E+00  0.62476269523E+02  0.62476269523E+02  0.00000000000E+00 0. -1.
         21   -1    0    0  501  502 -0.00000000000E+00 -0.00000000000E+00 -0.83227789992E+03  0.83227789992E+03  0.00000000000E+00 0. -1.
      99926    2    1    2    0    0 -0.71054273576E-14  0.00000000000E+00 -0.76980163039E+03  0.89475416944E+03  0.45605972588E+03 0.  0.
      99925    2    3    3    0    0  0.23320115345E+02  0.24053831175E+02 -0.26985724820E+03  0.37831026352E+03  0.26300818714E+03 0.  0.
         25    1    3    3    0    0 -0.23320115345E+02 -0.24053831175E+02 -0.49994438219E+03  0.51644390592E+03  0.12509000000E+03 0.  0.
         25    1    4    4    0    0 -0.41126923346E+01  0.28078363620E+02 -0.86834982881E+02  0.15489716296E+03  0.12509000000E+03 0.  0.
         25    1    4    4    0    0  0.27432807680E+02 -0.40245324456E+01 -0.18302226532E+03  0.22341310056E+03  0.12509000000E+03 0.  0.
<mgrwt>
<rscale>  2 0.45605973E+03</rscale>
<asrwt>0</asrwt>
<pdfrwt beam="1">  1       21 0.91876865E-02 0.45605973E+03</pdfrwt>
<pdfrwt beam="2">  1       21 0.12239381E+00 0.45605973E+03</pdfrwt>
<totfact> 0.43102503E+04</totfact>
</mgrwt>
</event>
<event>
 7    0  0.4831799E-002  0.4637266E+03  0.7546771E-02  0.1023706E+00
         21   -1    0    0  502  501  0.00000000000E+00  0.00000000000E+00  0.66687504846E+03  0.66687504846E+03  0.00000000000E+00 0.  1.
         21   -1    0    0  501  502 -0.00000000000E+00 -0.00000000000E+00 -0.80615671776E+02  0.80615671776E+02  0.00000000000E+00 0.  1.
      99926    2    1    2    0    0  0.00000000000E+00  0.14210854715E-13  0.58625937668E+03  0.74749072023E+03  0.46372655745E+03 0.  0.
      99925    2    3    3    0    0  0.15408402781E+02  0.11977232176E+03  0.35129248857E+03  0.45518989139E+03  0.26307526824E+03 0.  0.
         25    1    4    4    0    0  0.24737811012E+00  0.25996028538E+02  0.19849698206E+03  0.23606019292E+03  0.12509000000E+03 0.  0.
         25    1    4    4    0    0  0.15161024671E+02  0.93776293220E+02  0.15279550651E+03  0.21912969846E+03  0.12509000000E+03 0.  0.
         25    1    3    3    0    0 -0.15408402781E+02 -0.11977232176E+03  0.23496688811E+03  0.29230082885E+03  0.12509000000E+03 0.  0.
<mgrwt>
<rscale>  2 0.46372656E+03</rscale>
<asrwt>0</asrwt>
<pdfrwt beam="1">  1       21 0.98069857E-01 0.46372656E+03</pdfrwt>
<pdfrwt beam="2">  1       21 0.11855246E-01 0.46372656E+03</pdfrwt>
<totfact> 0.47085451E+04</totfact>
</mgrwt>
</event>
<event>
 7    0  0.4831799E-002  0.4471390E+03  0.7546771E-02  0.1028579E+00
         21   -1    0    0  502  501  0.00000000000E+00  0.00000000000E+00  0.17413360906E+04  0.17413360906E+04  0.00000000000E+00 0.  1.
         21   -1    0    0  501  502 -0.00000000000E+00 -0.00000000000E+00 -0.28704003661E+02  0.28704003661E+02  0.00000000000E+00 0.  1.
      99926    2    1    2    0    0 -0.71054273576E-14  0.35527136788E-14  0.17126320869E+04  0.17700400943E+04  0.44713898295E+03 0.  0.
      99925    2    3    3    0    0  0.40608813635E+02 -0.24104291530E+02  0.71201835254E+03  0.76053256770E+03  0.26307709813E+03 0.  0.
         25    1    3    3    0    0 -0.40608813635E+02  0.24104291530E+02  0.10006137344E+04  0.10095075266E+04  0.12509000000E+03 0.  0.
         25    1    4    4    0    0  0.41639073760E+02 -0.46560075773E+02  0.35295884232E+03  0.37964339266E+03  0.12509000000E+03 0.  0.
         25    1    4    4    0    0 -0.10302601258E+01  0.22455784242E+02  0.35905951023E+03  0.38088917505E+03  0.12509000000E+03 0.  0.
<mgrwt>
<rscale>  2 0.44713898E+03</rscale>
<asrwt>0</asrwt>
<pdfrwt beam="1">  1       21 0.25607877E+00 0.44713898E+03</pdfrwt>
<pdfrwt beam="2">  1       21 0.42211782E-02 0.44713898E+03</pdfrwt>
<totfact> 0.18974102E+04</totfact>
</mgrwt>
</event>
<event>
 6    0  0.4831799E-002  0.4479249E+03  0.7546771E-02  0.1028343E+00
         21   -1    0    0  502  501  0.00000000000E+00  0.00000000000E+00  0.11817777373E+04  0.11817777373E+04  0.00000000000E+00 0. -1.
         21   -1    0    0  501  502 -0.00000000000E+00 -0.00000000000E+00 -0.42443838805E+02  0.42443838805E+02  0.00000000000E+00 0. -1.
      99926    2    1    2    0    0  0.71054273576E-14  0.00000000000E+00  0.11393338985E+04  0.12242215761E+04  0.44792492131E+03 0.  0.
         25    1    3    3    0    0 -0.31037220361E+02 -0.10667206269E+02  0.29574933286E+03  0.32278828096E+03  0.12509000000E+03 0.  0.
         25    1    3    3    0    0  0.51683554651E+02 -0.68113533567E+01  0.68185393016E+03  0.69519053110E+03  0.12509000000E+03 0.  0.
         25    1    3    3    0    0 -0.20646334290E+02  0.17478559625E+02  0.16173063542E+03  0.20624276400E+03  0.12509000000E+03 0.  0.
<mgrwt>
<rscale>  2 0.44792492E+03</rscale>
<asrwt>0</asrwt>
<pdfrwt beam="1">  1       21 0.17379082E+00 0.44792492E+03</pdfrwt>
<pdfrwt beam="2">  1       21 0.62417418E-02 0.44792492E+03</pdfrwt>
<totfact> 0.33188234E+04</totfact>
</mgrwt>
</event>
<event>
 7    0  0.4831799E-002  0.4611936E+03  0.7546771E-02  0.1024436E+00
         21   -1    0    0  502  501  0.00000000000E+00  0.00000000000E+00  0.33421851786E+03  0.33421851786E+03  0.00000000000E+00 0. -1.
         21   -1    0    0  501  502 -0.00000000000E+00 -0.00000000000E+00 -0.15910212209E+03  0.15910212209E+03  0.00000000000E+00 0. -1.
      99926    2    1    2    0    0  0.35527136788E-14  0.00000000000E+00  0.17511639576E+03  0.49332063995E+03  0.46119356212E+03 0.  0.
      99925    2    3    3    0    0  0.20023868342E+02 -0.35182142835E+02  0.22915897571E+03  0.35116985021E+03  0.26299750773E+03 0.  0.
         25    1    3    3    0    0 -0.20023868342E+02  0.35182142835E+02 -0.54042579942E+02  0.14215078974E+03  0.12509000000E+03 0.  0.
         25    1    4    4    0    0 -0.65118469254E+01  0.19833881332E+02  0.11322576146E+03  0.17000990606E+03  0.12509000000E+03 0.  0.
         25    1    4    4    0    0  0.26535715267E+02 -0.55016024167E+02  0.11593321424E+03  0.18115994415E+03  0.12509000000E+03 0.  0.
<mgrwt>
<rscale>  2 0.46119356E+03</rscale>
<asrwt>0</asrwt>
<pdfrwt beam="1">  1       21 0.49149782E-01 0.46119356E+03</pdfrwt>
<pdfrwt beam="2">  1       21 0.23397371E-01 0.46119356E+03</pdfrwt>
<totfact> 0.62607112E+04</totfact>
</mgrwt>
</event>
<event>
 7    0  0.4831799E-002  0.4524056E+03  0.7546771E-02  0.1027007E+00
         21   -1    0    0  502  501  0.00000000000E+00  0.00000000000E+00  0.11550603109E+03  0.11550603109E+03  0.00000000000E+00 0. -1.
         21   -1    0    0  501  502 -0.00000000000E+00 -0.00000000000E+00 -0.44298731883E+03  0.44298731883E+03  0.00000000000E+00 0. -1.
      99926    2    1    2    0    0  0.00000000000E+00  0.00000000000E+00 -0.32748128774E+03  0.55849334992E+03  0.45240560131E+03 0.  0.
      99925    2    3    3    0    0 -0.18301326175E+02  0.10912886205E+03 -0.18983834376E+03  0.34207446166E+03  0.26216844487E+03 0.  0.
         25    1    4    4    0    0 -0.24635317749E+01  0.95417976321E+02 -0.96250200262E+02  0.18445126279E+03  0.12509000000E+03 0.  0.
         25    1    3    3    0    0  0.18301326175E+02 -0.10912886205E+03 -0.13764294397E+03  0.21641888826E+03  0.12509000000E+03 0.  0.
         25    1    4    4    0    0 -0.15837794400E+02  0.13710885727E+02 -0.93588143500E+02  0.15762319887E+03  0.12509000000E+03 0.  0.
<mgrwt>
<rscale>  2 0.45240560E+03</rscale>
<asrwt>0</asrwt>
<pdfrwt beam="1">  1       21 0.16986181E-01 0.45240560E+03</pdfrwt>
<pdfrwt beam="2">  1       21 0.65145194E-01 0.45240560E+03</pdfrwt>
<totfact> 0.62583212E+04</totfact>
</mgrwt>
</event>
<event>
 7    0  0.4831799E-002  0.4551580E+03  0.7546771E-02  0.1026195E+00
         21   -1    0    0  502  501  0.00000000000E+00  0.00000000000E+00  0.32639590067E+03  0.32639590067E+03  0.00000000000E+00 0.  1.
         21   -1    0    0  501  502 -0.00000000000E+00 -0.00000000000E+00 -0.15867910561E+03  0.15867910561E+03  0.00000000000E+00 0.  1.
      99926    2    1    2    0    0  0.00000000000E+00  0.71054273576E-14  0.16771679506E+03  0.48507500628E+03  0.45515803670E+03 0.  0.
      99925    2    3    3    0    0  0.73223230179E+02  0.50618434661E+02  0.18017679927E+03  0.33104050634E+03  0.26305944286E+03 0.  0.
         25    1    4    4    0    0  0.18744573173E+02  0.45822612991E+02  0.12548528784E+03  0.18397047712E+03  0.12509000000E+03 0.  0.
         25    1    3    3    0    0 -0.73223230179E+02 -0.50618434661E+02 -0.12460004214E+02  0.15403449994E+03  0.12509000000E+03 0.  0.
         25    1    4    4    0    0  0.54478657006E+02  0.47958216703E+01  0.54691511427E+02  0.14707002923E+03  0.12509000000E+03 0.  0.
<mgrwt>
<rscale>  2 0.45515804E+03</rscale>
<asrwt>0</asrwt>
<pdfrwt beam="1">  1       21 0.47999397E-01 0.45515804E+03</pdfrwt>
<pdfrwt beam="2">  1       21 0.23335163E-01 0.45515804E+03</pdfrwt>
<totfact> 0.66249343E+04</totfact>
</mgrwt>
</event>
<event>
 7    0  0.4831799E-002  0.4571407E+03  0.7546771E-02  0.1025614E+00
         21   -1    0    0  502  501  0.00000000000E+00  0.00000000000E+00  0.46431143456E+03  0.46431143456E+03  0.00000000000E+00 0. -1.
         21   -1    0    0  501  502 -0.00000000000E+00 -0.00000000000E+00 -0.11252018887E+03  0.11252018887E+03  0.00000000000E+00 0. -1.
      99926    2    1    2    0    0 -0.14210854715E-13  0.00000000000E+00  0.35179124569E+03  0.57683162343E+03  0.45714072367E+03 0.  0.
      99925    2    3    3    0    0 -0.11075267371E+03  0.24514168462E+02  0.20160738826E+03  0.35084534437E+03  0.26377986556E+03 0.  0.
         25    1    4    4    0    0 -0.60369078168E+02 -0.18058896644E+02  0.13498266606E+03  0.19452089241E+03  0.12509000000E+03 0.  0.
         25    1    3    3    0    0  0.11075267371E+03 -0.24514168462E+02  0.15018385743E+03  0.22598627906E+03  0.12509000000E+03 0.  0.
         25    1    4    4    0    0 -0.50383595543E+02  0.42573065106E+02  0.66624722203E+02  0.15632445196E+03  0.12509000000E+03 0.  0.
<mgrwt>
<rscale>  2 0.45714072E+03</rscale>
<asrwt>0</asrwt>
<pdfrwt beam="1">  1       21 0.68281093E-01 0.45714072E+03</pdfrwt>
<pdfrwt beam="2">  1       21 0.16547087E-01 0.45714072E+03</pdfrwt>
<totfact> 0.59120480E+04</totfact>
</mgrwt>
</event>
<event>
 7    0  0.4831799E-002  0.4586848E+03  0.7546771E-02  0.1025163E+00
         21   -1    0    0  502  501  0.00000000000E+00  0.00000000000E+00  0.98673442163E+02  0.98673442163E+02  0.00000000000E+00 0.  1.
         21   -1    0    0  501  502 -0.00000000000E+00 -0.00000000000E+00 -0.53305057464E+03  0.53305057464E+03  0.00000000000E+00 0.  1.
      99926    2    1    2    0    0 -0.17763568394E-14  0.35527136788E-14 -0.43437713248E+03  0.63172401680E+03  0.45868479394E+03 0.  0.
      99925    2    3    3    0    0 -0.15567359152E+02  0.27849581890E+02 -0.42683033996E+03  0.50240888212E+03  0.26308288397E+03 0.  0.
         25    1    3    3    0    0  0.15567359152E+02 -0.27849581890E+02 -0.75467925184E+01  0.12931513469E+03  0.12509000000E+03 0.  0.
         25    1    4    4    0    0 -0.45001979364E+02  0.26134724422E+02 -0.24089907117E+03  0.27638392239E+03  0.12509000000E+03 0.  0.
         25    1    4    4    0    0  0.29434620212E+02  0.17148574684E+01 -0.18593126879E+03  0.22602495972E+03  0.12509000000E+03 0.  0.
<mgrwt>
<rscale>  2 0.45868479E+03</rscale>
<asrwt>0</asrwt>
<pdfrwt beam="1">  1       21 0.14510800E-01 0.45868479E+03</pdfrwt>
<pdfrwt beam="2">  1       21 0.78389791E-01 0.45868479E+03</pdfrwt>
<totfact> 0.55145240E+04</totfact>
</mgrwt>
</event>
<event>
 7    0  0.4831799E-002  0.4561712E+03  0.7546771E-02  0.1025898E+00
         21   -1    0    0  502  501  0.00000000000E+00  0.00000000000E+00  0.71997015530E+03  0.71997015530E+03  0.00000000000E+00 0. -1.
         21   -1    0    0  501  502 -0.00000000000E+00 -0.00000000000E+00 -0.72257217117E+02  0.72257217117E+02  0.00000000000E+00 0. -1.
      99926    2    1    2    0    0  0.44408920985E-15  0.00000000000E+00  0.64771293818E+03  0.79222737241E+03  0.45617119518E+03 0.  0.
      99925    2    3    3    0    0 -0.33531149550E+01  0.74958533466E+02  0.25786968061E+03  0.37598789965E+03  0.26313514281E+03 0.  0.
         25    1    3    3    0    0  0.33531149550E+01 -0.74958533466E+02  0.38984325757E+03  0.41623947277E+03  0.12509000000E+03 0.  0.
         25    1    4    4    0    0 -0.25587077769E+02  0.69626829415E+02  0.12124365585E+03  0.18934129530E+03  0.12509000000E+03 0.  0.
         25    1    4    4    0    0  0.22233962814E+02  0.53317040513E+01  0.13662602476E+03  0.18664660434E+03  0.12509000000E+03 0.  0.
<mgrwt>
<rscale>  2 0.45617120E+03</rscale>
<asrwt>0</asrwt>
<pdfrwt beam="1">  1       21 0.10587796E+00 0.45617120E+03</pdfrwt>
<pdfrwt beam="2">  1       21 0.10626062E-01 0.45617120E+03</pdfrwt>
<totfact> 0.47703080E+04</totfact>
</mgrwt>
</event>
<event>
 7    0  0.4831799E-002  0.4406944E+03  0.7546771E-02  0.1030534E+00
         21   -1    0    0  502  501  0.00000000000E+00  0.00000000000E+00  0.13452740723E+03  0.13452740723E+03  0.00000000000E+00 0.  1.
         21   -1    0    0  501  502 -0.00000000000E+00 -0.00000000000E+00 -0.36091448717E+03  0.36091448717E+03  0.00000000000E+00 0.  1.
      99926    2    1    2    0    0  0.00000000000E+00  0.00000000000E+00 -0.22638707994E+03  0.49544189441E+03  0.44069440746E+03 0.  0.
      99925    2    3    3    0    0  0.63552865045E+02 -0.56415922717E+02 -0.20174023507E+03  0.34222081866E+03  0.26304798666E+03 0.  0.
         25    1    4    4    0    0  0.21342487291E+01 -0.32930818160E+02 -0.61929521213E+02  0.14342861465E+03  0.12509000000E+03 0.  0.
         25    1    4    4    0    0  0.61418616315E+02 -0.23485104557E+02 -0.13981071386E+03  0.19879220401E+03  0.12509000000E+03 0.  0.
         25    1    3    3    0    0 -0.63552865045E+02  0.56415922717E+02 -0.24646844868E+02  0.15322107575E+03  0.12509000000E+03 0.  0.
<mgrwt>
<rscale>  2 0.44069441E+03</rscale>
<asrwt>0</asrwt>
<pdfrwt beam="1">  1       21 0.19783443E-01 0.44069441E+03</pdfrwt>
<pdfrwt beam="2">  1       21 0.53075659E-01 0.44069441E+03</pdfrwt>
<totfact> 0.73601083E+04</totfact>
</mgrwt>
</event>
<event>
 7    0  0.4831799E-002  0.4550004E+03  0.7546771E-02  0.1026241E+00
         21   -1    0    0  502  501  0.00000000000E+00  0.00000000000E+00  0.19564492554E+03  0.19564492554E+03  0.00000000000E+00 0.  1.
         21   -1    0    0  501  502 -0.00000000000E+00 -0.00000000000E+00 -0.26454222779E+03  0.26454222779E+03  0.00000000000E+00 0.  1.
      99926    2    1    2    0    0  0.00000000000E+00  0.00000000000E+00 -0.68897302246E+02  0.46018715333E+03  0.45500041520E+03 0.  0.
      99925    2    3    3    0    0 -0.10697167398E+03  0.35350614776E+02 -0.53498764812E+02  0.29113914815E+03  0.26307276703E+03 0.  0.
         25    1    4    4    0    0 -0.51043044008E+02 -0.30306838732E+00  0.11006285614E+02  0.13555121030E+03  0.12509000000E+03 0.  0.
         25    1    3    3    0    0  0.10697167398E+03 -0.35350614776E+02 -0.15398537433E+02  0.16904800518E+03  0.12509000000E+03 0.  0.
         25    1    4    4    0    0 -0.55928629972E+02  0.35653683163E+02 -0.64505050426E+02  0.15558793785E+03  0.12509000000E+03 0.  0.
<mgrwt>
<rscale>  2 0.45500042E+03</rscale>
<asrwt>0</asrwt>
<pdfrwt beam="1">  1       21 0.28771313E-01 0.45500042E+03</pdfrwt>
<pdfrwt beam="2">  1       21 0.38903268E-01 0.45500042E+03</pdfrwt>
<totfact> 0.68166702E+04</totfact>
</mgrwt>
</event>
<event>
 7    0  0.4831799E-002  0.4470864E+03  0.7546771E-02  0.1028594E+00
         21   -1    0    0  502  501  0.00000000000E+00  0.00000000000E+00  0.11627426601E+03  0.11627426601E+03  0.00000000000E+00 0.  1.
         21   -1    0    0  501  502 -0.00000000000E+00 -0.00000000000E+00 -0.42977315292E+03  0.42977315292E+03  0.00000000000E+00 0.  1.
      99926    2    1    2    0    0  0.00000000000E+00 -0.88817841970E-15 -0.31349888691E+03  0.54604741894E+03  0.44708638051E+03 0.  0.
      99925    2    3    3    0    0 -0.10419563139E+03 -0.36525652702E+01 -0.17817958833E+03  0.33431907529E+03  0.26296617192E+03 0.  0.
         25    1    4    4    0    0 -0.48572031534E+02  0.15558483008E+02 -0.13119789890E+03  0.18831278612E+03  0.12509000000E+03 0.  0.
         25    1    3    3    0    0  0.10419563139E+03  0.36525652702E+01 -0.13531929858E+03  0.21172834364E+03  0.12509000000E+03 0.  0.
         25    1    4    4    0    0 -0.55623599854E+02 -0.19211048278E+02 -0.46981689425E+02  0.14600628917E+03  0.12509000000E+03 0.  0.
<mgrwt>
<rscale>  2 0.44708638E+03</rscale>
<asrwt>0</asrwt>
<pdfrwt beam="1">  1       21 0.17099157E-01 0.44708638E+03</pdfrwt>
<pdfrwt beam="2">  1       21 0.63201934E-01 0.44708638E+03</pdfrwt>
<totfact> 0.66175886E+04</totfact>
</mgrwt>
</event>
<event>
 7    0  0.4831799E-002  0.4478148E+03  0.7546771E-02  0.1028376E+00
         21   -1    0    0  502  501  0.00000000000E+00  0.00000000000E+00  0.19972413729E+03  0.19972413729E+03  0.00000000000E+00 0. -1.
         21   -1    0    0  501  502 -0.00000000000E+00 -0.00000000000E+00 -0.25101880947E+03  0.25101880947E+03  0.00000000000E+00 0. -1.
      99926    2    1    2    0    0  0.71054273576E-14  0.00000000000E+00 -0.51294672185E+02  0.45074294676E+03  0.44781476155E+03 0.  0.
      99925    2    3    3    0    0  0.37892230724E+02 -0.30709657021E+02 -0.12753668688E+03  0.29634328003E+03  0.26301108139E+03 0.  0.
         25    1    4    4    0    0  0.39529555635E+02 -0.31342438710E+02 -0.10088220019E+03  0.16843295595E+03  0.12509000000E+03 0.  0.
         25    1    3    3    0    0 -0.37892230724E+02  0.30709657021E+02  0.76242014695E+02  0.15439966674E+03  0.12509000000E+03 0.  0.
         25    1    4    4    0    0 -0.16373249108E+01  0.63278168955E+00 -0.26654486688E+02  0.12791032408E+03  0.12509000000E+03 0.  0.
<mgrwt>
<rscale>  2 0.44781476E+03</rscale>
<asrwt>0</asrwt>
<pdfrwt beam="1">  1       21 0.29371197E-01 0.44781476E+03</pdfrwt>
<pdfrwt beam="2">  1       21 0.36914531E-01 0.44781476E+03</pdfrwt>
<totfact> 0.72951979E+04</totfact>
</mgrwt>
</event>
<event>
 7    0  0.4831799E-002  0.4591981E+03  0.7546771E-02  0.1025014E+00
         21   -1    0    0  502  501  0.00000000000E+00  0.00000000000E+00  0.21078627082E+03  0.21078627082E+03  0.00000000000E+00 0.  1.
         21   -1    0    0  501  502 -0.00000000000E+00 -0.00000000000E+00 -0.25009092625E+03  0.25009092625E+03  0.00000000000E+00 0.  1.
      99926    2    1    2    0    0  0.00000000000E+00 -0.71054273576E-14 -0.39304655424E+02  0.46087719707E+03  0.45919814334E+03 0.  0.
      99925    2    3    3    0    0  0.96385032629E+02  0.51429811409E+02 -0.66555616754E+02  0.29257620774E+03  0.26312751129E+03 0.  0.
         25    1    4    4    0    0  0.44703815988E+02  0.57746340062E+02 -0.82821816595E+01  0.14508333325E+03  0.12509000000E+03 0.  0.
         25    1    4    4    0    0  0.51681216641E+02 -0.63165286534E+01 -0.58273435095E+02  0.14749287449E+03  0.12509000000E+03 0.  0.
         25    1    3    3    0    0 -0.96385032629E+02 -0.51429811409E+02  0.27250961330E+02  0.16830098933E+03  0.12509000000E+03 0.  0.
<mgrwt>
<rscale>  2 0.45919814E+03</rscale>
<asrwt>0</asrwt>
<pdfrwt beam="1">  1       21 0.30997981E-01 0.45919814E+03</pdfrwt>
<pdfrwt beam="2">  1       21 0.36778077E-01 0.45919814E+03</pdfrwt>
<totfact> 0.65882793E+04</totfact>
</mgrwt>
</event>
<event>
 7    0  0.4831799E-002  0.4723693E+03  0.7546771E-02  0.1021254E+00
         21   -1    0    0  502  501  0.00000000000E+00  0.00000000000E+00  0.94104563703E+02  0.94104563703E+02  0.00000000000E+00 0. -1.
         21   -1    0    0  501  502 -0.00000000000E+00 -0.00000000000E+00 -0.59277871181E+03  0.59277871181E+03  0.00000000000E+00 0. -1.
      99926    2    1    2    0    0  0.00000000000E+00  0.14210854715E-13 -0.49867414811E+03  0.68688327552E+03  0.47236927101E+03 0.  0.
      99925    2    3    3    0    0  0.22737389295E+02 -0.80464364177E+02 -0.45147934261E+03  0.52919256387E+03  0.26309631330E+03 0.  0.
         25    1    4    4    0    0  0.50529763181E+02 -0.31971931640E+02 -0.24145494649E+03  0.27843035155E+03  0.12509000000E+03 0.  0.
         25    1    3    3    0    0 -0.22737389295E+02  0.80464364177E+02 -0.47194805497E+02  0.15769071165E+03  0.12509000000E+03 0.  0.
         25    1    4    4    0    0 -0.27792373887E+02 -0.48492432537E+02 -0.21002439612E+03  0.25076221232E+03  0.12509000000E+03 0.  0.
<mgrwt>
<rscale>  2 0.47236927E+03</rscale>
<asrwt>0</asrwt>
<pdfrwt beam="1">  1       21 0.13838906E-01 0.47236927E+03</pdfrwt>
<pdfrwt beam="2">  1       21 0.87173341E-01 0.47236927E+03</pdfrwt>
<totfact> 0.46870102E+04</totfact>
</mgrwt>
</event>
<event>
 7    0  0.4831799E-002  0.4573315E+03  0.7546771E-02  0.1025558E+00
         21   -1    0    0  502  501  0.00000000000E+00  0.00000000000E+00  0.13823893124E+03  0.13823893124E+03  0.00000000000E+00 0. -1.
         21   -1    0    0  501  502 -0.00000000000E+00 -0.00000000000E+00 -0.37824378969E+03  0.37824378969E+03  0.00000000000E+00 0. -1.
      99926    2    1    2    0    0  0.00000000000E+00  0.00000000000E+00 -0.24000485846E+03  0.51648272093E+03  0.45733146507E+03 0.  0.
      99925    2    3    3    0    0  0.41510821511E+02 -0.64758486206E+02 -0.24779572238E+03  0.36942825654E+03  0.26297852928E+03 0.  0.
         25    1    4    4    0    0  0.50133674338E+02 -0.31405748055E+02 -0.89682094853E+02  0.16489418592E+03  0.12509000000E+03 0.  0.
         25    1    4    4    0    0 -0.86228528277E+01 -0.33352738151E+02 -0.15811362753E+03  0.20453407062E+03  0.12509000000E+03 0.  0.
         25    1    3    3    0    0 -0.41510821511E+02  0.64758486206E+02  0.77908639247E+01  0.14705446440E+03  0.12509000000E+03 0.  0.
<mgrwt>
<rscale>  2 0.45733147E+03</rscale>
<asrwt>0</asrwt>
<pdfrwt beam="1">  1       21 0.20329255E-01 0.45733147E+03</pdfrwt>
<pdfrwt beam="2">  1       21 0.55624086E-01 0.45733147E+03</pdfrwt>
<totfact> 0.62954772E+04</totfact>
</mgrwt>
</event>
<event>
 7    0  0.4831799E-002  0.4694154E+03  0.7546771E-02  0.1022085E+00
         21   -1    0    0  502  501  0.00000000000E+00  0.00000000000E+00  0.21261800184E+03  0.21261800184E+03  0.00000000000E+00 0. -1.
         21   -1    0    0  501  502 -0.00000000000E+00 -0.00000000000E+00 -0.25909232934E+03  0.25909232934E+03  0.00000000000E+00 0. -1.
      99926    2    1    2    0    0  0.00000000000E+00  0.71054273576E-14 -0.46474327495E+02  0.47171033118E+03  0.46941535278E+03 0.  0.
      99925    2    3    3    0    0  0.11736904538E+02  0.36746227837E+02 -0.14965047865E+03  0.30503439873E+03  0.26298798159E+03 0.  0.
         25    1    3    3    0    0 -0.11736904538E+02 -0.36746227837E+02  0.10317615116E+03  0.16667593244E+03  0.12509000000E+03 0.  0.
         25    1    4    4    0    0  0.25320414179E+02  0.70955587218E+01 -0.11314599885E+03  0.17070733869E+03  0.12509000000E+03 0.  0.
         25    1    4    4    0    0 -0.13583509641E+02  0.29650669115E+02 -0.36504479800E+02  0.13432706004E+03  0.12509000000E+03 0.  0.
<mgrwt>
<rscale>  2 0.46941535E+03</rscale>
<asrwt>0</asrwt>
<pdfrwt beam="1">  1       21 0.31267353E-01 0.46941535E+03</pdfrwt>
<pdfrwt beam="2">  1       21 0.38101813E-01 0.46941535E+03</pdfrwt>
<totfact> 0.60120523E+04</totfact>
</mgrwt>
</event>
<event>
 7    0  0.4831799E-002  0.4530225E+03  0.7546771E-02  0.1026825E+00
         21   -1    0    0  502  501  0.00000000000E+00  0.00000000000E+00  0.40087708939E+03  0.40087708939E+03  0.00000000000E+00 0.  1.
         21   -1    0    0  501  502 -0.00000000000E+00 -0.00000000000E+00 -0.12798773455E+03  0.12798773455E+03  0.00000000000E+00 0.  1.
      99926    2    1    2    0    0 -0.71054273576E-14 -0.14210854715E-13  0.27288935484E+03  0.52886482393E+03  0.45302251822E+03 0.  0.
      99925    2    3    3    0    0  0.49829146732E+02  0.90942510561E+02  0.21927179926E+03  0.35776299911E+03  0.26298432937E+03 0.  0.
         25    1    3    3    0    0 -0.49829146732E+02 -0.90942510561E+02  0.53617555581E+02  0.17110182482E+03  0.12509000000E+03 0.  0.
         25    1    4    4    0    0  0.41642180643E+02  0.74073422223E+01  0.10158883420E+03  0.16660353916E+03  0.12509000000E+03 0.  0.
         25    1    4    4    0    0  0.81869660891E+01  0.83535168338E+02  0.11768296505E+03  0.19115945995E+03  0.12509000000E+03 0.  0.
<mgrwt>
<rscale>  2 0.45302252E+03</rscale>
<asrwt>0</asrwt>
<pdfrwt beam="1">  1       21 0.58952513E-01 0.45302252E+03</pdfrwt>
<pdfrwt beam="2">  1       21 0.18821726E-01 0.45302252E+03</pdfrwt>
<totfact> 0.64285117E+04</totfact>
</mgrwt>
</event>
<event>
 7    0  0.4831799E-002  0.4558104E+03  0.7546771E-02  0.1026003E+00
         21   -1    0    0  502  501  0.00000000000E+00  0.00000000000E+00  0.15548008799E+03  0.15548008799E+03  0.00000000000E+00 0.  1.
         21   -1    0    0  501  502 -0.00000000000E+00 -0.00000000000E+00 -0.33406705784E+03  0.33406705784E+03  0.00000000000E+00 0.  1.
      99926    2    1    2    0    0  0.14210854715E-13 -0.35527136788E-14 -0.17858696985E+03  0.48954714582E+03  0.45581037964E+03 0.  0.
      99925    2    3    3    0    0  0.95765642878E+02 -0.23743494525E+02 -0.17363951263E+03  0.33015204765E+03  0.26289709457E+03 0.  0.
         25    1    4    4    0    0  0.62036910698E+02  0.17256653838E+02 -0.11679204559E+03  0.18285037709E+03  0.12509000000E+03 0.  0.
         25    1    4    4    0    0  0.33728732180E+02 -0.41000148363E+02 -0.56847467041E+02  0.14730167056E+03  0.12509000000E+03 0.  0.
         25    1    3    3    0    0 -0.95765642878E+02  0.23743494525E+02 -0.49474572223E+01  0.15939509817E+03  0.12509000000E+03 0.  0.
<mgrwt>
<rscale>  2 0.45581038E+03</rscale>
<asrwt>0</asrwt>
<pdfrwt beam="1">  1       21 0.22864719E-01 0.45581038E+03</pdfrwt>
<pdfrwt beam="2">  1       21 0.49127508E-01 0.45581038E+03</pdfrwt>
<totfact> 0.65588461E+04</totfact>
</mgrwt>
</event>
<event>
 7    0  0.4831799E-002  0.4524445E+03  0.7546771E-02  0.1026996E+00
         21   -1    0    0  502  501  0.00000000000E+00  0.00000000000E+00  0.78912953565E+02  0.78912953565E+02  0.00000000000E+00 0.  1.
         21   -1    0    0  501  502 -0.00000000000E+00 -0.00000000000E+00 -0.64851837087E+03  0.64851837087E+03  0.00000000000E+00 0.  1.
      99926    2    1    2    0    0  0.71054273576E-14 -0.35527136788E-14 -0.56960541730E+03  0.72743132443E+03  0.45244447211E+03 0.  0.
      99925    2    3    3    0    0  0.61661522785E+02 -0.25644998234E+02 -0.50236017645E+03  0.57049426748E+03  0.26198884141E+03 0.  0.
         25    1    4    4    0    0  0.28926123660E+02  0.26191310419E+02 -0.23959311421E+03  0.27308437130E+03  0.12509000000E+03 0.  0.
         25    1    3    3    0    0 -0.61661522785E+02  0.25644998234E+02 -0.67245240856E+02  0.15693705695E+03  0.12509000000E+03 0.  0.
         25    1    4    4    0    0  0.32735399125E+02 -0.51836308653E+02 -0.26276706224E+03  0.29740989619E+03  0.12509000000E+03 0.  0.
<mgrwt>
<rscale>  2 0.45244447E+03</rscale>
<asrwt>0</asrwt>
<pdfrwt beam="1">  1       21 0.11604846E-01 0.45244447E+03</pdfrwt>
<pdfrwt beam="2">  1       21 0.95370352E-01 0.45244447E+03</pdfrwt>
<totfact> 0.52485694E+04</totfact>
</mgrwt>
</event>
<event>
 7    0  0.4831799E-002  0.4642455E+03  0.7546771E-02  0.1023557E+00
         21   -1    0    0  502  501  0.00000000000E+00  0.00000000000E+00  0.21099108143E+03  0.21099108143E+03  0.00000000000E+00 0.  1.
         21   -1    0    0  501  502 -0.00000000000E+00 -0.00000000000E+00 -0.25537080748E+03  0.25537080748E+03  0.00000000000E+00 0.  1.
      99926    2    1    2    0    0 -0.71054273576E-14  0.00000000000E+00 -0.44379726054E+02  0.46636188891E+03  0.46424546453E+03 0.  0.
      99925    2    3    3    0    0  0.55686635806E+02  0.86806489837E+02 -0.92505630074E+02  0.29724660626E+03  0.26298647352E+03 0.  0.
         25    1    4    4    0    0  0.61541125828E+02  0.68490358838E+02 -0.41306425029E+02  0.16072326611E+03  0.12509000000E+03 0.  0.
         25    1    3    3    0    0 -0.55686635806E+02 -0.86806489837E+02  0.48125904021E+02  0.16911528264E+03  0.12509000000E+03 0.  0.
         25    1    4    4    0    0 -0.58544900217E+01  0.18316130999E+02 -0.51199205046E+02  0.13652334015E+03  0.12509000000E+03 0.  0.
<mgrwt>
<rscale>  2 0.46424546E+03</rscale>
<asrwt>0</asrwt>
<pdfrwt beam="1">  1       21 0.31028100E-01 0.46424546E+03</pdfrwt>
<pdfrwt beam="2">  1       21 0.37554530E-01 0.46424546E+03</pdfrwt>
<totfact> 0.62948157E+04</totfact>
</mgrwt>
</event>
<event>
 7    0  0.4831799E-002  0.4462798E+03  0.7546771E-02  0.1028837E+00
         21   -1    0    0  502  501  0.00000000000E+00  0.00000000000E+00  0.61149100925E+02  0.61149100925E+02  0.00000000000E+00 0. -1.
         21   -1    0    0  501  502 -0.00000000000E+00 -0.00000000000E+00 -0.81426226511E+03  0.81426226511E+03  0.00000000000E+00 0. -1.
      99926    2    1    2    0    0  0.00000000000E+00  0.00000000000E+00 -0.75311316418E+03  0.87541136603E+03  0.44627975723E+03 0.  0.
      99925    2    3    3    0    0  0.45865483286E+02 -0.33035273943E+02 -0.64996182646E+03  0.70370615803E+03  0.26373662831E+03 0.  0.
         25    1    3    3    0    0 -0.45865483286E+02  0.33035273943E+02 -0.10315133772E+03  0.17170520800E+03  0.12509000000E+03 0.  0.
         25    1    4    4    0    0  0.10215305525E+02 -0.26606805837E+02 -0.42308529336E+03  0.44210965624E+03  0.12509000000E+03 0.  0.
         25    1    4    4    0    0  0.35650177761E+02 -0.64284681062E+01 -0.22687653309E+03  0.26159650178E+03  0.12509000000E+03 0.  0.
<mgrwt>
<rscale>  2 0.44627976E+03</rscale>
<asrwt>0</asrwt>
<pdfrwt beam="1">  1       21 0.89925152E-02 0.44627976E+03</pdfrwt>
<pdfrwt beam="2">  1       21 0.11974445E+00 0.44627976E+03</pdfrwt>
<totfact> 0.47474357E+04</totfact>
</mgrwt>
</event>
<event>
 7    0  0.4831799E-002  0.4587412E+03  0.7546771E-02  0.1025147E+00
         21   -1    0    0  502  501  0.00000000000E+00  0.00000000000E+00  0.18451944745E+03  0.18451944745E+03  0.00000000000E+00 0. -1.
         21   -1    0    0  501  502 -0.00000000000E+00 -0.00000000000E+00 -0.28512369291E+03  0.28512369291E+03  0.00000000000E+00 0. -1.
      99926    2    1    2    0    0  0.00000000000E+00  0.71054273576E-14 -0.10060424546E+03  0.46964314037E+03  0.45874117440E+03 0.  0.
      99925    2    3    3    0    0  0.10436769280E+03 -0.20054083854E+02 -0.11222906355E+03  0.30509094173E+03  0.26304056425E+03 0.  0.
         25    1    3    3    0    0 -0.10436769280E+03  0.20054083854E+02  0.11624818092E+02  0.16455219863E+03  0.12509000000E+03 0.  0.
         25    1    4    4    0    0  0.60794853273E+02 -0.50174821361E+02 -0.58910259102E+02  0.15915858007E+03  0.12509000000E+03 0.  0.
         25    1    4    4    0    0  0.43572839524E+02  0.30120737507E+02 -0.53318804449E+02  0.14593236166E+03  0.12509000000E+03 0.  0.
<mgrwt>
<rscale>  2 0.45874117E+03</rscale>
<asrwt>0</asrwt>
<pdfrwt beam="1">  1       21 0.27135213E-01 0.45874117E+03</pdfrwt>
<pdfrwt beam="2">  1       21 0.41929954E-01 0.45874117E+03</pdfrwt>
<totfact> 0.65497296E+04</totfact>
</mgrwt>
</event>
<event>
 7    0  0.4831799E-002  0.4440596E+03  0.7546771E-02  0.1029508E+00
         21   -1    0    0  502  501  0.00000000000E+00  0.00000000000E+00  0.55643671794E+02  0.55643671794E+02  0.00000000000E+00 0. -1.
         21   -1    0    0  501  502 -0.00000000000E+00 -0.00000000000E+00 -0.88594486102E+03  0.88594486102E+03  0.00000000000E+00 0. -1.
      99926    2    1    2    0    0  0.44408920985E-15  0.00000000000E+00 -0.83030118923E+03  0.94158853282E+03  0.44405956841E+03 0.  0.
      99925    2    3    3    0    0 -0.37811409506E+01 -0.10057269163E+03 -0.48548392170E+03  0.56122604858E+03  0.26296554156E+03 0.  0.
         25    1    3    3    0    0  0.37811409506E+01  0.10057269163E+03 -0.34481726752E+03  0.38036248423E+03  0.12509000000E+03 0.  0.
         25    1    4    4    0    0  0.22381186758E+00 -0.39874454745E+02 -0.15802594912E+03  0.20545006918E+03  0.12509000000E+03 0.  0.
         25    1    4    4    0    0 -0.40049528182E+01 -0.60698236882E+02 -0.32745797259E+03  0.35577597940E+03  0.12509000000E+03 0.  0.
<mgrwt>
<rscale>  2 0.44405957E+03</rscale>
<asrwt>0</asrwt>
<pdfrwt beam="1">  1       21 0.81828929E-02 0.44405957E+03</pdfrwt>
<pdfrwt beam="2">  1       21 0.13028601E+00 0.44405957E+03</pdfrwt>
<totfact> 0.45230947E+04</totfact>
</mgrwt>
</event>
<event>
 7    0  0.4831799E-002  0.4551561E+03  0.7546771E-02  0.1026195E+00
         21   -1    0    0  502  501  0.00000000000E+00  0.00000000000E+00  0.32844019306E+03  0.32844019306E+03  0.00000000000E+00 0. -1.
         21   -1    0    0  501  502 -0.00000000000E+00 -0.00000000000E+00 -0.15769013609E+03  0.15769013609E+03  0.00000000000E+00 0. -1.
      99926    2    1    2    0    0 -0.35527136788E-14  0.00000000000E+00  0.17075005697E+03  0.48613032915E+03  0.45515614349E+03 0.  0.
      99925    2    3    3    0    0 -0.23437831882E+02 -0.45279403904E+02  0.21564037579E+03  0.34378495618E+03  0.26284552126E+03 0.  0.
         25    1    4    4    0    0 -0.38240752549E+02 -0.18373330805E+02  0.14774407073E+03  0.19818111155E+03  0.12509000000E+03 0.  0.
         25    1    4    4    0    0  0.14802920667E+02 -0.26906073099E+02  0.67896305057E+02  0.14560384463E+03  0.12509000000E+03 0.  0.
         25    1    3    3    0    0  0.23437831882E+02  0.45279403904E+02 -0.44890318819E+02  0.14234537297E+03  0.12509000000E+03 0.  0.
<mgrwt>
<rscale>  2 0.45515614E+03</rscale>
<asrwt>0</asrwt>
<pdfrwt beam="1">  1       21 0.48300028E-01 0.45515614E+03</pdfrwt>
<pdfrwt beam="2">  1       21 0.23189726E-01 0.45515614E+03</pdfrwt>
<totfact> 0.66174432E+04</totfact>
</mgrwt>
</event>
<event>
 7    0  0.4831799E-002  0.4409882E+03  0.7546771E-02  0.1030444E+00
         21   -1    0    0  502  501  0.00000000000E+00  0.00000000000E+00  0.83224415043E+03  0.83224415043E+03  0.00000000000E+00 0.  1.
         21   -1    0    0  501  502 -0.00000000000E+00 -0.00000000000E+00 -0.58417540019E+02  0.58417540019E+02  0.00000000000E+00 0.  1.
      99926    2    1    2    0    0  0.00000000000E+00  0.00000000000E+00  0.77382661042E+03  0.89066169045E+03  0.44098823550E+03 0.  0.
      99925    2    3    3    0    0  0.53895580552E+02  0.76542212328E+02  0.55953336385E+03  0.62545884828E+03  0.26335858020E+03 0.  0.
         25    1    3    3    0    0 -0.53895580552E+02 -0.76542212328E+02  0.21429324657E+03  0.26520284217E+03  0.12509000000E+03 0.  0.
         25    1    4    4    0    0  0.16450512188E+02 -0.17144299216E+01  0.22627500046E+03  0.25907806266E+03  0.12509000000E+03 0.  0.
         25    1    4    4    0    0  0.37445068364E+02  0.78256642250E+02  0.33325836339E+03  0.36638078562E+03  0.12509000000E+03 0.  0.
<mgrwt>
<rscale>  2 0.44098824E+03</rscale>
<asrwt>0</asrwt>
<pdfrwt beam="1">  1       21 0.12238884E+00 0.44098824E+03</pdfrwt>
<pdfrwt beam="2">  1       21 0.85908152E-02 0.44098824E+03</pdfrwt>
<totfact> 0.48773507E+04</totfact>
</mgrwt>
</event>
<event>
 7    0  0.4831799E-002  0.4580212E+03  0.7546771E-02  0.1025357E+00
         21   -1    0    0  502  501  0.00000000000E+00  0.00000000000E+00  0.25777725076E+03  0.25777725076E+03  0.00000000000E+00 0.  1.
         21   -1    0    0  501  502 -0.00000000000E+00 -0.00000000000E+00 -0.20345415264E+03  0.20345415264E+03  0.00000000000E+00 0.  1.
      99926    2    1    2    0    0  0.00000000000E+00  0.00000000000E+00  0.54323098118E+02  0.46123140340E+03  0.45802118783E+03 0.  0.
      99925    2    3    3    0    0 -0.48373256045E+02 -0.96095745827E+01  0.13976875397E+03  0.30191792617E+03  0.26303386423E+03 0.  0.
         25    1    4    4    0    0  0.51892385142E+01 -0.61675955833E+01  0.99286103527E+02  0.15990686629E+03  0.12509000000E+03 0.  0.
         25    1    3    3    0    0  0.48373256045E+02  0.96095745827E+01 -0.85445655854E+02  0.15931347723E+03  0.12509000000E+03 0.  0.
         25    1    4    4    0    0 -0.53562494559E+02 -0.34419789993E+01  0.40482650445E+02  0.14201105989E+03  0.12509000000E+03 0.  0.
<mgrwt>
<rscale>  2 0.45802119E+03</rscale>
<asrwt>0</asrwt>
<pdfrwt beam="1">  1       21 0.37908420E-01 0.45802119E+03</pdfrwt>
<pdfrwt beam="2">  1       21 0.29919728E-01 0.45802119E+03</pdfrwt>
<totfact> 0.66474732E+04</totfact>
</mgrwt>
</event>
<event>
 7    0  0.4831799E-002  0.4162552E+03  0.7546771E-02  0.1038292E+00
         21   -1    0    0  502  501  0.00000000000E+00  0.00000000000E+00  0.96341063656E+02  0.96341063656E+02  0.00000000000E+00 0.  1.
         21   -1    0    0  501  502 -0.00000000000E+00 -0.00000000000E+00 -0.44962246603E+03  0.44962246603E+03  0.00000000000E+00 0.  1.
      99926    2    1    2    0    0 -0.71054273576E-14  0.00000000000E+00 -0.35328140238E+03  0.54596352969E+03  0.41625524199E+03 0.  0.
      99925    2    3    3    0    0 -0.48479067846E+02  0.16317057297E+02 -0.16643007935E+03  0.31536129337E+03  0.26293974151E+03 0.  0.
         25    1    3    3    0    0  0.48479067846E+02 -0.16317057297E+02 -0.18685132302E+03  0.23060223632E+03  0.12509000000E+03 0.  0.
         25    1    4    4    0    0 -0.36477385180E+01  0.42604160265E+02 -0.88537408294E+02  0.15910625769E+03  0.12509000000E+03 0.  0.
         25    1    4    4    0    0 -0.44831329328E+02 -0.26287102968E+02 -0.77892671057E+02  0.15625503568E+03  0.12509000000E+03 0.  0.
<mgrwt>
<rscale>  2 0.41625524E+03</rscale>
<asrwt>0</asrwt>
<pdfrwt beam="1">  1       21 0.14167804E-01 0.41625524E+03</pdfrwt>
<pdfrwt beam="2">  1       21 0.66120950E-01 0.41625524E+03</pdfrwt>
<totfact> 0.85476519E+04</totfact>
</mgrwt>
</event>
<event>
 7    0  0.4831799E-002  0.4609363E+03  0.7546771E-02  0.1024510E+00
         21   -1    0    0  502  501  0.00000000000E+00  0.00000000000E+00  0.10809889748E+03  0.10809889748E+03  0.00000000000E+00 0.  1.
         21   -1    0    0  501  502 -0.00000000000E+00 -0.00000000000E+00 -0.49136086606E+03  0.49136086606E+03  0.00000000000E+00 0.  1.
      99926    2    1    2    0    0  0.00000000000E+00  0.00000000000E+00 -0.38326196858E+03  0.59945976354E+03  0.46093629878E+03 0.  0.
      99925    2    3    3    0    0  0.21808225745E+02  0.69796989895E+02 -0.36166483150E+03  0.45296347369E+03  0.26273035539E+03 0.  0.
         25    1    3    3    0    0 -0.21808225745E+02 -0.69796989895E+02 -0.21597137086E+02  0.14649628985E+03  0.12509000000E+03 0.  0.
         25    1    4    4    0    0  0.45305446272E+02  0.49416753335E+02 -0.16278727676E+03  0.21596713765E+03  0.12509000000E+03 0.  0.
         25    1    4    4    0    0 -0.23497220527E+02  0.20380236560E+02 -0.19887755474E+03  0.23699633603E+03  0.12509000000E+03 0.  0.
<mgrwt>
<rscale>  2 0.46093630E+03</rscale>
<asrwt>0</asrwt>
<pdfrwt beam="1">  1       21 0.15896897E-01 0.46093630E+03</pdfrwt>
<pdfrwt beam="2">  1       21 0.72258950E-01 0.46093630E+03</pdfrwt>
<totfact> 0.56036448E+04</totfact>
</mgrwt>
</event>
<event>
 7    0  0.4831799E-002  0.4663106E+03  0.7546771E-02  0.1022967E+00
         21   -1    0    0  502  501  0.00000000000E+00  0.00000000000E+00  0.10381860237E+03  0.10381860237E+03  0.00000000000E+00 0. -1.
         21   -1    0    0  501  502 -0.00000000000E+00 -0.00000000000E+00 -0.52361898302E+03  0.52361898302E+03  0.00000000000E+00 0. -1.
      99926    2    1    2    0    0  0.00000000000E+00  0.17763568394E-14 -0.41980038065E+03  0.62743758539E+03  0.46631058745E+03 0.  0.
      99925    2    3    3    0    0 -0.12279469548E+03  0.12262217215E+02 -0.27561309594E+03  0.40013518686E+03  0.26251988477E+03 0.  0.
         25    1    4    4    0    0 -0.40779226845E+02  0.26008114176E+02 -0.90723589824E+02  0.16191863758E+03  0.12509000000E+03 0.  0.
         25    1    3    3    0    0  0.12279469548E+03 -0.12262217215E+02 -0.14418728471E+03  0.22730239854E+03  0.12509000000E+03 0.  0.
         25    1    4    4    0    0 -0.82015468632E+02 -0.13745896961E+02 -0.18488950611E+03  0.23821654928E+03  0.12509000000E+03 0.  0.
<mgrwt>
<rscale>  2 0.46631059E+03</rscale>
<asrwt>0</asrwt>
<pdfrwt beam="1">  1       21 0.15267442E-01 0.46631059E+03</pdfrwt>
<pdfrwt beam="2">  1       21 0.77002791E-01 0.46631059E+03</pdfrwt>
<totfact> 0.52200352E+04</totfact>
</mgrwt>
</event>
<event>
 6    0  0.4831799E-002  0.4440741E+03  0.7546771E-02  0.1029504E+00
         21   -1    0    0  502  501  0.00000000000E+00  0.00000000000E+00  0.56001493525E+03  0.56001493525E+03  0.00000000000E+00 0. -1.
         21   -1    0    0  501  502 -0.00000000000E+00 -0.00000000000E+00 -0.88034187739E+02  0.88034187739E+02  0.00000000000E+00 0. -1.
      99926    2    1    2    0    0  0.00000000000E+00  0.00000000000E+00  0.47198074751E+03  0.64804912298E+03  0.44407413771E+03 0.  0.
         25    1    3    3    0    0  0.75896132721E+01 -0.22875704021E+01  0.10006790431E+03  0.16038680987E+03  0.12509000000E+03 0.  0.
         25    1    3    3    0    0 -0.29336693460E+02  0.70572063464E+02  0.92736546236E+02  0.17346075300E+03  0.12509000000E+03 0.  0.
         25    1    3    3    0    0  0.21747080188E+02 -0.68284493062E+02  0.27917629696E+03  0.31420156011E+03  0.12509000000E+03 0.  0.
<mgrwt>
<rscale>  2 0.44407414E+03</rscale>
<asrwt>0</asrwt>
<pdfrwt beam="1">  1       21 0.82355136E-01 0.44407414E+03</pdfrwt>
<pdfrwt beam="2">  1       21 0.12946204E-01 0.44407414E+03</pdfrwt>
<totfact> 0.60895368E+04</totfact>
</mgrwt>
</event>
<event>
 7    0  0.4831799E-002  0.4982214E+03  0.7546771E-02  0.1014244E+00
         21   -1    0    0  502  501  0.00000000000E+00  0.00000000000E+00  0.28972366314E+03  0.28972366314E+03  0.00000000000E+00 0.  1.
         21   -1    0    0  501  502 -0.00000000000E+00 -0.00000000000E+00 -0.21419081274E+03  0.21419081274E+03  0.00000000000E+00 0.  1.
      99926    2    1    2    0    0  0.14210854715E-13  0.71054273576E-14  0.75532850406E+02  0.50391447588E+03  0.49822142418E+03 0.  0.
      99925    2    3    3    0    0 -0.10373313358E+03 -0.49569536361E+02 -0.51360799344E+02  0.29185974619E+03  0.26329921724E+03 0.  0.
         25    1    4    4    0    0 -0.89398442414E+02 -0.15768542931E+02 -0.91466516669E+01  0.15482860779E+03  0.12509000000E+03 0.  0.
         25    1    4    4    0    0 -0.14334691168E+02 -0.33800993430E+02 -0.42214147677E+02  0.13703113840E+03  0.12509000000E+03 0.  0.
         25    1    3    3    0    0  0.10373313358E+03  0.49569536361E+02  0.12689364975E+03  0.21205472969E+03  0.12509000000E+03 0.  0.
<mgrwt>
<rscale>  2 0.49822142E+03</rscale>
<asrwt>0</asrwt>
<pdfrwt beam="1">  1       21 0.42606421E-01 0.49822142E+03</pdfrwt>
<pdfrwt beam="2">  1       21 0.31498649E-01 0.49822142E+03</pdfrwt>
<totfact> 0.46762345E+04</totfact>
</mgrwt>
</event>
<event>
 7    0  0.4831799E-002  0.4500484E+03  0.7546771E-02  0.1027708E+00
         21   -1    0    0  502  501  0.00000000000E+00  0.00000000000E+00  0.71343508568E+03  0.71343508568E+03  0.00000000000E+00 0.  1.
         21   -1    0    0  501  502 -0.00000000000E+00 -0.00000000000E+00 -0.70974775867E+02  0.70974775867E+02  0.00000000000E+00 0.  1.
      99926    2    1    2    0    0  0.88817841970E-15 -0.88817841970E-15  0.64246030981E+03  0.78440986155E+03  0.45004842096E+03 0.  0.
      99925    2    3    3    0    0  0.35822280320E+01 -0.43076222731E+01  0.21738165983E+03  0.34127246216E+03  0.26302227934E+03 0.  0.
         25    1    4    4    0    0 -0.10343258394E+02  0.10061831069E+02  0.15607521839E+03  0.20053729163E+03  0.12509000000E+03 0.  0.
         25    1    4    4    0    0  0.13925486426E+02 -0.14369453342E+02  0.61306441440E+02  0.14073517053E+03  0.12509000000E+03 0.  0.
         25    1    3    3    0    0 -0.35822280320E+01  0.43076222731E+01  0.42507864998E+03  0.44313739939E+03  0.12509000000E+03 0.  0.
<mgrwt>
<rscale>  2 0.45004842E+03</rscale>
<asrwt>0</asrwt>
<pdfrwt beam="1">  1       21 0.10491692E+00 0.45004842E+03</pdfrwt>
<pdfrwt beam="2">  1       21 0.10437467E-01 0.45004842E+03</pdfrwt>
<totfact> 0.50460907E+04</totfact>
</mgrwt>
</event>
<event>
 7    0  0.4831799E-002  0.4017136E+03  0.7546771E-02  0.1043188E+00
         21   -1    0    0  502  501  0.00000000000E+00  0.00000000000E+00  0.17743742891E+02  0.17743742891E+02  0.00000000000E+00 0.  1.
         21   -1    0    0  501  502 -0.00000000000E+00 -0.00000000000E+00 -0.22736719094E+04  0.22736719094E+04  0.00000000000E+00 0.  1.
      99926    2    1    2    0    0 -0.71054273576E-14  0.17763568394E-14 -0.22559281665E+04  0.22914156523E+04  0.40171357846E+03 0.  0.
      99925    2    3    3    0    0  0.45694449420E+02 -0.12851867346E+02 -0.15093857044E+04  0.15329788988E+04  0.26367773198E+03 0.  0.
         25    1    3    3    0    0 -0.45694449420E+02  0.12851867346E+02 -0.74654246212E+03  0.75843675350E+03  0.12509000000E+03 0.  0.
         25    1    4    4    0    0  0.53313213104E+02  0.20556864396E+02 -0.83184072658E+03  0.84313189114E+03  0.12509000000E+03 0.  0.
         25    1    4    4    0    0 -0.76187636834E+01 -0.33408731741E+02 -0.67754497783E+03  0.68984700768E+03  0.12509000000E+03 0.  0.
<mgrwt>
<rscale>  2 0.40171358E+03</rscale>
<asrwt>0</asrwt>
<pdfrwt beam="1">  1       21 0.26093742E-02 0.40171358E+03</pdfrwt>
<pdfrwt beam="2">  1       21 0.33436348E+00 0.40171358E+03</pdfrwt>
<totfact> 0.14729755E+04</totfact>
</mgrwt>
</event>
<event>
 7    0  0.4831799E-002  0.4577193E+03  0.7546771E-02  0.1025445E+00
         21   -1    0    0  502  501  0.00000000000E+00  0.00000000000E+00  0.19906053398E+04  0.19906053398E+04  0.00000000000E+00 0. -1.
         21   -1    0    0  501  502 -0.00000000000E+00 -0.00000000000E+00 -0.26311971273E+02  0.26311971273E+02  0.00000000000E+00 0. -1.
      99926    2    1    2    0    0 -0.14210854715E-13  0.14210854715E-13  0.19642933686E+04  0.20169173111E+04  0.45771934859E+03 0.  0.
      99925    2    3    3    0    0  0.75241966438E+02 -0.86092964442E+02  0.11791980231E+04  0.12137388991E+04  0.26378170014E+03 0.  0.
         25    1    3    3    0    0 -0.75241966438E+02  0.86092964442E+02  0.78509534545E+03  0.80317841205E+03  0.12509000000E+03 0.  0.
         25    1    4    4    0    0  0.66038578204E+02 -0.78176408893E+02  0.64072301078E+03  0.66079204699E+03  0.12509000000E+03 0.  0.
         25    1    4    4    0    0  0.92033882347E+01 -0.79165555489E+01  0.53847501234E+03  0.55294685208E+03  0.12509000000E+03 0.  0.
<mgrwt>
<rscale>  2 0.45771935E+03</rscale>
<asrwt>0</asrwt>
<pdfrwt beam="1">  1       21 0.29273598E+00 0.45771935E+03</pdfrwt>
<pdfrwt beam="2">  1       21 0.38694089E-02 0.45771935E+03</pdfrwt>
<totfact> 0.13155521E+04</totfact>
</mgrwt>
</event>
<event>
 7    0  0.4831799E-002  0.4416150E+03  0.7546771E-02  0.1030252E+00
         21   -1    0    0  502  501  0.00000000000E+00  0.00000000000E+00  0.22890547319E+03  0.22890547319E+03  0.00000000000E+00 0.  1.
         21   -1    0    0  501  502 -0.00000000000E+00 -0.00000000000E+00 -0.21299603422E+03  0.21299603422E+03  0.00000000000E+00 0.  1.
      99926    2    1    2    0    0  0.00000000000E+00  0.00000000000E+00  0.15909438970E+02  0.44190150740E+03  0.44161502691E+03 0.  0.
      99925    2    3    3    0    0 -0.24353873814E+02  0.37270578712E+02  0.99860268982E+02  0.28481090562E+03  0.26298853860E+03 0.  0.
         25    1    4    4    0    0  0.52025249163E+01  0.14314287278E+02  0.88011930943E+02  0.15370612601E+03  0.12509000000E+03 0.  0.
         25    1    3    3    0    0  0.24353873814E+02 -0.37270578712E+02 -0.83950830012E+02  0.15709060178E+03  0.12509000000E+03 0.  0.
         25    1    4    4    0    0 -0.29556398731E+02  0.22956291434E+02  0.11848338040E+02  0.13110477961E+03  0.12509000000E+03 0.  0.
<mgrwt>
<rscale>  2 0.44161503E+03</rscale>
<asrwt>0</asrwt>
<pdfrwt beam="1">  1       21 0.33662570E-01 0.44161503E+03</pdfrwt>
<pdfrwt beam="2">  1       21 0.31322946E-01 0.44161503E+03</pdfrwt>
<totfact> 0.77464554E+04</totfact>
</mgrwt>
</event>
<event>
 7    0  0.4831799E-002  0.4431229E+03  0.7546771E-02  0.1029793E+00
         21   -1    0    0  502  501  0.00000000000E+00  0.00000000000E+00  0.17611070380E+02  0.17611070380E+02  0.00000000000E+00 0. -1.
         21   -1    0    0  501  502 -0.00000000000E+00 -0.00000000000E+00 -0.27874209978E+04  0.27874209978E+04  0.00000000000E+00 0. -1.
      99926    2    1    2    0    0  0.71054273576E-14 -0.71054273576E-14 -0.27698099274E+04  0.28050320682E+04  0.44312286048E+03 0.  0.
      99925    2    3    3    0    0  0.48950007385E+02 -0.36878261411E+02 -0.22755446536E+04  0.22915130535E+04  0.26300664375E+03 0.  0.
         25    1    3    3    0    0 -0.48950007385E+02  0.36878261411E+02 -0.49426527387E+03  0.51351901468E+03  0.12509000000E+03 0.  0.
         25    1    4    4    0    0  0.71829048949E+01 -0.41198335278E+02 -0.13818089249E+04  0.13880894459E+04  0.12509000000E+03 0.  0.
         25    1    4    4    0    0  0.41767102490E+02  0.43200738663E+01 -0.89373572870E+03  0.90342360759E+03  0.12509000000E+03 0.  0.
<mgrwt>
<rscale>  2 0.44312286E+03</rscale>
<asrwt>0</asrwt>
<pdfrwt beam="1">  1       21 0.25898675E-02 0.44312286E+03</pdfrwt>
<pdfrwt beam="2">  1       21 0.40991419E+00 0.44312286E+03</pdfrwt>
<totfact> 0.49270961E+03</totfact>
</mgrwt>
</event>
<event>
 7    0  0.4831799E-002  0.4563932E+03  0.7546771E-02  0.1025833E+00
         21   -1    0    0  502  501  0.00000000000E+00  0.00000000000E+00  0.53089109752E+03  0.53089109752E+03  0.00000000000E+00 0.  1.
         21   -1    0    0  501  502 -0.00000000000E+00 -0.00000000000E+00 -0.98087320820E+02  0.98087320820E+02  0.00000000000E+00 0.  1.
      99926    2    1    2    0    0  0.00000000000E+00  0.00000000000E+00  0.43280377670E+03  0.62897841834E+03  0.45639318752E+03 0.  0.
      99925    2    3    3    0    0 -0.70320924719E+02 -0.53544769912E+02  0.37304972703E+03  0.46456999584E+03  0.26238732317E+03 0.  0.
         25    1    4    4    0    0 -0.73176157434E+02 -0.20154146358E+02  0.17757546135E+03  0.23009018277E+03  0.12509000000E+03 0.  0.
         25    1    3    3    0    0  0.70320924719E+02  0.53544769912E+02  0.59754049677E+02  0.16440842251E+03  0.12509000000E+03 0.  0.
         25    1    4    4    0    0  0.28552327145E+01 -0.33390623554E+02  0.19547426568E+03  0.23447981307E+03  0.12509000000E+03 0.  0.
<mgrwt>
<rscale>  2 0.45639319E+03</rscale>
<asrwt>0</asrwt>
<pdfrwt beam="1">  1       21 0.78072219E-01 0.45639319E+03</pdfrwt>
<pdfrwt beam="2">  1       21 0.14424606E-01 0.45639319E+03</pdfrwt>
<totfact> 0.56307252E+04</totfact>
</mgrwt>
</event>
<event>
 7    0  0.4831799E-002  0.4566429E+03  0.7546771E-02  0.1025759E+00
         21   -1    0    0  502  501  0.00000000000E+00  0.00000000000E+00  0.11520054985E+03  0.11520054985E+03  0.00000000000E+00 0.  1.
         21   -1    0    0  501  502 -0.00000000000E+00 -0.00000000000E+00 -0.45252121644E+03  0.45252121644E+03  0.00000000000E+00 0.  1.
      99926    2    1    2    0    0  0.35527136788E-14  0.00000000000E+00 -0.33732066659E+03  0.56772176629E+03  0.45664293689E+03 0.  0.
      99925    2    3    3    0    0 -0.31825460113E+02  0.10533634698E+03 -0.25228358585E+03  0.38067252382E+03  0.26297520187E+03 0.  0.
         25    1    4    4    0    0  0.82559585505E+01  0.61725175015E+02 -0.16842847504E+03  0.21884656129E+03  0.12509000000E+03 0.  0.
         25    1    4    4    0    0 -0.40081418663E+02  0.43611171962E+02 -0.83855110810E+02  0.16182596254E+03  0.12509000000E+03 0.  0.
         25    1    3    3    0    0  0.31825460113E+02 -0.10533634698E+03 -0.85037080741E+02  0.18704924246E+03  0.12509000000E+03 0.  0.
<mgrwt>
<rscale>  2 0.45664294E+03</rscale>
<asrwt>0</asrwt>
<pdfrwt beam="1">  1       21 0.16941257E-01 0.45664294E+03</pdfrwt>
<pdfrwt beam="2">  1       21 0.66547238E-01 0.45664294E+03</pdfrwt>
<totfact> 0.59927969E+04</totfact>
</mgrwt>
</event>
<event>
 7    0  0.4831799E-002  0.4539142E+03  0.7546771E-02  0.1026561E+00
         21   -1    0    0  502  501  0.00000000000E+00  0.00000000000E+00  0.56928891052E+02  0.56928891052E+02  0.00000000000E+00 0. -1.
         21   -1    0    0  501  502 -0.00000000000E+00 -0.00000000000E+00 -0.90480476312E+03  0.90480476312E+03  0.00000000000E+00 0. -1.
      99926    2    1    2    0    0  0.00000000000E+00  0.00000000000E+00 -0.84787587207E+03  0.96173365417E+03  0.45391422883E+03 0.  0.
      99925    2    3    3    0    0 -0.37404032893E+02  0.92019448892E+02 -0.42327537074E+03  0.50808209793E+03  0.26290442772E+03 0.  0.
         25    1    4    4    0    0  0.16805350483E+01  0.77427748758E+02 -0.19241806219E+03  0.24221911410E+03  0.12509000000E+03 0.  0.
         25    1    3    3    0    0  0.37404032893E+02 -0.92019448892E+02 -0.42460050134E+03  0.45365155625E+03  0.12509000000E+03 0.  0.
         25    1    4    4    0    0 -0.39084567941E+02  0.14591700134E+02 -0.23085730854E+03  0.26586298383E+03  0.12509000000E+03 0.  0.
<mgrwt>
<rscale>  2 0.45391423E+03</rscale>
<asrwt>0</asrwt>
<pdfrwt beam="1">  1       21 0.83718961E-02 0.45391423E+03</pdfrwt>
<pdfrwt beam="2">  1       21 0.13305952E+00 0.45391423E+03</pdfrwt>
<totfact> 0.41016421E+04</totfact>
</mgrwt>
</event>
<event>
 7    0  0.4831799E-002  0.4551737E+03  0.7546771E-02  0.1026190E+00
         21   -1    0    0  502  501  0.00000000000E+00  0.00000000000E+00  0.15994326882E+03  0.15994326882E+03  0.00000000000E+00 0.  1.
         21   -1    0    0  501  502 -0.00000000000E+00 -0.00000000000E+00 -0.32383844210E+03  0.32383844210E+03  0.00000000000E+00 0.  1.
      99926    2    1    2    0    0  0.00000000000E+00  0.71054273576E-14 -0.16389517328E+03  0.48378171092E+03  0.45517372067E+03 0.  0.
      99925    2    3    3    0    0 -0.87824874600E+02 -0.56346459928E+02 -0.56054191570E+02  0.28842225355E+03  0.26297755001E+03 0.  0.
         25    1    4    4    0    0 -0.79578081795E+02 -0.18106429833E+02 -0.48911977322E+02  0.15716362025E+03  0.12509000000E+03 0.  0.
         25    1    4    4    0    0 -0.82467928054E+01 -0.38240030094E+02 -0.71422142476E+01  0.13125863331E+03  0.12509000000E+03 0.  0.
         25    1    3    3    0    0  0.87824874600E+02  0.56346459928E+02 -0.10784098171E+03  0.19535945736E+03  0.12509000000E+03 0.  0.
<mgrwt>
<rscale>  2 0.45517372E+03</rscale>
<asrwt>0</asrwt>
<pdfrwt beam="1">  1       21 0.23521069E-01 0.45517372E+03</pdfrwt>
<pdfrwt beam="2">  1       21 0.47623300E-01 0.45517372E+03</pdfrwt>
<totfact> 0.66334313E+04</totfact>
</mgrwt>
</event>
<event>
 7    0  0.4831799E-002  0.4489316E+03  0.7546771E-02  0.1028041E+00
         21   -1    0    0  502  501  0.00000000000E+00  0.00000000000E+00  0.54032940485E+02  0.54032940485E+02  0.00000000000E+00 0. -1.
         21   -1    0    0  501  502 -0.00000000000E+00 -0.00000000000E+00 -0.93248493406E+03  0.93248493406E+03  0.00000000000E+00 0. -1.
      99926    2    1    2    0    0  0.00000000000E+00  0.00000000000E+00 -0.87845199358E+03  0.98651787455E+03  0.44893163375E+03 0.  0.
      99925    2    3    3    0    0 -0.36090657131E+02  0.43251546919E+01 -0.77779706125E+03  0.82189659403E+03  0.26310549273E+03 0.  0.
         25    1    3    3    0    0  0.36090657131E+02 -0.43251546919E+01 -0.10065493233E+03  0.16462128051E+03  0.12509000000E+03 0.  0.
         25    1    4    4    0    0 -0.52473204966E+02  0.11723433822E+02 -0.46535077494E+03  0.48486052425E+03  0.12509000000E+03 0.  0.
         25    1    4    4    0    0  0.16382547835E+02 -0.73982791296E+01 -0.31244628631E+03  0.33703606979E+03  0.12509000000E+03 0.  0.
<mgrwt>
<rscale>  2 0.44893163E+03</rscale>
<asrwt>0</asrwt>
<pdfrwt beam="1">  1       21 0.79460209E-02 0.44893163E+03</pdfrwt>
<pdfrwt beam="2">  1       21 0.13713013E+00 0.44893163E+03</pdfrwt>
<totfact> 0.41633964E+04</totfact>
</mgrwt>
</event>
<event>
 7    0  0.4831799E-002  0.4542989E+03  0.7546771E-02  0.1026448E+00
         21   -1    0    0  502  501  0.00000000000E+00  0.00000000000E+00  0.22353634123E+03  0.22353634123E+03  0.00000000000E+00 0.  1.
         21   -1    0    0  501  502 -0.00000000000E+00 -0.00000000000E+00 -0.23082099073E+03  0.23082099073E+03  0.00000000000E+00 0.  1.
      99926    2    1    2    0    0  0.00000000000E+00  0.00000000000E+00 -0.72846495012E+01  0.45435733196E+03  0.45429893131E+03 0.  0.
      99925    2    3    3    0    0  0.45344783404E+02 -0.76734339665E+02  0.63864759111E+02  0.28508224605E+03  0.26315180275E+03 0.  0.
         25    1    4    4    0    0  0.58253939222E+02 -0.53269062354E+02  0.17195859018E+02  0.14891044324E+03  0.12509000000E+03 0.  0.
         25    1    3    3    0    0 -0.45344783404E+02  0.76734339665E+02 -0.71149408612E+02  0.16927508592E+03  0.12509000000E+03 0.  0.
         25    1    4    4    0    0 -0.12909155819E+02 -0.23465277311E+02  0.46668900093E+02  0.13617180280E+03  0.12509000000E+03 0.  0.
<mgrwt>
<rscale>  2 0.45429893E+03</rscale>
<asrwt>0</asrwt>
<pdfrwt beam="1">  1       21 0.32872991E-01 0.45429893E+03</pdfrwt>
<pdfrwt beam="2">  1       21 0.33944263E-01 0.45429893E+03</pdfrwt>
<totfact> 0.68977942E+04</totfact>
</mgrwt>
</event>
<event>
 7    0  0.4831799E-002  0.4433277E+03  0.7546771E-02  0.1029731E+00
         21   -1    0    0  502  501  0.00000000000E+00  0.00000000000E+00  0.11342126691E+04  0.11342126691E+04  0.00000000000E+00 0.  1.
         21   -1    0    0  501  502 -0.00000000000E+00 -0.00000000000E+00 -0.43320674972E+02  0.43320674972E+02  0.00000000000E+00 0.  1.
      99926    2    1    2    0    0  0.35527136788E-14  0.00000000000E+00  0.10908919941E+04  0.11775333440E+04  0.44332768190E+03 0.  0.
      99925    2    3    3    0    0  0.25194003826E+02 -0.21386085007E+02  0.94991260767E+03  0.98618340817E+03  0.26292898256E+03 0.  0.
         25    1    4    4    0    0 -0.18766103541E+02 -0.15877715852E+02  0.37225186139E+03  0.39347582506E+03  0.12509000000E+03 0.  0.
         25    1    3    3    0    0 -0.25194003826E+02  0.21386085007E+02  0.14097938641E+03  0.19134993586E+03  0.12509000000E+03 0.  0.
         25    1    4    4    0    0  0.43960107367E+02 -0.55083691554E+01  0.57766074628E+03  0.59270758310E+03  0.12509000000E+03 0.  0.
<mgrwt>
<rscale>  2 0.44332768E+03</rscale>
<asrwt>0</asrwt>
<pdfrwt beam="1">  1       21 0.16679596E+00 0.44332768E+03</pdfrwt>
<pdfrwt beam="2">  1       21 0.63706882E-02 0.44332768E+03</pdfrwt>
<totfact> 0.36044462E+04</totfact>
</mgrwt>
</event>
<event>
 7    0  0.4831799E-002  0.4549982E+03  0.7546771E-02  0.1026242E+00
         21   -1    0    0  502  501  0.00000000000E+00  0.00000000000E+00  0.32240900587E+03  0.32240900587E+03  0.00000000000E+00 0.  1.
         21   -1    0    0  501  502 -0.00000000000E+00 -0.00000000000E+00 -0.16052852865E+03  0.16052852865E+03  0.00000000000E+00 0.  1.
      99926    2    1    2    0    0 -0.71054273576E-14  0.00000000000E+00  0.16188047722E+03  0.48293753452E+03  0.45499821246E+03 0.  0.
      99925    2    3    3    0    0  0.46406618329E+02  0.94793108465E+02  0.14519018709E+03  0.31842193793E+03  0.26300766622E+03 0.  0.
         25    1    4    4    0    0  0.13643686167E+02  0.38549391237E+02  0.11374395170E+03  0.17394654462E+03  0.12509000000E+03 0.  0.
         25    1    3    3    0    0 -0.46406618329E+02 -0.94793108465E+02  0.16690290130E+02  0.16451559659E+03  0.12509000000E+03 0.  0.
         25    1    4    4    0    0  0.32762932162E+02  0.56243717228E+02  0.31446235392E+02  0.14447539331E+03  0.12509000000E+03 0.  0.
<mgrwt>
<rscale>  2 0.45499821E+03</rscale>
<asrwt>0</asrwt>
<pdfrwt beam="1">  1       21 0.47413089E-01 0.45499821E+03</pdfrwt>
<pdfrwt beam="2">  1       21 0.23607137E-01 0.45499821E+03</pdfrwt>
<totfact> 0.66487829E+04</totfact>
</mgrwt>
</event>
<event>
 7    0  0.4831799E-002  0.4576377E+03  0.7546771E-02  0.1025469E+00
         21   -1    0    0  502  501  0.00000000000E+00  0.00000000000E+00  0.63583015952E+03  0.63583015952E+03  0.00000000000E+00 0.  1.
         21   -1    0    0  501  502 -0.00000000000E+00 -0.00000000000E+00 -0.82345992031E+02  0.82345992031E+02  0.00000000000E+00 0.  1.
      99926    2    1    2    0    0  0.00000000000E+00  0.00000000000E+00  0.55348416749E+03  0.71817615155E+03  0.45763769621E+03 0.  0.
      99925    2    3    3    0    0 -0.49644807411E+02  0.44529109011E+02  0.19957444745E+03  0.33693207423E+03  0.26314599393E+03 0.  0.
         25    1    4    4    0    0 -0.33615120158E+02  0.62178470589E+02  0.11539828284E+03  0.18428350521E+03  0.12509000000E+03 0.  0.
         25    1    3    3    0    0  0.49644807411E+02 -0.44529109011E+02  0.35390972004E+03  0.38124407732E+03  0.12509000000E+03 0.  0.
         25    1    4    4    0    0 -0.16029687253E+02 -0.17649361578E+02  0.84176164603E+02  0.15264856902E+03  0.12509000000E+03 0.  0.
<mgrwt>
<rscale>  2 0.45763770E+03</rscale>
<asrwt>0</asrwt>
<pdfrwt beam="1">  1       21 0.93504433E-01 0.45763770E+03</pdfrwt>
<pdfrwt beam="2">  1       21 0.12109705E-01 0.45763770E+03</pdfrwt>
<totfact> 0.50863663E+04</totfact>
</mgrwt>
</event>
<event>
 7    0  0.4831799E-002  0.4497135E+03  0.7546771E-02  0.1027807E+00
         21   -1    0    0  502  501  0.00000000000E+00  0.00000000000E+00  0.16606677102E+03  0.16606677102E+03  0.00000000000E+00 0. -1.
         21   -1    0    0  501  502 -0.00000000000E+00 -0.00000000000E+00 -0.30445927422E+03  0.30445927422E+03  0.00000000000E+00 0. -1.
      99926    2    1    2    0    0  0.00000000000E+00  0.00000000000E+00 -0.13839250320E+03  0.47052604524E+03  0.44971354694E+03 0.  0.
      99925    2    3    3    0    0  0.46912647656E+02 -0.97078894302E+02 -0.81972912910E+02  0.29601018207E+03  0.26320592928E+03 0.  0.
         25    1    4    4    0    0  0.37439107629E+02 -0.64532181428E+02 -0.59788125064E+01  0.14577154564E+03  0.12509000000E+03 0.  0.
         25    1    3    3    0    0 -0.46912647656E+02  0.97078894302E+02 -0.56419590290E+02  0.17451586317E+03  0.12509000000E+03 0.  0.
         25    1    4    4    0    0  0.94735400277E+01 -0.32546712874E+02 -0.75994100403E+02  0.15023863643E+03  0.12509000000E+03 0.  0.
<mgrwt>
<rscale>  2 0.44971355E+03</rscale>
<asrwt>0</asrwt>
<pdfrwt beam="1">  1       21 0.24421584E-01 0.44971355E+03</pdfrwt>
<pdfrwt beam="2">  1       21 0.44773422E-01 0.44971355E+03</pdfrwt>
<totfact> 0.70299552E+04</totfact>
</mgrwt>
</event>
<event>
 7    0  0.4831799E-002  0.4509341E+03  0.7546771E-02  0.1027444E+00
         21   -1    0    0  502  501  0.00000000000E+00  0.00000000000E+00  0.57135539423E+02  0.57135539423E+02  0.00000000000E+00 0. -1.
         21   -1    0    0  501  502 -0.00000000000E+00 -0.00000000000E+00 -0.88973340568E+03  0.88973340568E+03  0.00000000000E+00 0. -1.
      99926    2    1    2    0    0  0.00000000000E+00  0.00000000000E+00 -0.83259786626E+03  0.94686894511E+03  0.45093413300E+03 0.  0.
      99925    2    3    3    0    0 -0.10750433540E+03  0.18752676517E+02 -0.51208388734E+03  0.58591802906E+03  0.26298514046E+03 0.  0.
         25    1    4    4    0    0 -0.46141385178E+02  0.23443156511E+02 -0.32928252217E+03  0.35602401115E+03  0.12509000000E+03 0.  0.
         25    1    3    3    0    0  0.10750433540E+03 -0.18752676517E+02 -0.32051397892E+03  0.36095091604E+03  0.12509000000E+03 0.  0.
         25    1    4    4    0    0 -0.61362950223E+02 -0.46904799937E+01 -0.18280136517E+03  0.22989401791E+03  0.12509000000E+03 0.  0.
<mgrwt>
<rscale>  2 0.45093413E+03</rscale>
<asrwt>0</asrwt>
<pdfrwt beam="1">  1       21 0.84022859E-02 0.45093413E+03</pdfrwt>
<pdfrwt beam="2">  1       21 0.13084314E+00 0.45093413E+03</pdfrwt>
<totfact> 0.42606480E+04</totfact>
</mgrwt>
</event>
<event>
 7    0  0.4831799E-002  0.4533732E+03  0.7546771E-02  0.1026721E+00
         21   -1    0    0  502  501  0.00000000000E+00  0.00000000000E+00  0.28868630562E+03  0.28868630562E+03  0.00000000000E+00 0.  1.
         21   -1    0    0  501  502 -0.00000000000E+00 -0.00000000000E+00 -0.17800228487E+03  0.17800228487E+03  0.00000000000E+00 0.  1.
      99926    2    1    2    0    0  0.00000000000E+00  0.00000000000E+00  0.11068402075E+03  0.46668859049E+03  0.45337323260E+03 0.  0.
      99925    2    3    3    0    0 -0.10093128194E+03 -0.38001691034E+02  0.99612827094E+02  0.30115511465E+03  0.26294568937E+03 0.  0.
         25    1    4    4    0    0 -0.33009957984E+02 -0.42423150439E+02  0.78584464130E+02  0.15720180381E+03  0.12509000000E+03 0.  0.
         25    1    4    4    0    0 -0.67921323955E+02  0.44214594053E+01  0.21028362964E+02  0.14395331083E+03  0.12509000000E+03 0.  0.
         25    1    3    3    0    0  0.10093128194E+03  0.38001691034E+02  0.11071193656E+02  0.16553347584E+03  0.12509000000E+03 0.  0.
<mgrwt>
<rscale>  2 0.45337323E+03</rscale>
<asrwt>0</asrwt>
<pdfrwt beam="1">  1       21 0.42453869E-01 0.45337323E+03</pdfrwt>
<pdfrwt beam="2">  1       21 0.26176806E-01 0.45337323E+03</pdfrwt>
<totfact> 0.68563400E+04</totfact>
</mgrwt>
</event>
<event>
 7    0  0.4831799E-002  0.4852936E+03  0.7546771E-02  0.1017690E+00
         21   -1    0    0  502  501  0.00000000000E+00  0.00000000000E+00  0.15562651180E+03  0.15562651180E+03  0.00000000000E+00 0.  1.
         21   -1    0    0  501  502 -0.00000000000E+00 -0.00000000000E+00 -0.37832546771E+03  0.37832546771E+03  0.00000000000E+00 0.  1.
      99926    2    1    2    0    0  0.00000000000E+00 -0.35527136788E-14 -0.22269895591E+03  0.53395197952E+03  0.48529361367E+03 0.  0.
      99925    2    3    3    0    0  0.13660287368E+03 -0.28108909850E+02 -0.12843796172E+03  0.32423049984E+03  0.26301834747E+03 0.  0.
         25    1    4    4    0    0  0.72875184638E+02  0.23437828783E+02 -0.79847748459E+02  0.16698291945E+03  0.12509000000E+03 0.  0.
         25    1    4    4    0    0  0.63727689041E+02 -0.51546738634E+02 -0.48590213258E+02  0.15724758039E+03  0.12509000000E+03 0.  0.
         25    1    3    3    0    0 -0.13660287368E+03  0.28108909850E+02 -0.94260994195E+02  0.20972147968E+03  0.12509000000E+03 0.  0.
<mgrwt>
<rscale>  2 0.48529361E+03</rscale>
<asrwt>0</asrwt>
<pdfrwt beam="1">  1       21 0.22886252E-01 0.48529361E+03</pdfrwt>
<pdfrwt beam="2">  1       21 0.55636098E-01 0.48529361E+03</pdfrwt>
<totfact> 0.49843898E+04</totfact>
</mgrwt>
</event>
<event>
 7    0  0.4831799E-002  0.4583667E+03  0.7546771E-02  0.1025256E+00
         21   -1    0    0  502  501  0.00000000000E+00  0.00000000000E+00  0.17208972377E+03  0.17208972377E+03  0.00000000000E+00 0.  1.
         21   -1    0    0  501  502 -0.00000000000E+00 -0.00000000000E+00 -0.30521879449E+03  0.30521879449E+03  0.00000000000E+00 0.  1.
      99926    2    1    2    0    0 -0.14210854715E-13  0.14210854715E-13 -0.13312907072E+03  0.47730851827E+03  0.45836674415E+03 0.  0.
      99925    2    3    3    0    0 -0.82823958775E+02  0.81770602843E+02 -0.79472016722E+02  0.29821963759E+03  0.26281725813E+03 0.  0.
         25    1    3    3    0    0  0.82823958775E+02 -0.81770602843E+02 -0.53657053995E+02  0.17908888067E+03  0.12509000000E+03 0.  0.
         25    1    4    4    0    0 -0.61263686771E+02  0.36947791055E+02 -0.45868846787E+01  0.14417671862E+03  0.12509000000E+03 0.  0.
         25    1    4    4    0    0 -0.21560272004E+02  0.44822811789E+02 -0.74885132043E+02  0.15404291898E+03  0.12509000000E+03 0.  0.
<mgrwt>
<rscale>  2 0.45836674E+03</rscale>
<asrwt>0</asrwt>
<pdfrwt beam="1">  1       21 0.25307312E-01 0.45836674E+03</pdfrwt>
<pdfrwt beam="2">  1       21 0.44885117E-01 0.45836674E+03</pdfrwt>
<totfact> 0.65138682E+04</totfact>
</mgrwt>
</event>
<event>
 7    0  0.4831799E-002  0.4602036E+03  0.7546771E-02  0.1024722E+00
         21   -1    0    0  502  501  0.00000000000E+00  0.00000000000E+00  0.20188916250E+03  0.20188916250E+03  0.00000000000E+00 0. -1.
         21   -1    0    0  501  502 -0.00000000000E+00 -0.00000000000E+00 -0.26225700727E+03  0.26225700727E+03  0.00000000000E+00 0. -1.
      99926    2    1    2    0    0  0.00000000000E+00 -0.13322676296E-14 -0.60367844779E+02  0.46414616977E+03  0.46020363996E+03 0.  0.
      99925    2    3    3    0    0 -0.88280654055E+02  0.12121673506E+01  0.40578826747E+02  0.28075401666E+03  0.26340317663E+03 0.  0.
         25    1    3    3    0    0  0.88280654055E+02 -0.12121673506E+01 -0.10094667153E+03  0.18339215311E+03  0.12509000000E+03 0.  0.
         25    1    4    4    0    0 -0.82754102457E+02  0.18307412959E+02  0.15245538245E+02  0.15186618247E+03  0.12509000000E+03 0.  0.
         25    1    4    4    0    0 -0.55265515983E+01 -0.17095245608E+02  0.25333288503E+02  0.12888783419E+03  0.12509000000E+03 0.  0.
<mgrwt>
<rscale>  2 0.46020364E+03</rscale>
<asrwt>0</asrwt>
<pdfrwt beam="1">  1       21 0.29689583E-01 0.46020364E+03</pdfrwt>
<pdfrwt beam="2">  1       21 0.38567207E-01 0.46020364E+03</pdfrwt>
<totfact> 0.65134233E+04</totfact>
</mgrwt>
</event>
<event>
 7    0  0.4831799E-002  0.4537043E+03  0.7546771E-02  0.1026623E+00
         21   -1    0    0  502  501  0.00000000000E+00  0.00000000000E+00  0.16261177874E+03  0.16261177874E+03  0.00000000000E+00 0. -1.
         21   -1    0    0  501  502 -0.00000000000E+00 -0.00000000000E+00 -0.31647085280E+03  0.31647085280E+03  0.00000000000E+00 0. -1.
      99926    2    1    2    0    0  0.00000000000E+00  0.00000000000E+00 -0.15385907406E+03  0.47908263154E+03  0.45370425739E+03 0.  0.
      99925    2    3    3    0    0 -0.74342591461E+02 -0.46416274902E+02 -0.17051016036E+03  0.32543999991E+03  0.26297564008E+03 0.  0.
         25    1    4    4    0    0 -0.54907595269E+02 -0.24681098419E+02 -0.45198452306E+02  0.14599455068E+03  0.12509000000E+03 0.  0.
         25    1    3    3    0    0  0.74342591461E+02  0.46416274902E+02  0.16651086302E+02  0.15364263164E+03  0.12509000000E+03 0.  0.
         25    1    4    4    0    0 -0.19434996192E+02 -0.21735176483E+02 -0.12531170805E+03  0.17944544923E+03  0.12509000000E+03 0.  0.
<mgrwt>
<rscale>  2 0.45370426E+03</rscale>
<asrwt>0</asrwt>
<pdfrwt beam="1">  1       21 0.23913497E-01 0.45370426E+03</pdfrwt>
<pdfrwt beam="2">  1       21 0.46539831E-01 0.45370426E+03</pdfrwt>
<totfact> 0.67458064E+04</totfact>
</mgrwt>
</event>
<event>
 7    0  0.4831799E-002  0.4451388E+03  0.7546771E-02  0.1029182E+00
         21   -1    0    0  502  501  0.00000000000E+00  0.00000000000E+00  0.78759452204E+02  0.78759452204E+02  0.00000000000E+00 0. -1.
         21   -1    0    0  501  502 -0.00000000000E+00 -0.00000000000E+00 -0.62896743981E+03  0.62896743981E+03  0.00000000000E+00 0. -1.
      99926    2    1    2    0    0  0.00000000000E+00  0.00000000000E+00 -0.55020798761E+03  0.70772689202E+03  0.44513876944E+03 0.  0.
      99925    2    3    3    0    0  0.10033439595E+03 -0.23921061567E+02 -0.36474996519E+03  0.46139095396E+03  0.26305867614E+03 0.  0.
         25    1    4    4    0    0  0.82743895798E+01 -0.13833255985E+02 -0.14620835068E+03  0.19309120747E+03  0.12509000000E+03 0.  0.
         25    1    3    3    0    0 -0.10033439595E+03  0.23921061567E+02 -0.18545802242E+03  0.24633593806E+03  0.12509000000E+03 0.  0.
         25    1    4    4    0    0  0.92060006373E+02 -0.10087805582E+02 -0.21854161451E+03  0.26829974649E+03  0.12509000000E+03 0.  0.
<mgrwt>
<rscale>  2 0.44513877E+03</rscale>
<asrwt>0</asrwt>
<pdfrwt beam="1">  1       21 0.11582272E-01 0.44513877E+03</pdfrwt>
<pdfrwt beam="2">  1       21 0.92495213E-01 0.44513877E+03</pdfrwt>
<totfact> 0.56763048E+04</totfact>
</mgrwt>
</event>
<event>
 7    0  0.4831799E-002  0.4438641E+03  0.7546771E-02  0.1029568E+00
         21   -1    0    0  502  501  0.00000000000E+00  0.00000000000E+00  0.36031205409E+03  0.36031205409E+03  0.00000000000E+00 0. -1.
         21   -1    0    0  501  502 -0.00000000000E+00 -0.00000000000E+00 -0.13669773601E+03  0.13669773601E+03  0.00000000000E+00 0. -1.
      99926    2    1    2    0    0  0.00000000000E+00 -0.71054273576E-14  0.22361431808E+03  0.49700979009E+03  0.44386413259E+03 0.  0.
      99925    2    3    3    0    0  0.80318523569E+02  0.60587454159E+02  0.16253148540E+03  0.32525262029E+03  0.26315561638E+03 0.  0.
         25    1    4    4    0    0  0.73968278571E+02  0.57894235008E+02  0.88274946307E+02  0.17961910513E+03  0.12509000000E+03 0.  0.
         25    1    4    4    0    0  0.63502449981E+01  0.26932191513E+01  0.74256539093E+02  0.14563351516E+03  0.12509000000E+03 0.  0.
         25    1    3    3    0    0 -0.80318523569E+02 -0.60587454159E+02  0.61082832678E+02  0.17175716980E+03  0.12509000000E+03 0.  0.
<mgrwt>
<rscale>  2 0.44386413E+03</rscale>
<asrwt>0</asrwt>
<pdfrwt beam="1">  1       21 0.52987067E-01 0.44386413E+03</pdfrwt>
<pdfrwt beam="2">  1       21 0.20102608E-01 0.44386413E+03</pdfrwt>
<totfact> 0.71604171E+04</totfact>
</mgrwt>
</event>
<event>
 7    0  0.4831799E-002  0.4625707E+03  0.7546771E-02  0.1024038E+00
         21   -1    0    0  502  501  0.00000000000E+00  0.00000000000E+00  0.72004714338E+03  0.72004714338E+03  0.00000000000E+00 0. -1.
         21   -1    0    0  501  502 -0.00000000000E+00 -0.00000000000E+00 -0.74290860769E+02  0.74290860769E+02  0.00000000000E+00 0. -1.
      99926    2    1    2    0    0  0.00000000000E+00  0.00000000000E+00  0.64575628261E+03  0.79433800415E+03  0.46257073870E+03 0.  0.
      99925    2    3    3    0    0  0.10711379373E+03  0.28522938495E+02  0.32403768861E+03  0.43179520026E+03  0.26298241101E+03 0.  0.
         25    1    3    3    0    0 -0.10711379373E+03 -0.28522938495E+02  0.32171859400E+03  0.36254280389E+03  0.12509000000E+03 0.  0.
         25    1    4    4    0    0  0.30310159832E+02 -0.78678941875E+01  0.10866787486E+03  0.16863221719E+03  0.12509000000E+03 0.  0.
         25    1    4    4    0    0  0.76803633896E+02  0.36390832683E+02  0.21536981375E+03  0.26316298307E+03  0.12509000000E+03 0.  0.
<mgrwt>
<rscale>  2 0.46257074E+03</rscale>
<asrwt>0</asrwt>
<pdfrwt beam="1">  1       21 0.10588928E+00 0.46257074E+03</pdfrwt>
<pdfrwt beam="2">  1       21 0.10925127E-01 0.46257074E+03</pdfrwt>
<totfact> 0.45288491E+04</totfact>
</mgrwt>
</event>
<event>
 7    0  0.4831799E-002  0.4490400E+03  0.7546771E-02  0.1028009E+00
         21   -1    0    0  502  501  0.00000000000E+00  0.00000000000E+00  0.52216759298E+02  0.52216759298E+02  0.00000000000E+00 0. -1.
         21   -1    0    0  501  502 -0.00000000000E+00 -0.00000000000E+00 -0.96538394601E+03  0.96538394601E+03  0.00000000000E+00 0. -1.
      99926    2    1    2    0    0  0.00000000000E+00 -0.17763568394E-14 -0.91316718672E+03  0.10176007053E+04  0.44903995875E+03 0.  0.
      99925    2    3    3    0    0 -0.81657493047E+02 -0.11213185455E+02 -0.73420991104E+03  0.78421926578E+03  0.26294862932E+03 0.  0.
         25    1    4    4    0    0 -0.15779060790E+02 -0.31454941959E+02 -0.40582124309E+03  0.42611827181E+03  0.12509000000E+03 0.  0.
         25    1    3    3    0    0  0.81657493047E+02  0.11213185455E+02 -0.17895727568E+03  0.23338143953E+03  0.12509000000E+03 0.  0.
         25    1    4    4    0    0 -0.65878432257E+02  0.20241756504E+02 -0.32838866795E+03  0.35810099397E+03  0.12509000000E+03 0.  0.
<mgrwt>
<rscale>  2 0.44903996E+03</rscale>
<asrwt>0</asrwt>
<pdfrwt beam="1">  1       21 0.76789362E-02 0.44903996E+03</pdfrwt>
<pdfrwt beam="2">  1       21 0.14196821E+00 0.44903996E+03</pdfrwt>
<totfact> 0.40333625E+04</totfact>
</mgrwt>
</event>
<event>
 7    0  0.4831799E-002  0.4559913E+03  0.7546771E-02  0.1025950E+00
         21   -1    0    0  502  501  0.00000000000E+00  0.00000000000E+00  0.30391608399E+02  0.30391608399E+02  0.00000000000E+00 0. -1.
         21   -1    0    0  501  502 -0.00000000000E+00 -0.00000000000E+00 -0.17104070665E+04  0.17104070665E+04  0.00000000000E+00 0. -1.
      99926    2    1    2    0    0  0.00000000000E+00  0.00000000000E+00 -0.16800154581E+04  0.17407986749E+04  0.45599132347E+03 0.  0.
      99925    2    3    3    0    0 -0.93572118982E+01 -0.74942762513E+02 -0.72911672011E+03  0.77873844130E+03  0.26290377202E+03 0.  0.
         25    1    4    4    0    0 -0.21298813817E+02 -0.61119913982E+02 -0.30052475815E+03  0.33189143061E+03  0.12509000000E+03 0.  0.
         25    1    4    4    0    0  0.11941601919E+02 -0.13822848531E+02 -0.42859196196E+03  0.44684701069E+03  0.12509000000E+03 0.  0.
         25    1    3    3    0    0  0.93572118982E+01  0.74942762513E+02 -0.95089873803E+03  0.96206023364E+03  0.12509000000E+03 0.  0.
<mgrwt>
<rscale>  2 0.45599132E+03</rscale>
<asrwt>0</asrwt>
<pdfrwt beam="1">  1       21 0.44693539E-02 0.45599132E+03</pdfrwt>
<pdfrwt beam="2">  1       21 0.25153046E+00 0.45599132E+03</pdfrwt>
<totfact> 0.18284120E+04</totfact>
</mgrwt>
</event>
<event>
 7    0  0.4831799E-002  0.4427617E+03  0.7546771E-02  0.1029903E+00
         21   -1    0    0  502  501  0.00000000000E+00  0.00000000000E+00  0.95293785340E+03  0.95293785340E+03  0.00000000000E+00 0. -1.
         21   -1    0    0  501  502 -0.00000000000E+00 -0.00000000000E+00 -0.51429887538E+02  0.51429887538E+02  0.00000000000E+00 0. -1.
      99926    2    1    2    0    0 -0.17763568394E-14  0.00000000000E+00  0.90150796587E+03  0.10043677409E+04  0.44276172658E+03 0.  0.
      99925    2    3    3    0    0  0.44115205719E+01  0.98567452955E+02  0.52242882183E+03  0.59317008794E+03  0.26302827804E+03 0.  0.
         25    1    3    3    0    0 -0.44115205719E+01 -0.98567452955E+02  0.37907914403E+03  0.41119765301E+03  0.12509000000E+03 0.  0.
         25    1    4    4    0    0 -0.24817817982E+02  0.68736187145E+02  0.22223325616E+03  0.26528421694E+03  0.12509000000E+03 0.  0.
         25    1    4    4    0    0  0.29229338554E+02  0.29831265810E+02  0.30019556567E+03  0.32788587100E+03  0.12509000000E+03 0.  0.
<mgrwt>
<rscale>  2 0.44276173E+03</rscale>
<asrwt>0</asrwt>
<pdfrwt beam="1">  1       21 0.14013791E+00 0.44276173E+03</pdfrwt>
<pdfrwt beam="2">  1       21 0.75632194E-02 0.44276173E+03</pdfrwt>
<totfact> 0.42958422E+04</totfact>
</mgrwt>
</event>
<event>
 7    0  0.4831799E-002  0.4351203E+03  0.7546771E-02  0.1032255E+00
         21   -1    0    0  502  501  0.00000000000E+00  0.00000000000E+00  0.92660464657E+02  0.92660464657E+02  0.00000000000E+00 0. -1.
         21   -1    0    0  501  502 -0.00000000000E+00 -0.00000000000E+00 -0.51081558857E+03  0.51081558857E+03  0.00000000000E+00 0. -1.
      99926    2    1    2    0    0  0.14210854715E-13  0.00000000000E+00 -0.41815512391E+03  0.60347605322E+03  0.43512025828E+03 0.  0.
      99925    2    3    3    0    0  0.76002284296E+02  0.65317201308E+01 -0.19318532195E+03  0.33500272032E+03  0.26284452328E+03 0.  0.
         25    1    3    3    0    0 -0.76002284296E+02 -0.65317201308E+01 -0.22496980196E+03  0.26847333290E+03  0.12509000000E+03 0.  0.
         25    1    4    4    0    0  0.59502848189E+02  0.53517930214E+01 -0.58549334288E+02  0.15048177058E+03  0.12509000000E+03 0.  0.
         25    1    4    4    0    0  0.16499436107E+02  0.11799271094E+01 -0.13463598767E+03  0.18452094975E+03  0.12509000000E+03 0.  0.
<mgrwt>
<rscale>  2 0.43512026E+03</rscale>
<asrwt>0</asrwt>
<pdfrwt beam="1">  1       21 0.13626539E-01 0.43512026E+03</pdfrwt>
<pdfrwt beam="2">  1       21 0.75119940E-01 0.43512026E+03</pdfrwt>
<totfact> 0.68623182E+04</totfact>
</mgrwt>
</event>
<event>
 7    0  0.4831799E-002  0.4569801E+03  0.7546771E-02  0.1025661E+00
         21   -1    0    0  502  501  0.00000000000E+00  0.00000000000E+00  0.11716841168E+03  0.11716841168E+03  0.00000000000E+00 0. -1.
         21   -1    0    0  501  502 -0.00000000000E+00 -0.00000000000E+00 -0.44557828023E+03  0.44557828023E+03  0.00000000000E+00 0. -1.
      99926    2    1    2    0    0 -0.17763568394E-14  0.00000000000E+00 -0.32840986854E+03  0.56274669191E+03  0.45698008436E+03 0.  0.
      99925    2    3    3    0    0 -0.97700926273E+01  0.38654200568E+02 -0.33920745066E+03  0.43101325724E+03  0.26290897930E+03 0.  0.
         25    1    4    4    0    0 -0.40366788326E+02  0.53139736996E+01 -0.14704372461E+03  0.19729947026E+03  0.12509000000E+03 0.  0.
         25    1    4    4    0    0  0.30596695699E+02  0.33340226868E+02 -0.19216372605E+03  0.23371378698E+03  0.12509000000E+03 0.  0.
         25    1    3    3    0    0  0.97700926273E+01 -0.38654200568E+02  0.10797582117E+02  0.13173343467E+03  0.12509000000E+03 0.  0.
<mgrwt>
<rscale>  2 0.45698008E+03</rscale>
<asrwt>0</asrwt>
<pdfrwt beam="1">  1       21 0.17230649E-01 0.45698008E+03</pdfrwt>
<pdfrwt beam="2">  1       21 0.65526217E-01 0.45698008E+03</pdfrwt>
<totfact> 0.60085423E+04</totfact>
</mgrwt>
</event>
<event>
 7    0  0.4831799E-002  0.4546507E+03  0.7546771E-02  0.1026344E+00
         21   -1    0    0  502  501  0.00000000000E+00  0.00000000000E+00  0.10833816017E+03  0.10833816017E+03  0.00000000000E+00 0. -1.
         21   -1    0    0  501  502 -0.00000000000E+00 -0.00000000000E+00 -0.47699550548E+03  0.47699550548E+03  0.00000000000E+00 0. -1.
      99926    2    1    2    0    0  0.00000000000E+00  0.00000000000E+00 -0.36865734531E+03  0.58533366565E+03  0.45465070318E+03 0.  0.
      99925    2    3    3    0    0 -0.10362955876E+03  0.42490540463E+02 -0.24902374308E+03  0.37916810510E+03  0.26308001792E+03 0.  0.
         25    1    4    4    0    0 -0.68863906439E+02  0.29205265139E+02 -0.82102094212E+02  0.16728253673E+03  0.12509000000E+03 0.  0.
         25    1    4    4    0    0 -0.34765652317E+02  0.13285275324E+02 -0.16692164887E+03  0.21188556837E+03  0.12509000000E+03 0.  0.
         25    1    3    3    0    0  0.10362955876E+03 -0.42490540463E+02 -0.11963360223E+03  0.20616556055E+03  0.12509000000E+03 0.  0.
<mgrwt>
<rscale>  2 0.45465070E+03</rscale>
<asrwt>0</asrwt>
<pdfrwt beam="1">  1       21 0.15932082E-01 0.45465070E+03</pdfrwt>
<pdfrwt beam="2">  1       21 0.70146398E-01 0.45465070E+03</pdfrwt>
<totfact> 0.59755036E+04</totfact>
</mgrwt>
</event>
<event>
 7    0  0.4831799E-002  0.4580373E+03  0.7546771E-02  0.1025352E+00
         21   -1    0    0  502  501  0.00000000000E+00  0.00000000000E+00  0.20657986369E+04  0.20657986369E+04  0.00000000000E+00 0.  1.
         21   -1    0    0  501  502 -0.00000000000E+00 -0.00000000000E+00 -0.25389478854E+02  0.25389478854E+02  0.00000000000E+00 0.  1.
      99926    2    1    2    0    0 -0.26645352591E-14  0.14210854715E-13  0.20404091580E+04  0.20911881157E+04  0.45803733825E+03 0.  0.
      99925    2    3    3    0    0  0.42345330004E+01 -0.10386664564E+03  0.15188893385E+04  0.15448945668E+04  0.26242749203E+03 0.  0.
         25    1    4    4    0    0 -0.19522619142E+02 -0.53676880736E+02  0.57976453172E+03  0.59584961234E+03  0.12509000000E+03 0.  0.
         25    1    3    3    0    0 -0.42345330004E+01  0.10386664564E+03  0.52151981949E+03  0.54629354890E+03  0.12509000000E+03 0.  0.
         25    1    4    4    0    0  0.23757152142E+02 -0.50189764908E+02  0.93912480680E+03  0.94904495448E+03  0.12509000000E+03 0.  0.
<mgrwt>
<rscale>  2 0.45803734E+03</rscale>
<asrwt>0</asrwt>
<pdfrwt beam="1">  1       21 0.30379380E+00 0.45803734E+03</pdfrwt>
<pdfrwt beam="2">  1       21 0.37337483E-02 0.45803734E+03</pdfrwt>
<totfact> 0.11992281E+04</totfact>
</mgrwt>
</event>
<event>
 7    0  0.4831799E-002  0.4562875E+03  0.7546771E-02  0.1025863E+00
         21   -1    0    0  502  501  0.00000000000E+00  0.00000000000E+00  0.15253371520E+03  0.15253371520E+03  0.00000000000E+00 0.  1.
         21   -1    0    0  501  502 -0.00000000000E+00 -0.00000000000E+00 -0.34123318215E+03  0.34123318215E+03  0.00000000000E+00 0.  1.
      99926    2    1    2    0    0  0.66613381478E-15 -0.71054273576E-14 -0.18869946695E+03  0.49376689734E+03  0.45628747526E+03 0.  0.
      99925    2    3    3    0    0  0.37806786638E+00 -0.40995498693E+02 -0.30305496748E+01  0.26616806432E+03  0.26297429606E+03 0.  0.
         25    1    4    4    0    0 -0.13797314754E+02 -0.58523773345E+02  0.42358402372E+01  0.13885549461E+03  0.12509000000E+03 0.  0.
         25    1    3    3    0    0 -0.37806786638E+00  0.40995498693E+02 -0.18566891728E+03  0.22759883302E+03  0.12509000000E+03 0.  0.
         25    1    4    4    0    0  0.14175382621E+02  0.17528274652E+02 -0.72663899121E+01  0.12731256971E+03  0.12509000000E+03 0.  0.
<mgrwt>
<rscale>  2 0.45628748E+03</rscale>
<asrwt>0</asrwt>
<pdfrwt beam="1">  1       21 0.22431429E-01 0.45628748E+03</pdfrwt>
<pdfrwt beam="2">  1       21 0.50181349E-01 0.45628748E+03</pdfrwt>
<totfact> 0.65043464E+04</totfact>
</mgrwt>
</event>
<event>
 7    0  0.4831799E-002  0.4381876E+03  0.7546771E-02  0.1031304E+00
         21   -1    0    0  502  501  0.00000000000E+00  0.00000000000E+00  0.14094071666E+03  0.14094071666E+03  0.00000000000E+00 0. -1.
         21   -1    0    0  501  502 -0.00000000000E+00 -0.00000000000E+00 -0.34058352148E+03  0.34058352148E+03  0.00000000000E+00 0. -1.
      99926    2    1    2    0    0  0.00000000000E+00  0.00000000000E+00 -0.19964280482E+03  0.48152423813E+03  0.43818756531E+03 0.  0.
      99925    2    3    3    0    0 -0.19939606486E+02 -0.85007285890E+02 -0.82485504518E+02  0.28917775993E+03  0.26305150033E+03 0.  0.
         25    1    4    4    0    0 -0.32883229311E+02 -0.71154344422E+02 -0.23105931543E+02  0.14941766854E+03  0.12509000000E+03 0.  0.
         25    1    4    4    0    0  0.12943622825E+02 -0.13852941468E+02 -0.59379572974E+02  0.13976009139E+03  0.12509000000E+03 0.  0.
         25    1    3    3    0    0  0.19939606486E+02  0.85007285890E+02 -0.11715730030E+03  0.19234647820E+03  0.12509000000E+03 0.  0.
<mgrwt>
<rscale>  2 0.43818757E+03</rscale>
<asrwt>0</asrwt>
<pdfrwt beam="1">  1       21 0.20726576E-01 0.43818757E+03</pdfrwt>
<pdfrwt beam="2">  1       21 0.50085811E-01 0.43818757E+03</pdfrwt>
<totfact> 0.76271930E+04</totfact>
</mgrwt>
</event>
<event>
 7    0  0.4831799E-002  0.4610581E+03  0.7546771E-02  0.1024475E+00
         21   -1    0    0  502  501  0.00000000000E+00  0.00000000000E+00  0.10057515320E+04  0.10057515320E+04  0.00000000000E+00 0. -1.
         21   -1    0    0  501  502 -0.00000000000E+00 -0.00000000000E+00 -0.52839726968E+02  0.52839726968E+02  0.00000000000E+00 0. -1.
      99926    2    1    2    0    0  0.00000000000E+00  0.00000000000E+00  0.95291180505E+03  0.10585912590E+04  0.46105807161E+03 0.  0.
      99925    2    3    3    0    0 -0.77302712440E+02 -0.66426729156E+02  0.45717828879E+03  0.53725888234E+03  0.26314805569E+03 0.  0.
         25    1    3    3    0    0  0.77302712440E+02  0.66426729156E+02  0.49573351626E+03  0.52133237664E+03  0.12509000000E+03 0.  0.
         25    1    4    4    0    0 -0.24008325548E+02 -0.65804922604E+02  0.27264342977E+03  0.30803998999E+03  0.12509000000E+03 0.  0.
         25    1    4    4    0    0 -0.53294386892E+02 -0.62180655196E+00  0.18453485902E+03  0.22921889236E+03  0.12509000000E+03 0.  0.
<mgrwt>
<rscale>  2 0.46105807E+03</rscale>
<asrwt>0</asrwt>
<pdfrwt beam="1">  1       21 0.14790462E+00 0.46105807E+03</pdfrwt>
<pdfrwt beam="2">  1       21 0.77705487E-02 0.46105807E+03</pdfrwt>
<totfact> 0.35266550E+04</totfact>
</mgrwt>
</event>
<event>
 7    0  0.4831799E-002  0.4502129E+03  0.7546771E-02  0.1027659E+00
         21   -1    0    0  502  501  0.00000000000E+00  0.00000000000E+00  0.51732571497E+02  0.51732571497E+02  0.00000000000E+00 0. -1.
         21   -1    0    0  501  502 -0.00000000000E+00 -0.00000000000E+00 -0.97951650459E+03  0.97951650459E+03  0.00000000000E+00 0. -1.
      99926    2    1    2    0    0  0.71054273576E-14  0.71054273576E-14 -0.92778393310E+03  0.10312490761E+04  0.45021287234E+03 0.  0.
      99925    2    3    3    0    0  0.40356696936E+02  0.52455459882E+02 -0.38891063202E+03  0.47410261333E+03  0.26294784655E+03 0.  0.
         25    1    4    4    0    0  0.43380049085E+02  0.32422943437E+02 -0.25866379942E+03  0.29238253222E+03  0.12509000000E+03 0.  0.
         25    1    4    4    0    0 -0.30233521487E+01  0.20032516445E+02 -0.13024683261E+03  0.18172008111E+03  0.12509000000E+03 0.  0.
         25    1    3    3    0    0 -0.40356696936E+02 -0.52455459882E+02 -0.53887330107E+03  0.55714646276E+03  0.12509000000E+03 0.  0.
<mgrwt>
<rscale>  2 0.45021287E+03</rscale>
<asrwt>0</asrwt>
<pdfrwt beam="1">  1       21 0.76077321E-02 0.45021287E+03</pdfrwt>
<pdfrwt beam="2">  1       21 0.14404653E+00 0.45021287E+03</pdfrwt>
<totfact> 0.39425990E+04</totfact>
</mgrwt>
</event>
<event>
 7    0  0.4831799E-002  0.4540335E+03  0.7546771E-02  0.1026526E+00
         21   -1    0    0  502  501  0.00000000000E+00  0.00000000000E+00  0.65085848301E+03  0.65085848301E+03  0.00000000000E+00 0. -1.
         21   -1    0    0  501  502 -0.00000000000E+00 -0.00000000000E+00 -0.79182488374E+02  0.79182488374E+02  0.00000000000E+00 0. -1.
      99926    2    1    2    0    0  0.00000000000E+00  0.00000000000E+00  0.57167599464E+03  0.73004097139E+03  0.45403345368E+03 0.  0.
      99925    2    3    3    0    0  0.78833449780E+02  0.15064113571E+02  0.23386132573E+03  0.36097742814E+03  0.26300559620E+03 0.  0.
         25    1    4    4    0    0  0.22851733200E+02  0.41769924098E+01  0.16157511545E+03  0.20565426086E+03  0.12509000000E+03 0.  0.
         25    1    3    3    0    0 -0.78833449780E+02 -0.15064113571E+02  0.33781466891E+03  0.36906354325E+03  0.12509000000E+03 0.  0.
         25    1    4    4    0    0  0.55981716580E+02  0.10887121161E+02  0.72286210275E+02  0.15532316728E+03  0.12509000000E+03 0.  0.
<mgrwt>
<rscale>  2 0.45403345E+03</rscale>
<asrwt>0</asrwt>
<pdfrwt beam="1">  1       21 0.95714480E-01 0.45403345E+03</pdfrwt>
<pdfrwt beam="2">  1       21 0.11644484E-01 0.45403345E+03</pdfrwt>
<totfact> 0.51693905E+04</totfact>
</mgrwt>
</event>
<event>
 7    0  0.4831799E-002  0.4590558E+03  0.7546771E-02  0.1025055E+00
         21   -1    0    0  502  501  0.00000000000E+00  0.00000000000E+00  0.53419839146E+02  0.53419839146E+02  0.00000000000E+00 0. -1.
         21   -1    0    0  501  502 -0.00000000000E+00 -0.00000000000E+00 -0.98620790451E+03  0.98620790451E+03  0.00000000000E+00 0. -1.
      99926    2    1    2    0    0  0.00000000000E+00  0.00000000000E+00 -0.93278806536E+03  0.10396277437E+04  0.45905584681E+03 0.  0.
      99925    2    3    3    0    0 -0.10054955200E+03  0.57464127764E+02 -0.62246730632E+03  0.68556726862E+03  0.26291556436E+03 0.  0.
         25    1    4    4    0    0 -0.12921985391E+02  0.45263016465E+02 -0.27150798047E+03  0.30262156223E+03  0.12509000000E+03 0.  0.
         25    1    3    3    0    0  0.10054955200E+03 -0.57464127764E+02 -0.31032075905E+03  0.35406047504E+03  0.12509000000E+03 0.  0.
         25    1    4    4    0    0 -0.87627566605E+02  0.12201111299E+02 -0.35095932585E+03  0.38294570639E+03  0.12509000000E+03 0.  0.
<mgrwt>
<rscale>  2 0.45905585E+03</rscale>
<asrwt>0</asrwt>
<pdfrwt beam="1">  1       21 0.78558591E-02 0.45905585E+03</pdfrwt>
<pdfrwt beam="2">  1       21 0.14503057E+00 0.45905585E+03</pdfrwt>
<totfact> 0.36491207E+04</totfact>
</mgrwt>
</event>
<event>
 7    0  0.4831799E-002  0.4497576E+03  0.7546771E-02  0.1027794E+00
         21   -1    0    0  502  501  0.00000000000E+00  0.00000000000E+00  0.12804647254E+04  0.12804647254E+04  0.00000000000E+00 0.  1.
         21   -1    0    0  501  502 -0.00000000000E+00 -0.00000000000E+00 -0.39493836769E+02  0.39493836769E+02  0.00000000000E+00 0.  1.
      99926    2    1    2    0    0  0.00000000000E+00  0.00000000000E+00  0.12409708886E+04  0.13199585621E+04  0.44975755626E+03 0.  0.
      99925    2    3    3    0    0 -0.68522602302E+02  0.45714356891E+02  0.99062289139E+03  0.10282279034E+04  0.26293299317E+03 0.  0.
         25    1    4    4    0    0 -0.65117378063E+02  0.59579485921E+01  0.43616267747E+03  0.45843337509E+03  0.12509000000E+03 0.  0.
         25    1    3    3    0    0  0.68522602302E+02 -0.45714356891E+02  0.25034799722E+03  0.29173065877E+03  0.12509000000E+03 0.  0.
         25    1    4    4    0    0 -0.34052242389E+01  0.39756408299E+02  0.55446021391E+03  0.56979452829E+03  0.12509000000E+03 0.  0.
<mgrwt>
<rscale>  2 0.44975756E+03</rscale>
<asrwt>0</asrwt>
<pdfrwt beam="1">  1       21 0.18830361E+00 0.44975756E+03</pdfrwt>
<pdfrwt beam="2">  1       21 0.58079180E-02 0.44975756E+03</pdfrwt>
<totfact> 0.29734320E+04</totfact>
</mgrwt>
</event>
<event>
 7    0  0.4831799E-002  0.4558150E+03  0.7546771E-02  0.1026002E+00
         21   -1    0    0  502  501  0.00000000000E+00  0.00000000000E+00  0.58334405767E+02  0.58334405767E+02  0.00000000000E+00 0. -1.
         21   -1    0    0  501  502 -0.00000000000E+00 -0.00000000000E+00 -0.89041506690E+03  0.89041506690E+03  0.00000000000E+00 0. -1.
      99926    2    1    2    0    0 -0.14210854715E-13  0.00000000000E+00 -0.83208066113E+03  0.94874947266E+03  0.45581502307E+03 0.  0.
      99925    2    3    3    0    0  0.95486629196E+02  0.46410296875E+02 -0.61042149360E+03  0.67297437107E+03  0.26269467496E+03 0.  0.
         25    1    4    4    0    0  0.20810025589E+02  0.46650034090E+02 -0.33880499484E+03  0.36475418500E+03  0.12509000000E+03 0.  0.
         25    1    3    3    0    0 -0.95486629196E+02 -0.46410296875E+02 -0.22165916753E+03  0.27577510160E+03  0.12509000000E+03 0.  0.
         25    1    4    4    0    0  0.74676603607E+02 -0.23973721581E+00 -0.27161649876E+03  0.30822018607E+03  0.12509000000E+03 0.  0.
<mgrwt>
<rscale>  2 0.45581502E+03</rscale>
<asrwt>0</asrwt>
<pdfrwt beam="1">  1       21 0.85785889E-02 0.45581502E+03</pdfrwt>
<pdfrwt beam="2">  1       21 0.13094339E+00 0.45581502E+03</pdfrwt>
<totfact> 0.40929996E+04</totfact>
</mgrwt>
</event>
<event>
 7    0  0.4831799E-002  0.4578293E+03  0.7546771E-02  0.1025413E+00
         21   -1    0    0  502  501  0.00000000000E+00  0.00000000000E+00  0.33693693214E+03  0.33693693214E+03  0.00000000000E+00 0. -1.
         21   -1    0    0  501  502 -0.00000000000E+00 -0.00000000000E+00 -0.15552440503E+03  0.15552440503E+03  0.00000000000E+00 0. -1.
      99926    2    1    2    0    0  0.00000000000E+00  0.71054273576E-14  0.18141252711E+03  0.49246133718E+03  0.45782929529E+03 0.  0.
      99925    2    3    3    0    0  0.24279902428E+02 -0.43457897676E+02  0.18412235167E+01  0.26802545835E+03  0.26335556513E+03 0.  0.
         25    1    4    4    0    0  0.38951484598E+02 -0.50280075212E+02 -0.13430005295E+02  0.14097225705E+03  0.12509000000E+03 0.  0.
         25    1    3    3    0    0 -0.24279902428E+02  0.43457897676E+02  0.17957130359E+03  0.22443587883E+03  0.12509000000E+03 0.  0.
         25    1    4    4    0    0 -0.14671582170E+02  0.68221775364E+01  0.15271228811E+02  0.12705320129E+03  0.12509000000E+03 0.  0.
<mgrwt>
<rscale>  2 0.45782930E+03</rscale>
<asrwt>0</asrwt>
<pdfrwt beam="1">  1       21 0.49549549E-01 0.45782930E+03</pdfrwt>
<pdfrwt beam="2">  1       21 0.22871236E-01 0.45782930E+03</pdfrwt>
<totfact> 0.64346124E+04</totfact>
</mgrwt>
</event>
<event>
 7    0  0.4831799E-002  0.4544212E+03  0.7546771E-02  0.1026412E+00
         21   -1    0    0  502  501  0.00000000000E+00  0.00000000000E+00  0.39147941855E+03  0.39147941855E+03  0.00000000000E+00 0.  1.
         21   -1    0    0  501  502 -0.00000000000E+00 -0.00000000000E+00 -0.13187065564E+03  0.13187065564E+03  0.00000000000E+00 0.  1.
      99926    2    1    2    0    0  0.00000000000E+00  0.00000000000E+00  0.25960876291E+03  0.52335007419E+03  0.45442115969E+03 0.  0.
      99925    2    3    3    0    0  0.20344512165E+02 -0.95415220387E+02  0.22832038505E+03  0.36165766823E+03  0.26296027704E+03 0.  0.
         25    1    4    4    0    0 -0.11295640275E+02 -0.17850099830E+02  0.78059942896E+02  0.14895328240E+03  0.12509000000E+03 0.  0.
         25    1    3    3    0    0 -0.20344512165E+02  0.95415220387E+02  0.31288377858E+02  0.16169240596E+03  0.12509000000E+03 0.  0.
         25    1    4    4    0    0  0.31640152439E+02 -0.77565120557E+02  0.15026044215E+03  0.21270438582E+03  0.12509000000E+03 0.  0.
<mgrwt>
<rscale>  2 0.45442116E+03</rscale>
<asrwt>0</asrwt>
<pdfrwt beam="1">  1       21 0.57570502E-01 0.45442116E+03</pdfrwt>
<pdfrwt beam="2">  1       21 0.19392744E-01 0.45442116E+03</pdfrwt>
<totfact> 0.63951857E+04</totfact>
</mgrwt>
</event>
<event>
 7    0  0.4831799E-002  0.4531446E+03  0.7546771E-02  0.1026788E+00
         21   -1    0    0  502  501  0.00000000000E+00  0.00000000000E+00  0.12006034790E+03  0.12006034790E+03  0.00000000000E+00 0. -1.
         21   -1    0    0  501  502 -0.00000000000E+00 -0.00000000000E+00 -0.42757662691E+03  0.42757662691E+03  0.00000000000E+00 0. -1.
      99926    2    1    2    0    0 -0.71054273576E-14  0.00000000000E+00 -0.30751627901E+03  0.54763697481E+03  0.45314456228E+03 0.  0.
      99925    2    3    3    0    0 -0.20217211682E+02  0.92739335415E+02 -0.12336346827E+03  0.30562646722E+03  0.26302028853E+03 0.  0.
         25    1    3    3    0    0  0.20217211682E+02 -0.92739335415E+02 -0.18415281075E+03  0.24201050760E+03  0.12509000000E+03 0.  0.
         25    1    4    4    0    0 -0.36673233014E+02  0.33979904871E+02 -0.91495500834E+02  0.16284500216E+03  0.12509000000E+03 0.  0.
         25    1    4    4    0    0  0.16456021333E+02  0.58759430544E+02 -0.31867967434E+02  0.14278146506E+03  0.12509000000E+03 0.  0.
<mgrwt>
<rscale>  2 0.45314456E+03</rscale>
<asrwt>0</asrwt>
<pdfrwt beam="1">  1       21 0.17655934E-01 0.45314456E+03</pdfrwt>
<pdfrwt beam="2">  1       21 0.62878915E-01 0.45314456E+03</pdfrwt>
<totfact> 0.62941898E+04</totfact>
</mgrwt>
</event>
<event>
 7    0  0.4831799E-002  0.4593984E+03  0.7546771E-02  0.1024956E+00
         21   -1    0    0  502  501  0.00000000000E+00  0.00000000000E+00  0.25320422629E+03  0.25320422629E+03  0.00000000000E+00 0. -1.
         21   -1    0    0  501  502 -0.00000000000E+00 -0.00000000000E+00 -0.20837613958E+03  0.20837613958E+03  0.00000000000E+00 0. -1.
      99926    2    1    2    0    0  0.00000000000E+00  0.00000000000E+00  0.44828086711E+02  0.46158036586E+03  0.45939838571E+03 0.  0.
      99925    2    3    3    0    0 -0.60386502145E+02 -0.98233405751E+02  0.70154199090E+01  0.28730002412E+03  0.26305086219E+03 0.  0.
         25    1    4    4    0    0 -0.29545254859E+02 -0.30506355714E+02 -0.33362634977E+02  0.13625025995E+03  0.12509000000E+03 0.  0.
         25    1    3    3    0    0  0.60386502145E+02  0.98233405751E+02  0.37812666802E+02  0.17428034174E+03  0.12509000000E+03 0.  0.
         25    1    4    4    0    0 -0.30841247285E+02 -0.67727050037E+02  0.40378054886E+02  0.15104976417E+03  0.12509000000E+03 0.  0.
<mgrwt>
<rscale>  2 0.45939839E+03</rscale>
<asrwt>0</asrwt>
<pdfrwt beam="1">  1       21 0.37235916E-01 0.45939839E+03</pdfrwt>
<pdfrwt beam="2">  1       21 0.30643550E-01 0.45939839E+03</pdfrwt>
<totfact> 0.65729289E+04</totfact>
</mgrwt>
</event>
<event>
 7    0  0.4831799E-002  0.4670051E+03  0.7546771E-02  0.1022769E+00
         21   -1    0    0  502  501  0.00000000000E+00  0.00000000000E+00  0.24449270403E+04  0.24449270403E+04  0.00000000000E+00 0.  1.
         21   -1    0    0  501  502 -0.00000000000E+00 -0.00000000000E+00 -0.22300637166E+02  0.22300637166E+02  0.00000000000E+00 0.  1.
      99926    2    1    2    0    0 -0.71054273576E-14  0.00000000000E+00  0.24226264031E+04  0.24672276774E+04  0.46700505702E+03 0.  0.
      99925    2    3    3    0    0  0.40113270134E+02  0.11528064781E+03  0.16251105785E+04  0.16507855786E+04  0.26307780574E+03 0.  0.
         25    1    4    4    0    0 -0.10805812256E+02  0.82156740365E+02  0.90849680937E+03  0.92080424429E+03  0.12509000000E+03 0.  0.
         25    1    3    3    0    0 -0.40113270134E+02 -0.11528064781E+03  0.79751582459E+03  0.81644209885E+03  0.12509000000E+03 0.  0.
         25    1    4    4    0    0  0.50919082390E+02  0.33123907447E+02  0.71661376914E+03  0.72998133429E+03  0.12509000000E+03 0.  0.
<mgrwt>
<rscale>  2 0.46700506E+03</rscale>
<asrwt>0</asrwt>
<pdfrwt beam="1">  1       21 0.35954791E+00 0.46700506E+03</pdfrwt>
<pdfrwt beam="2">  1       21 0.32795071E-02 0.46700506E+03</pdfrwt>
<totfact> 0.68145418E+03</totfact>
</mgrwt>
</event>
<event>
 7    0  0.4831799E-002  0.4406622E+03  0.7546771E-02  0.1030544E+00
         21   -1    0    0  502  501  0.00000000000E+00  0.00000000000E+00  0.23126418080E+02  0.23126418080E+02  0.00000000000E+00 0.  1.
         21   -1    0    0  501  502 -0.00000000000E+00 -0.00000000000E+00 -0.20991484276E+04  0.20991484276E+04  0.00000000000E+00 0.  1.
      99926    2    1    2    0    0  0.71054273576E-14 -0.14210854715E-13 -0.20760220095E+04  0.21222748457E+04  0.44066215698E+03 0.  0.
      99925    2    3    3    0    0 -0.35978694429E+02 -0.92334937603E+02 -0.13141497973E+04  0.13438681505E+04  0.26300515050E+03 0.  0.
         25    1    3    3    0    0  0.35978694429E+02  0.92334937603E+02 -0.76187221227E+03  0.77840669517E+03  0.12509000000E+03 0.  0.
         25    1    4    4    0    0  0.12954923977E+02 -0.16938081595E+02 -0.61365300639E+03  0.62663565891E+03  0.12509000000E+03 0.  0.
         25    1    4    4    0    0 -0.48933618406E+02 -0.75396856008E+02 -0.70049679089E+03  0.71723249163E+03  0.12509000000E+03 0.  0.
<mgrwt>
<rscale>  2 0.44066216E+03</rscale>
<asrwt>0</asrwt>
<pdfrwt beam="1">  1       21 0.34009414E-02 0.44066216E+03</pdfrwt>
<pdfrwt beam="2">  1       21 0.30869852E+00 0.44066216E+03</pdfrwt>
<totfact> 0.13226704E+04</totfact>
</mgrwt>
</event>
<event>
 7    0  0.4831799E-002  0.4543212E+03  0.7546771E-02  0.1026441E+00
         21   -1    0    0  502  501  0.00000000000E+00  0.00000000000E+00  0.26227840168E+03  0.26227840168E+03  0.00000000000E+00 0. -1.
         21   -1    0    0  501  502 -0.00000000000E+00 -0.00000000000E+00 -0.19674489110E+03  0.19674489110E+03  0.00000000000E+00 0. -1.
      99926    2    1    2    0    0  0.71054273576E-14  0.00000000000E+00  0.65533510578E+02  0.45902329279E+03  0.45432118849E+03 0.  0.
      99925    2    3    3    0    0  0.52021905580E+02  0.97236966172E+02  0.18185120296E+02  0.28567196048E+03  0.26290010299E+03 0.  0.
         25    1    4    4    0    0  0.61418769996E+02  0.59892875446E+02 -0.91829735435E+01  0.15195807626E+03  0.12509000000E+03 0.  0.
         25    1    3    3    0    0 -0.52021905580E+02 -0.97236966172E+02  0.47348390282E+02  0.17335133231E+03  0.12509000000E+03 0.  0.
         25    1    4    4    0    0 -0.93968644158E+01  0.37344090726E+02  0.27368093839E+02  0.13371388422E+03  0.12509000000E+03 0.  0.
<mgrwt>
<rscale>  2 0.45432119E+03</rscale>
<asrwt>0</asrwt>
<pdfrwt beam="1">  1       21 0.38570353E-01 0.45432119E+03</pdfrwt>
<pdfrwt beam="2">  1       21 0.28933072E-01 0.45432119E+03</pdfrwt>
<totfact> 0.68622538E+04</totfact>
</mgrwt>
</event>
<event>
 7    0  0.4831799E-002  0.4267017E+03  0.7546771E-02  0.1034907E+00
         21   -1    0    0  502  501  0.00000000000E+00  0.00000000000E+00  0.34823972694E+03  0.34823972694E+03  0.00000000000E+00 0.  1.
         21   -1    0    0  501  502 -0.00000000000E+00 -0.00000000000E+00 -0.13071051813E+03  0.13071051813E+03  0.00000000000E+00 0.  1.
      99926    2    1    2    0    0  0.00000000000E+00  0.00000000000E+00  0.21752920882E+03  0.47895024507E+03  0.42670174662E+03 0.  0.
      99925    2    3    3    0    0  0.70765111160E+02 -0.34874177151E+02  0.17307735535E+03  0.32452426097E+03  0.26293785546E+03 0.  0.
         25    1    3    3    0    0 -0.70765111160E+02  0.34874177151E+02  0.44451853462E+02  0.15442598410E+03  0.12509000000E+03 0.  0.
         25    1    4    4    0    0  0.38152783796E+02 -0.92551262413E+01  0.13305592438E+03  0.18679582272E+03  0.12509000000E+03 0.  0.
         25    1    4    4    0    0  0.32612327364E+02 -0.25619050910E+02  0.40021430973E+02  0.13772843825E+03  0.12509000000E+03 0.  0.
<mgrwt>
<rscale>  2 0.42670175E+03</rscale>
<asrwt>0</asrwt>
<pdfrwt beam="1">  1       21 0.51211724E-01 0.42670175E+03</pdfrwt>
<pdfrwt beam="2">  1       21 0.19222135E-01 0.42670175E+03</pdfrwt>
<totfact> 0.84149447E+04</totfact>
</mgrwt>
</event>
<event>
 7    0  0.4831799E-002  0.4542660E+03  0.7546771E-02  0.1026457E+00
         21   -1    0    0  502  501  0.00000000000E+00  0.00000000000E+00  0.34224676056E+04  0.34224676056E+04  0.00000000000E+00 0. -1.
         21   -1    0    0  501  502 -0.00000000000E+00 -0.00000000000E+00 -0.15073743516E+02  0.15073743516E+02  0.00000000000E+00 0. -1.
      99926    2    1    2    0    0  0.00000000000E+00 -0.22204460493E-14  0.34073938621E+04  0.34375413491E+04  0.45426599643E+03 0.  0.
      99925    2    3    3    0    0 -0.46279483869E+01  0.39998170759E+01  0.12956227880E+04  0.13220598451E+04  0.26299507366E+03 0.  0.
         25    1    4    4    0    0 -0.10223742301E+01  0.27723202377E+02  0.49223013612E+03  0.50863310569E+03  0.12509000000E+03 0.  0.
         25    1    4    4    0    0 -0.36055741568E+01 -0.23723385301E+02  0.80339265191E+03  0.81342673943E+03  0.12509000000E+03 0.  0.
         25    1    3    3    0    0  0.46279483869E+01 -0.39998170759E+01  0.21117710741E+04  0.21154815040E+04  0.12509000000E+03 0.  0.
<mgrwt>
<rscale>  2 0.45426600E+03</rscale>
<asrwt>0</asrwt>
<pdfrwt beam="1">  1       21 0.50330352E+00 0.45426600E+03</pdfrwt>
<pdfrwt beam="2">  1       21 0.22167294E-02 0.45426600E+03</pdfrwt>
<totfact> 0.14647648E+03</totfact>
</mgrwt>
</event>
<event>
 7    0  0.4831799E-002  0.4529515E+03  0.7546771E-02  0.1026846E+00
         21   -1    0    0  502  501  0.00000000000E+00  0.00000000000E+00  0.17062314802E+03  0.17062314802E+03  0.00000000000E+00 0. -1.
         21   -1    0    0  501  502 -0.00000000000E+00 -0.00000000000E+00 -0.30061144436E+03  0.30061144436E+03  0.00000000000E+00 0. -1.
      99926    2    1    2    0    0  0.00000000000E+00  0.00000000000E+00 -0.12998829634E+03  0.47123459238E+03  0.45295152486E+03 0.  0.
      99925    2    3    3    0    0  0.84872553884E+02 -0.47472910624E+02 -0.13735367393E+03  0.31261938336E+03  0.26345363817E+03 0.  0.
         25    1    4    4    0    0  0.54173809094E+02 -0.32541886534E+02 -0.11446192934E+03  0.18094976469E+03  0.12509000000E+03 0.  0.
         25    1    4    4    0    0  0.30698744790E+02 -0.14931024090E+02 -0.22891744587E+02  0.13166961868E+03  0.12509000000E+03 0.  0.
         25    1    3    3    0    0 -0.84872553884E+02  0.47472910624E+02  0.73653775890E+01  0.15861520902E+03  0.12509000000E+03 0.  0.
<mgrwt>
<rscale>  2 0.45295152E+03</rscale>
<asrwt>0</asrwt>
<pdfrwt beam="1">  1       21 0.25091640E-01 0.45295152E+03</pdfrwt>
<pdfrwt beam="2">  1       21 0.44207565E-01 0.45295152E+03</pdfrwt>
<totfact> 0.68449797E+04</totfact>
</mgrwt>
</event>
<event>
 7    0  0.4831799E-002  0.4594972E+03  0.7546771E-02  0.1024927E+00
         21   -1    0    0  502  501  0.00000000000E+00  0.00000000000E+00  0.79575727694E+03  0.79575727694E+03  0.00000000000E+00 0.  1.
         21   -1    0    0  501  502 -0.00000000000E+00 -0.00000000000E+00 -0.66332308603E+02  0.66332308603E+02  0.00000000000E+00 0.  1.
      99926    2    1    2    0    0 -0.14210854715E-13 -0.71054273576E-14  0.72942496834E+03  0.86208958554E+03  0.45949719158E+03 0.  0.
      99925    2    3    3    0    0  0.95986758008E+02  0.61219942857E+02  0.51134375170E+03  0.58610359991E+03  0.26283770336E+03 0.  0.
         25    1    4    4    0    0  0.39213328907E+02  0.14790541010E+02  0.16959068213E+03  0.21486031004E+03  0.12509000000E+03 0.  0.
         25    1    3    3    0    0 -0.95986758008E+02 -0.61219942857E+02  0.21808121664E+03  0.27598598563E+03  0.12509000000E+03 0.  0.
         25    1    4    4    0    0  0.56773429101E+02  0.46429401847E+02  0.34175306957E+03  0.37124328987E+03  0.12509000000E+03 0.  0.
<mgrwt>
<rscale>  2 0.45949719E+03</rscale>
<asrwt>0</asrwt>
<pdfrwt beam="1">  1       21 0.11702312E+00 0.45949719E+03</pdfrwt>
<pdfrwt beam="2">  1       21 0.97547517E-02 0.45949719E+03</pdfrwt>
<totfact> 0.43353686E+04</totfact>
</mgrwt>
</event>
<event>
 7    0  0.4831799E-002  0.4564016E+03  0.7546771E-02  0.1025830E+00
         21   -1    0    0  502  501  0.00000000000E+00  0.00000000000E+00  0.23448032940E+04  0.23448032940E+04  0.00000000000E+00 0. -1.
         21   -1    0    0  501  502 -0.00000000000E+00 -0.00000000000E+00 -0.22208944505E+02  0.22208944505E+02  0.00000000000E+00 0. -1.
      99926    2    1    2    0    0  0.00000000000E+00 -0.71054273576E-14  0.23225943495E+04  0.23670122385E+04  0.45640160487E+03 0.  0.
      99925    2    3    3    0    0 -0.86561309903E+02  0.38664860476E+02  0.17987041627E+04  0.18201152942E+04  0.26171585227E+03 0.  0.
         25    1    4    4    0    0 -0.54583524351E+02 -0.55076150845E+01  0.72291856757E+03  0.73570949321E+03  0.12509000000E+03 0.  0.
         25    1    4    4    0    0 -0.31977785552E+02  0.44172475560E+02  0.10757855951E+04  0.10844058010E+04  0.12509000000E+03 0.  0.
         25    1    3    3    0    0  0.86561309903E+02 -0.38664860476E+02  0.52389018677E+03  0.54689694431E+03  0.12509000000E+03 0.  0.
<mgrwt>
<rscale>  2 0.45640160E+03</rscale>
<asrwt>0</asrwt>
<pdfrwt beam="1">  1       21 0.34482384E+00 0.45640160E+03</pdfrwt>
<pdfrwt beam="2">  1       21 0.32660229E-02 0.45640160E+03</pdfrwt>
<totfact> 0.84970294E+03</totfact>
</mgrwt>
</event>
<event>
 7    0  0.4831799E-002  0.4638600E+03  0.7546771E-02  0.1023668E+00
         21   -1    0    0  502  501  0.00000000000E+00  0.00000000000E+00  0.13348302718E+03  0.13348302718E+03  0.00000000000E+00 0.  1.
         21   -1    0    0  501  502 -0.00000000000E+00 -0.00000000000E+00 -0.40298392109E+03  0.40298392109E+03  0.00000000000E+00 0.  1.
      99926    2    1    2    0    0  0.35527136788E-14  0.00000000000E+00 -0.26950089390E+03  0.53646694827E+03  0.46385995168E+03 0.  0.
      99925    2    3    3    0    0 -0.31889823761E+02 -0.10911444633E+03 -0.11851817702E+03  0.30982579544E+03  0.26272141515E+03 0.  0.
         25    1    4    4    0    0  0.12940221846E+02 -0.24091322389E+02 -0.44356112251E+02  0.13550946074E+03  0.12509000000E+03 0.  0.
         25    1    3    3    0    0  0.31889823761E+02  0.10911444633E+03 -0.15098271689E+03  0.22664115283E+03  0.12509000000E+03 0.  0.
         25    1    4    4    0    0 -0.44830045607E+02 -0.85023123938E+02 -0.74162064764E+02  0.17431633470E+03  0.12509000000E+03 0.  0.
<mgrwt>
<rscale>  2 0.46385995E+03</rscale>
<asrwt>0</asrwt>
<pdfrwt beam="1">  1       21 0.19629857E-01 0.46385995E+03</pdfrwt>
<pdfrwt beam="2">  1       21 0.59262342E-01 0.46385995E+03</pdfrwt>
<totfact> 0.58550060E+04</totfact>
</mgrwt>
</event>
<event>
 7    0  0.4831799E-002  0.4522944E+03  0.7546771E-02  0.1027040E+00
         21   -1    0    0  502  501  0.00000000000E+00  0.00000000000E+00  0.15545908249E+03  0.15545908249E+03  0.00000000000E+00 0.  1.
         21   -1    0    0  501  502 -0.00000000000E+00 -0.00000000000E+00 -0.32897764914E+03  0.32897764914E+03  0.00000000000E+00 0.  1.
      99926    2    1    2    0    0 -0.71054273576E-14  0.00000000000E+00 -0.17351856666E+03  0.48443673163E+03  0.45229443284E+03 0.  0.
      99925    2    3    3    0    0  0.51796839374E+02 -0.95539712791E+02 -0.13459447625E+03  0.31422115595E+03  0.26231376731E+03 0.  0.
         25    1    4    4    0    0  0.49944274085E+02 -0.31735918222E+02 -0.37117044539E+02  0.14327170731E+03  0.12509000000E+03 0.  0.
         25    1    3    3    0    0 -0.51796839374E+02  0.95539712791E+02 -0.38924090408E+02  0.17021557568E+03  0.12509000000E+03 0.  0.
         25    1    4    4    0    0  0.18525652890E+01 -0.63803794569E+02 -0.97477431710E+02  0.17094944865E+03  0.12509000000E+03 0.  0.
<mgrwt>
<rscale>  2 0.45229443E+03</rscale>
<asrwt>0</asrwt>
<pdfrwt beam="1">  1       21 0.22861630E-01 0.45229443E+03</pdfrwt>
<pdfrwt beam="2">  1       21 0.48379066E-01 0.45229443E+03</pdfrwt>
<totfact> 0.67823588E+04</totfact>
</mgrwt>
</event>
<event>
 7    0  0.4831799E-002  0.4508737E+03  0.7546771E-02  0.1027462E+00
         21   -1    0    0  502  501  0.00000000000E+00  0.00000000000E+00  0.36678470329E+03  0.36678470329E+03  0.00000000000E+00 0.  1.
         21   -1    0    0  501  502 -0.00000000000E+00 -0.00000000000E+00 -0.13856025043E+03  0.13856025043E+03  0.00000000000E+00 0.  1.
      99926    2    1    2    0    0  0.00000000000E+00 -0.35527136788E-14  0.22822445286E+03  0.50534495371E+03  0.45087373106E+03 0.  0.
      99925    2    3    3    0    0  0.10091035251E+03  0.31663753060E+02  0.11345557810E+03  0.30533271605E+03  0.26300267449E+03 0.  0.
         25    1    4    4    0    0  0.85996442910E+02  0.21039452649E+02  0.86819811200E+02  0.17613413774E+03  0.12509000000E+03 0.  0.
         25    1    4    4    0    0  0.14913909602E+02  0.10624300412E+02  0.26635766904E+02  0.12919857831E+03  0.12509000000E+03 0.  0.
         25    1    3    3    0    0 -0.10091035251E+03 -0.31663753060E+02  0.11476887476E+03  0.20001223766E+03  0.12509000000E+03 0.  0.
<mgrwt>
<rscale>  2 0.45087373E+03</rscale>
<asrwt>0</asrwt>
<pdfrwt beam="1">  1       21 0.53938927E-01 0.45087373E+03</pdfrwt>
<pdfrwt beam="2">  1       21 0.20376507E-01 0.45087373E+03</pdfrwt>
<totfact> 0.67066377E+04</totfact>
</mgrwt>
</event>
<event>
 7    0  0.4831799E-002  0.4575114E+03  0.7546771E-02  0.1025505E+00
         21   -1    0    0  502  501  0.00000000000E+00  0.00000000000E+00  0.11820481834E+03  0.11820481834E+03  0.00000000000E+00 0. -1.
         21   -1    0    0  501  502 -0.00000000000E+00 -0.00000000000E+00 -0.44269918623E+03  0.44269918623E+03  0.00000000000E+00 0. -1.
      99926    2    1    2    0    0  0.00000000000E+00  0.00000000000E+00 -0.32449436788E+03  0.56090400457E+03  0.45751142888E+03 0.  0.
      99925    2    3    3    0    0 -0.67996586279E+02  0.88289240489E+02 -0.23991334509E+03  0.37323412620E+03  0.26329977986E+03 0.  0.
         25    1    4    4    0    0 -0.30205780259E+01  0.18819905968E+02 -0.84084698333E+02  0.15192451200E+03  0.12509000000E+03 0.  0.
         25    1    4    4    0    0 -0.64976008253E+02  0.69469334521E+02 -0.15582864676E+03  0.22130961420E+03  0.12509000000E+03 0.  0.
         25    1    3    3    0    0  0.67996586279E+02 -0.88289240489E+02 -0.84581022790E+02  0.18766987837E+03  0.12509000000E+03 0.  0.
<mgrwt>
<rscale>  2 0.45751143E+03</rscale>
<asrwt>0</asrwt>
<pdfrwt beam="1">  1       21 0.17383061E-01 0.45751143E+03</pdfrwt>
<pdfrwt beam="2">  1       21 0.65102822E-01 0.45751143E+03</pdfrwt>
<totfact> 0.59951832E+04</totfact>
</mgrwt>
</event>
<event>
 7    0  0.4831799E-002  0.4548377E+03  0.7546771E-02  0.1026289E+00
         21   -1    0    0  502  501  0.00000000000E+00  0.00000000000E+00  0.11909435293E+04  0.11909435293E+04  0.00000000000E+00 0. -1.
         21   -1    0    0  501  502 -0.00000000000E+00 -0.00000000000E+00 -0.43427200235E+02  0.43427200235E+02  0.00000000000E+00 0. -1.
      99926    2    1    2    0    0  0.00000000000E+00  0.00000000000E+00  0.11475163291E+04  0.12343707295E+04  0.45483774301E+03 0.  0.
      99925    2    3    3    0    0  0.39290208192E+02  0.34288099879E+02  0.99440482284E+03  0.10298957049E+04  0.26291598863E+03 0.  0.
         25    1    4    4    0    0 -0.97924394895E+01  0.36861860813E+02  0.41549768602E+03  0.43559215310E+03  0.12509000000E+03 0.  0.
         25    1    4    4    0    0  0.49082647682E+02 -0.25737609340E+01  0.57890713682E+03  0.59430355183E+03  0.12509000000E+03 0.  0.
         25    1    3    3    0    0 -0.39290208192E+02 -0.34288099879E+02  0.15311150624E+03  0.20447502463E+03  0.12509000000E+03 0.  0.
<mgrwt>
<rscale>  2 0.45483774E+03</rscale>
<asrwt>0</asrwt>
<pdfrwt beam="1">  1       21 0.17513873E+00 0.45483774E+03</pdfrwt>
<pdfrwt beam="2">  1       21 0.63863537E-02 0.45483774E+03</pdfrwt>
<totfact> 0.31121154E+04</totfact>
</mgrwt>
</event>
<event>
 7    0  0.4831799E-002  0.4492551E+03  0.7546771E-02  0.1027944E+00
         21   -1    0    0  502  501  0.00000000000E+00  0.00000000000E+00  0.98908683473E+02  0.98908683473E+02  0.00000000000E+00 0. -1.
         21   -1    0    0  501  502 -0.00000000000E+00 -0.00000000000E+00 -0.51014261230E+03  0.51014261230E+03  0.00000000000E+00 0. -1.
      99926    2    1    2    0    0  0.00000000000E+00  0.00000000000E+00 -0.41123392882E+03  0.60905129577E+03  0.44925509086E+03 0.  0.
      99925    2    3    3    0    0  0.50436486030E+02 -0.43174259167E+02 -0.14522950313E+03  0.30769815017E+03  0.26301841620E+03 0.  0.
         25    1    3    3    0    0 -0.50436486030E+02  0.43174259167E+02 -0.26600442569E+03  0.30135314560E+03  0.12509000000E+03 0.  0.
         25    1    4    4    0    0  0.20783864058E+02  0.69834127024E+01 -0.10261541932E+03  0.16327329678E+03  0.12509000000E+03 0.  0.
         25    1    4    4    0    0  0.29652621972E+02 -0.50157671870E+02 -0.42614083808E+02  0.14442485339E+03  0.12509000000E+03 0.  0.
<mgrwt>
<rscale>  2 0.44925509E+03</rscale>
<asrwt>0</asrwt>
<pdfrwt beam="1">  1       21 0.14545395E-01 0.44925509E+03</pdfrwt>
<pdfrwt beam="2">  1       21 0.75020972E-01 0.44925509E+03</pdfrwt>
<totfact> 0.60838689E+04</totfact>
</mgrwt>
</event>
<event>
 7    0  0.4831799E-002  0.4595963E+03  0.7546771E-02  0.1024898E+00
         21   -1    0    0  502  501  0.00000000000E+00  0.00000000000E+00  0.20721564533E+03  0.20721564533E+03  0.00000000000E+00 0.  1.
         21   -1    0    0  501  502 -0.00000000000E+00 -0.00000000000E+00 -0.25484166567E+03  0.25484166567E+03  0.00000000000E+00 0.  1.
      99926    2    1    2    0    0 -0.71054273576E-14  0.00000000000E+00 -0.47626020339E+02  0.46205731100E+03  0.45959625851E+03 0.  0.
      99925    2    3    3    0    0  0.36640070327E+02 -0.10905754586E+03 -0.58951182480E+01  0.28705725571E+03  0.26292788474E+03 0.  0.
         25    1    4    4    0    0  0.14577736117E+02 -0.24264836078E+02 -0.31842191047E+02  0.13214660756E+03  0.12509000000E+03 0.  0.
         25    1    3    3    0    0 -0.36640070327E+02  0.10905754586E+03 -0.41730902091E+02  0.17500005529E+03  0.12509000000E+03 0.  0.
         25    1    4    4    0    0  0.22062334210E+02 -0.84792709780E+02  0.25947072799E+02  0.15491064815E+03  0.12509000000E+03 0.  0.
<mgrwt>
<rscale>  2 0.45959626E+03</rscale>
<asrwt>0</asrwt>
<pdfrwt beam="1">  1       21 0.30472889E-01 0.45959626E+03</pdfrwt>
<pdfrwt beam="2">  1       21 0.37476716E-01 0.45959626E+03</pdfrwt>
<totfact> 0.65593216E+04</totfact>
</mgrwt>
</event>
<event>
 7    0  0.4831799E-002  0.4512326E+03  0.7546771E-02  0.1027355E+00
         21   -1    0    0  502  501  0.00000000000E+00  0.00000000000E+00  0.86268049588E+03  0.86268049588E+03  0.00000000000E+00 0. -1.
         21   -1    0    0  501  502 -0.00000000000E+00 -0.00000000000E+00 -0.59005289552E+02  0.59005289552E+02  0.00000000000E+00 0. -1.
      99926    2    1    2    0    0  0.14210854715E-13  0.00000000000E+00  0.80367520632E+03  0.92168578543E+03  0.45123258947E+03 0.  0.
      99925    2    3    3    0    0 -0.67637816962E+02  0.23636301241E+02  0.33800889967E+03  0.43421664151E+03  0.26298389017E+03 0.  0.
         25    1    4    4    0    0 -0.54611109775E+02  0.46881185688E+02  0.16812098866E+03  0.22156803427E+03  0.12509000000E+03 0.  0.
         25    1    4    4    0    0 -0.13026707187E+02 -0.23244884446E+02  0.16988791100E+03  0.21264860723E+03  0.12509000000E+03 0.  0.
         25    1    3    3    0    0  0.67637816962E+02 -0.23636301241E+02  0.46566630666E+03  0.48746914392E+03  0.12509000000E+03 0.  0.
<mgrwt>
<rscale>  2 0.45123259E+03</rscale>
<asrwt>0</asrwt>
<pdfrwt beam="1">  1       21 0.12686477E+00 0.45123259E+03</pdfrwt>
<pdfrwt beam="2">  1       21 0.86772490E-02 0.45123259E+03</pdfrwt>
<totfact> 0.43579333E+04</totfact>
</mgrwt>
</event>
<event>
 7    0  0.4831799E-002  0.4518154E+03  0.7546771E-02  0.1027182E+00
         21   -1    0    0  502  501  0.00000000000E+00  0.00000000000E+00  0.36710898708E+03  0.36710898708E+03  0.00000000000E+00 0.  1.
         21   -1    0    0  501  502 -0.00000000000E+00 -0.00000000000E+00 -0.13901673925E+03  0.13901673925E+03  0.00000000000E+00 0.  1.
      99926    2    1    2    0    0 -0.71054273576E-14  0.00000000000E+00  0.22809224782E+03  0.50612572633E+03  0.45181542396E+03 0.  0.
      99925    2    3    3    0    0 -0.61129624008E+02 -0.10906564242E+02  0.24589344256E+03  0.36534158408E+03  0.26297358020E+03 0.  0.
         25    1    3    3    0    0  0.61129624008E+02  0.10906564242E+02 -0.17801194739E+02  0.14078414225E+03  0.12509000000E+03 0.  0.
         25    1    4    4    0    0 -0.16663258708E+01 -0.31143782672E+02  0.99982805550E+02  0.16314650271E+03  0.12509000000E+03 0.  0.
         25    1    4    4    0    0 -0.59463298137E+02  0.20237218430E+02  0.14591063701E+03  0.20219508137E+03  0.12509000000E+03 0.  0.
<mgrwt>
<rscale>  2 0.45181542E+03</rscale>
<asrwt>0</asrwt>
<pdfrwt beam="1">  1       21 0.53986616E-01 0.45181542E+03</pdfrwt>
<pdfrwt beam="2">  1       21 0.20443638E-01 0.45181542E+03</pdfrwt>
<totfact> 0.66507573E+04</totfact>
</mgrwt>
</event>
<event>
 7    0  0.4831799E-002  0.4463712E+03  0.7546771E-02  0.1028810E+00
         21   -1    0    0  502  501  0.00000000000E+00  0.00000000000E+00  0.51230286255E+02  0.51230286255E+02  0.00000000000E+00 0. -1.
         21   -1    0    0  501  502 -0.00000000000E+00 -0.00000000000E+00 -0.97231168361E+03  0.97231168361E+03  0.00000000000E+00 0. -1.
      99926    2    1    2    0    0  0.00000000000E+00  0.00000000000E+00 -0.92108139736E+03  0.10235419699E+04  0.44637117237E+03 0.  0.
      99925    2    3    3    0    0 -0.89863564341E+02 -0.53290334252E+02 -0.56183913700E+03  0.62905771208E+03  0.26293548511E+03 0.  0.
         25    1    4    4    0    0 -0.46766979569E+02 -0.51777901319E+02 -0.36281553972E+03  0.39006502715E+03  0.12509000000E+03 0.  0.
         25    1    4    4    0    0 -0.43096584773E+02 -0.15124329337E+01 -0.19902359728E+03  0.23899268492E+03  0.12509000000E+03 0.  0.
         25    1    3    3    0    0  0.89863564341E+02  0.53290334252E+02 -0.35924226035E+03  0.39448425779E+03  0.12509000000E+03 0.  0.
<mgrwt>
<rscale>  2 0.44637117E+03</rscale>
<asrwt>0</asrwt>
<pdfrwt beam="1">  1       21 0.75338657E-02 0.44637117E+03</pdfrwt>
<pdfrwt beam="2">  1       21 0.14298701E+00 0.44637117E+03</pdfrwt>
<totfact> 0.40953659E+04</totfact>
</mgrwt>
</event>
<event>
 7    0  0.4831799E-002  0.4548730E+03  0.7546771E-02  0.1026279E+00
         21   -1    0    0  502  501  0.00000000000E+00  0.00000000000E+00  0.11607864503E+04  0.11607864503E+04  0.00000000000E+00 0.  1.
         21   -1    0    0  501  502 -0.00000000000E+00 -0.00000000000E+00 -0.44562337188E+02  0.44562337188E+02  0.00000000000E+00 0.  1.
      99926    2    1    2    0    0  0.00000000000E+00  0.00000000000E+00  0.11162241131E+04  0.12053487875E+04  0.45487298096E+03 0.  0.
      99925    2    3    3    0    0 -0.68394654637E+02  0.67589245900E+02  0.86013808985E+03  0.90456033300E+03  0.26295575194E+03 0.  0.
         25    1    3    3    0    0  0.68394654637E+02 -0.67589245900E+02  0.25608602326E+03  0.30078845449E+03  0.12509000000E+03 0.  0.
         25    1    4    4    0    0 -0.12061808387E+01  0.44410032043E+02  0.48307746229E+03  0.50098408008E+03  0.12509000000E+03 0.  0.
         25    1    4    4    0    0 -0.67188473798E+02  0.23179213857E+02  0.37706062756E+03  0.40357625292E+03  0.12509000000E+03 0.  0.
<mgrwt>
<rscale>  2 0.45487298E+03</rscale>
<asrwt>0</asrwt>
<pdfrwt beam="1">  1       21 0.17070387E+00 0.45487298E+03</pdfrwt>
<pdfrwt beam="2">  1       21 0.65532856E-02 0.45487298E+03</pdfrwt>
<totfact> 0.32018553E+04</totfact>
</mgrwt>
</event>
<event>
 7    0  0.4831799E-002  0.3990350E+03  0.7546771E-02  0.1044114E+00
         21   -1    0    0  502  501  0.00000000000E+00  0.00000000000E+00  0.43642621833E+02  0.43642621833E+02  0.00000000000E+00 0.  1.
         21   -1    0    0  501  502 -0.00000000000E+00 -0.00000000000E+00 -0.91211805862E+03  0.91211805862E+03  0.00000000000E+00 0.  1.
      99926    2    1    2    0    0 -0.35527136788E-14 -0.17763568394E-14 -0.86847543679E+03  0.95576068045E+03  0.39903495335E+03 0.  0.
      99925    2    3    3    0    0 -0.26613146999E+02 -0.12039585292E+02 -0.50274068103E+03  0.56812343911E+03  0.26298828585E+03 0.  0.
         25    1    4    4    0    0  0.46011859627E+01  0.17638406278E+02 -0.30552345853E+03  0.33064236888E+03  0.12509000000E+03 0.  0.
         25    1    3    3    0    0  0.26613146999E+02  0.12039585292E+02 -0.36573475576E+03  0.38763724134E+03  0.12509000000E+03 0.  0.
         25    1    4    4    0    0 -0.31214332962E+02 -0.29677991569E+02 -0.19721722250E+03  0.23748107023E+03  0.12509000000E+03 0.  0.
<mgrwt>
<rscale>  2 0.39903495E+03</rscale>
<asrwt>0</asrwt>
<pdfrwt beam="1">  1       21 0.64180336E-02 0.39903495E+03</pdfrwt>
<pdfrwt beam="2">  1       21 0.13413499E+00 0.39903495E+03</pdfrwt>
<totfact> 0.65043011E+04</totfact>
</mgrwt>
</event>
<event>
 7    0  0.4831799E-002  0.4537998E+03  0.7546771E-02  0.1026595E+00
         21   -1    0    0  502  501  0.00000000000E+00  0.00000000000E+00  0.66106630320E+03  0.66106630320E+03  0.00000000000E+00 0.  1.
         21   -1    0    0  501  502 -0.00000000000E+00 -0.00000000000E+00 -0.77879565595E+02  0.77879565595E+02  0.00000000000E+00 0.  1.
      99926    2    1    2    0    0  0.00000000000E+00  0.14210854715E-13  0.58318673761E+03  0.73894586880E+03  0.45379976431E+03 0.  0.
      99925    2    3    3    0    0 -0.33684241939E+02 -0.10380464166E+03  0.32696325998E+03  0.43364599920E+03  0.26312325527E+03 0.  0.
         25    1    4    4    0    0 -0.54852741885E+02 -0.37179270877E+02  0.16304387767E+03  0.21592113288E+03  0.12509000000E+03 0.  0.
         25    1    3    3    0    0  0.33684241939E+02  0.10380464166E+03  0.25622347763E+03  0.30529986960E+03  0.12509000000E+03 0.  0.
         25    1    4    4    0    0  0.21168499946E+02 -0.66625370786E+02  0.16391938230E+03  0.21772486633E+03  0.12509000000E+03 0.  0.
<mgrwt>
<rscale>  2 0.45379976E+03</rscale>
<asrwt>0</asrwt>
<pdfrwt beam="1">  1       21 0.97215630E-01 0.45379976E+03</pdfrwt>
<pdfrwt beam="2">  1       21 0.11452878E-01 0.45379976E+03</pdfrwt>
<totfact> 0.51321491E+04</totfact>
</mgrwt>
</event>
<event>
 7    0  0.4831799E-002  0.4516829E+03  0.7546771E-02  0.1027221E+00
         21   -1    0    0  502  501  0.00000000000E+00  0.00000000000E+00  0.67167752963E+02  0.67167752963E+02  0.00000000000E+00 0.  1.
         21   -1    0    0  501  502 -0.00000000000E+00 -0.00000000000E+00 -0.75935780651E+03  0.75935780651E+03  0.00000000000E+00 0.  1.
      99926    2    1    2    0    0  0.00000000000E+00  0.17763568394E-14 -0.69219005354E+03  0.82652555947E+03  0.45168288681E+03 0.  0.
      99925    2    3    3    0    0  0.39020350733E+02  0.11944176189E+02 -0.24939524434E+03  0.36459482627E+03  0.26280439176E+03 0.  0.
         25    1    4    4    0    0  0.37149470502E+02 -0.29536711906E+02 -0.13512651155E+03  0.19015568025E+03  0.12509000000E+03 0.  0.
         25    1    3    3    0    0 -0.39020350733E+02 -0.11944176189E+02 -0.44279480921E+03  0.46193073320E+03  0.12509000000E+03 0.  0.
         25    1    4    4    0    0  0.18708802306E+01  0.41480888094E+02 -0.11426873279E+03  0.17443914602E+03  0.12509000000E+03 0.  0.
<mgrwt>
<rscale>  2 0.45168289E+03</rscale>
<asrwt>0</asrwt>
<pdfrwt beam="1">  1       21 0.98776114E-02 0.45168289E+03</pdfrwt>
<pdfrwt beam="2">  1       21 0.11167026E+00 0.45168289E+03</pdfrwt>
<totfact> 0.47738839E+04</totfact>
</mgrwt>
</event>
<event>
 7    0  0.4831799E-002  0.4554244E+03  0.7546771E-02  0.1026117E+00
         21   -1    0    0  502  501  0.00000000000E+00  0.00000000000E+00  0.20152174913E+03  0.20152174913E+03  0.00000000000E+00 0.  1.
         21   -1    0    0  501  502 -0.00000000000E+00 -0.00000000000E+00 -0.25730641223E+03  0.25730641223E+03  0.00000000000E+00 0.  1.
      99926    2    1    2    0    0  0.00000000000E+00  0.00000000000E+00 -0.55784663101E+02  0.45882816137E+03  0.45542436587E+03 0.  0.
      99925    2    3    3    0    0 -0.45736868874E+02  0.40999810687E+02 -0.13156433994E+03  0.30019993824E+03  0.26275079776E+03 0.  0.
         25    1    3    3    0    0  0.45736868874E+02 -0.40999810687E+02  0.75779676839E+02  0.15862822313E+03  0.12509000000E+03 0.  0.
         25    1    4    4    0    0 -0.17985079742E+02 -0.13382702107E+02 -0.38600397679E+02  0.13281588237E+03  0.12509000000E+03 0.  0.
         25    1    4    4    0    0 -0.27751789132E+02  0.54382512794E+02 -0.92963942262E+02  0.16738405587E+03  0.12509000000E+03 0.  0.
<mgrwt>
<rscale>  2 0.45542437E+03</rscale>
<asrwt>0</asrwt>
<pdfrwt beam="1">  1       21 0.29635551E-01 0.45542437E+03</pdfrwt>
<pdfrwt beam="2">  1       21 0.37839178E-01 0.45542437E+03</pdfrwt>
<totfact> 0.68035467E+04</totfact>
</mgrwt>
</event>
<event>
 7    0  0.4831799E-002  0.4343805E+03  0.7546771E-02  0.1032485E+00
         21   -1    0    0  502  501  0.00000000000E+00  0.00000000000E+00  0.61668576153E+03  0.61668576153E+03  0.00000000000E+00 0.  1.
         21   -1    0    0  501  502 -0.00000000000E+00 -0.00000000000E+00 -0.76492114282E+02  0.76492114282E+02  0.00000000000E+00 0.  1.
      99926    2    1    2    0    0 -0.71054273576E-14  0.00000000000E+00  0.54019364725E+03  0.69317787581E+03  0.43438046801E+03 0.  0.
      99925    2    3    3    0    0 -0.60078928695E+02 -0.59361086262E+02  0.40687605874E+03  0.49179688430E+03  0.26302629526E+03 0.  0.
         25    1    4    4    0    0 -0.68333228637E+02 -0.28876649539E+02  0.18743401632E+03  0.23723892935E+03  0.12509000000E+03 0.  0.
         25    1    3    3    0    0  0.60078928695E+02  0.59361086262E+02  0.13331758851E+03  0.20138099151E+03  0.12509000000E+03 0.  0.
         25    1    4    4    0    0  0.82542999420E+01 -0.30484436724E+02  0.21944204242E+03  0.25455795495E+03  0.12509000000E+03 0.  0.
<mgrwt>
<rscale>  2 0.43438047E+03</rscale>
<asrwt>0</asrwt>
<pdfrwt beam="1">  1       21 0.90689080E-01 0.43438047E+03</pdfrwt>
<pdfrwt beam="2">  1       21 0.11248841E-01 0.43438047E+03</pdfrwt>
<totfact> 0.62874725E+04</totfact>
</mgrwt>
</event>
<event>
 7    0  0.4831799E-002  0.4607711E+03  0.7546771E-02  0.1024558E+00
         21   -1    0    0  502  501  0.00000000000E+00  0.00000000000E+00  0.55305049670E+03  0.55305049670E+03  0.00000000000E+00 0. -1.
         21   -1    0    0  501  502 -0.00000000000E+00 -0.00000000000E+00 -0.95972239663E+02  0.95972239663E+02  0.00000000000E+00 0. -1.
      99926    2    1    2    0    0 -0.88817841970E-15  0.00000000000E+00  0.45707825704E+03  0.64902273636E+03  0.46077107034E+03 0.  0.
      99925    2    3    3    0    0  0.68446413398E+01  0.64807926047E+02  0.42548373060E+03  0.50447987561E+03  0.26309052338E+03 0.  0.
         25    1    4    4    0    0 -0.67224006111E+01  0.58186643918E+02  0.27859168247E+03  0.31095290614E+03  0.12509000000E+03 0.  0.
         25    1    3    3    0    0 -0.68446413398E+01 -0.64807926047E+02  0.31594526431E+02  0.14454286075E+03  0.12509000000E+03 0.  0.
         25    1    4    4    0    0  0.13567041951E+02  0.66212821294E+01  0.14689204814E+03  0.19352696947E+03  0.12509000000E+03 0.  0.
<mgrwt>
<rscale>  2 0.46077107E+03</rscale>
<asrwt>0</asrwt>
<pdfrwt beam="1">  1       21 0.81330954E-01 0.46077107E+03</pdfrwt>
<pdfrwt beam="2">  1       21 0.14113565E-01 0.46077107E+03</pdfrwt>
<totfact> 0.53289702E+04</totfact>
</mgrwt>
</event>
<event>
 7    0  0.4831799E-002  0.4417532E+03  0.7546771E-02  0.1030210E+00
         21   -1    0    0  502  501  0.00000000000E+00  0.00000000000E+00  0.44790579918E+03  0.44790579918E+03  0.00000000000E+00 0.  1.
         21   -1    0    0  501  502 -0.00000000000E+00 -0.00000000000E+00 -0.10892126508E+03  0.10892126508E+03  0.00000000000E+00 0.  1.
      99926    2    1    2    0    0  0.00000000000E+00  0.00000000000E+00  0.33898453410E+03  0.55682706427E+03  0.44175317219E+03 0.  0.
      99925    2    3    3    0    0 -0.89460629330E+02 -0.43952075690E+02  0.22949802695E+03  0.36299777725E+03  0.26298869321E+03 0.  0.
         25    1    4    4    0    0 -0.10159095113E+02 -0.25039750080E+02  0.75915479965E+02  0.14879806617E+03  0.12509000000E+03 0.  0.
         25    1    4    4    0    0 -0.79301534217E+02 -0.18912325610E+02  0.15358254699E+03  0.21419971108E+03  0.12509000000E+03 0.  0.
         25    1    3    3    0    0  0.89460629330E+02  0.43952075690E+02  0.10948650715E+03  0.19382928702E+03  0.12509000000E+03 0.  0.
<mgrwt>
<rscale>  2 0.44175317E+03</rscale>
<asrwt>0</asrwt>
<pdfrwt beam="1">  1       21 0.65868499E-01 0.44175317E+03</pdfrwt>
<pdfrwt beam="2">  1       21 0.16017833E-01 0.44175317E+03</pdfrwt>
<totfact> 0.68297916E+04</totfact>
</mgrwt>
</event>
<event>
 7    0  0.4831799E-002  0.4335907E+03  0.7546771E-02  0.1032732E+00
         21   -1    0    0  502  501  0.00000000000E+00  0.00000000000E+00  0.38486028517E+03  0.38486028517E+03  0.00000000000E+00 0.  1.
         21   -1    0    0  501  502 -0.00000000000E+00 -0.00000000000E+00 -0.12212279847E+03  0.12212279847E+03  0.00000000000E+00 0.  1.
      99926    2    1    2    0    0  0.44408920985E-15  0.00000000000E+00  0.26273748670E+03  0.50698308364E+03  0.43359065970E+03 0.  0.
      99925    2    3    3    0    0  0.17191000403E+01 -0.36628803554E+02  0.26678020502E+03  0.37656653474E+03  0.26322243966E+03 0.  0.
         25    1    4    4    0    0  0.10102798731E+02 -0.58201847896E+02  0.14652519263E+03  0.20151094714E+03  0.12509000000E+03 0.  0.
         25    1    4    4    0    0 -0.83836986905E+01  0.21573044342E+02  0.12025501239E+03  0.17505558760E+03  0.12509000000E+03 0.  0.
         25    1    3    3    0    0 -0.17191000403E+01  0.36628803554E+02 -0.40427183247E+01  0.13041654890E+03  0.12509000000E+03 0.  0.
<mgrwt>
<rscale>  2 0.43359066E+03</rscale>
<asrwt>0</asrwt>
<pdfrwt beam="1">  1       21 0.56597100E-01 0.43359066E+03</pdfrwt>
<pdfrwt beam="2">  1       21 0.17959235E-01 0.43359066E+03</pdfrwt>
<totfact> 0.77059385E+04</totfact>
</mgrwt>
</event>
<event>
 7    0  0.4831799E-002  0.4487831E+03  0.7546771E-02  0.1028086E+00
         21   -1    0    0  502  501  0.00000000000E+00  0.00000000000E+00  0.72846876683E+02  0.72846876683E+02  0.00000000000E+00 0.  1.
         21   -1    0    0  501  502 -0.00000000000E+00 -0.00000000000E+00 -0.69119743376E+03  0.69119743376E+03  0.00000000000E+00 0.  1.
      99926    2    1    2    0    0 -0.14210854715E-13  0.88817841970E-15 -0.61835055708E+03  0.76404431045E+03  0.44878312901E+03 0.  0.
      99925    2    3    3    0    0 -0.10583361188E+03  0.53393651772E+01 -0.36334954779E+03  0.46089041378E+03  0.26299775172E+03 0.  0.
         25    1    4    4    0    0 -0.92942465216E+02 -0.10347856273E+02 -0.18518211580E+03  0.24225049862E+03  0.12509000000E+03 0.  0.
         25    1    4    4    0    0 -0.12891146664E+02  0.15687221450E+02 -0.17816743199E+03  0.21863991516E+03  0.12509000000E+03 0.  0.
         25    1    3    3    0    0  0.10583361188E+03 -0.53393651772E+01 -0.25500100929E+03  0.30315389667E+03  0.12509000000E+03 0.  0.
<mgrwt>
<rscale>  2 0.44878313E+03</rscale>
<asrwt>0</asrwt>
<pdfrwt beam="1">  1       21 0.10712776E-01 0.44878313E+03</pdfrwt>
<pdfrwt beam="2">  1       21 0.10164668E+00 0.44878313E+03</pdfrwt>
<totfact> 0.52047070E+04</totfact>
</mgrwt>
</event>
<event>
 7    0  0.4831799E-002  0.4464006E+03  0.7546771E-02  0.1028801E+00
         21   -1    0    0  502  501  0.00000000000E+00  0.00000000000E+00  0.39547668562E+03  0.39547668562E+03  0.00000000000E+00 0.  1.
         21   -1    0    0  501  502 -0.00000000000E+00 -0.00000000000E+00 -0.12597045656E+03  0.12597045656E+03  0.00000000000E+00 0.  1.
      99926    2    1    2    0    0  0.00000000000E+00 -0.35527136788E-14  0.26950622906E+03  0.52144714218E+03  0.44640062117E+03 0.  0.
      99925    2    3    3    0    0  0.92648335592E+02  0.25472491878E+02  0.12164792936E+03  0.30524782020E+03  0.26295522640E+03 0.  0.
         25    1    4    4    0    0  0.57322527488E+02  0.47682514701E+02  0.43589525164E+02  0.15201002983E+03  0.12509000000E+03 0.  0.
         25    1    4    4    0    0  0.35325808104E+02 -0.22210022823E+02  0.78058404198E+02  0.15323779037E+03  0.12509000000E+03 0.  0.
         25    1    3    3    0    0 -0.92648335592E+02 -0.25472491878E+02  0.14785829970E+03  0.21619932197E+03  0.12509000000E+03 0.  0.
<mgrwt>
<rscale>  2 0.44640062E+03</rscale>
<asrwt>0</asrwt>
<pdfrwt beam="1">  1       21 0.58158336E-01 0.44640062E+03</pdfrwt>
<pdfrwt beam="2">  1       21 0.18525067E-01 0.44640062E+03</pdfrwt>
<totfact> 0.68328373E+04</totfact>
</mgrwt>
</event>
<event>
 7    0  0.4831799E-002  0.4544689E+03  0.7546771E-02  0.1026398E+00
         21   -1    0    0  502  501  0.00000000000E+00  0.00000000000E+00  0.40984170574E+02  0.40984170574E+02  0.00000000000E+00 0. -1.
         21   -1    0    0  501  502 -0.00000000000E+00 -0.00000000000E+00 -0.12598889290E+04  0.12598889290E+04  0.00000000000E+00 0. -1.
      99926    2    1    2    0    0  0.35527136788E-14  0.00000000000E+00 -0.12189047584E+04  0.13008730996E+04  0.45446893302E+03 0.  0.
      99925    2    3    3    0    0  0.27860224785E+02 -0.23589794085E+02 -0.10725866899E+04  0.11049415917E+04  0.26290881153E+03 0.  0.
         25    1    4    4    0    0 -0.18808065239E+01 -0.17101438108E+02 -0.37820069103E+03  0.39872204280E+03  0.12509000000E+03 0.  0.
         25    1    3    3    0    0 -0.27860224785E+02  0.23589794085E+02 -0.14631806858E+03  0.19593150794E+03  0.12509000000E+03 0.  0.
         25    1    4    4    0    0  0.29741031309E+02 -0.64883559774E+01 -0.69438599884E+03  0.70621954886E+03  0.12509000000E+03 0.  0.
<mgrwt>
<rscale>  2 0.45446893E+03</rscale>
<asrwt>0</asrwt>
<pdfrwt beam="1">  1       21 0.60270840E-02 0.45446893E+03</pdfrwt>
<pdfrwt beam="2">  1       21 0.18527778E+00 0.45446893E+03</pdfrwt>
<totfact> 0.29209793E+04</totfact>
</mgrwt>
</event>
<event>
 7    0  0.4831799E-002  0.4521958E+03  0.7546771E-02  0.1027069E+00
         21   -1    0    0  502  501  0.00000000000E+00  0.00000000000E+00  0.42729585644E+03  0.42729585644E+03  0.00000000000E+00 0. -1.
         21   -1    0    0  501  502 -0.00000000000E+00 -0.00000000000E+00 -0.11963666610E+03  0.11963666610E+03  0.00000000000E+00 0. -1.
      99926    2    1    2    0    0 -0.14210854715E-13  0.00000000000E+00  0.30765919035E+03  0.54693252254E+03  0.45219576160E+03 0.  0.
      99925    2    3    3    0    0  0.85884691391E+02  0.33199584747E+02  0.26805573273E+03  0.38663799800E+03  0.26297656360E+03 0.  0.
         25    1    4    4    0    0  0.84815476859E+02  0.18283055369E+02  0.15713939743E+03  0.21878810195E+03  0.12509000000E+03 0.  0.
         25    1    4    4    0    0  0.10692145317E+01  0.14916529378E+02  0.11091633530E+03  0.16784989605E+03  0.12509000000E+03 0.  0.
         25    1    3    3    0    0 -0.85884691391E+02 -0.33199584747E+02  0.39603457616E+02  0.16029452454E+03  0.12509000000E+03 0.  0.
<mgrwt>
<rscale>  2 0.45219576E+03</rscale>
<asrwt>0</asrwt>
<pdfrwt beam="1">  1       21 0.62837625E-01 0.45219576E+03</pdfrwt>
<pdfrwt beam="2">  1       21 0.17593628E-01 0.45219576E+03</pdfrwt>
<totfact> 0.63466209E+04</totfact>
</mgrwt>
</event>
<event>
 7    0  0.4831799E-002  0.4501008E+03  0.7546771E-02  0.1027692E+00
         21   -1    0    0  502  501  0.00000000000E+00  0.00000000000E+00  0.37048031706E+03  0.37048031706E+03  0.00000000000E+00 0.  1.
         21   -1    0    0  501  502 -0.00000000000E+00 -0.00000000000E+00 -0.13670816209E+03  0.13670816209E+03  0.00000000000E+00 0.  1.
      99926    2    1    2    0    0  0.00000000000E+00  0.00000000000E+00  0.23377215497E+03  0.50718847916E+03  0.45010080310E+03 0.  0.
      99925    2    3    3    0    0  0.48325808531E+01 -0.54335838714E+02  0.25334432451E+03  0.36932508616E+03  0.26313862374E+03 0.  0.
         25    1    4    4    0    0  0.29671607294E+01 -0.26869662224E+02  0.70587103822E+02  0.14615344716E+03  0.12509000000E+03 0.  0.
         25    1    4    4    0    0  0.18654201238E+01 -0.27466176490E+02  0.18275722068E+03  0.22317163900E+03  0.12509000000E+03 0.  0.
         25    1    3    3    0    0 -0.48325808531E+01  0.54335838714E+02 -0.19572169539E+02  0.13786339299E+03  0.12509000000E+03 0.  0.
<mgrwt>
<rscale>  2 0.45010080E+03</rscale>
<asrwt>0</asrwt>
<pdfrwt beam="1">  1       21 0.54482399E-01 0.45010080E+03</pdfrwt>
<pdfrwt beam="2">  1       21 0.20104142E-01 0.45010080E+03</pdfrwt>
<totfact> 0.67349329E+04</totfact>
</mgrwt>
</event>
<event>
 7    0  0.4831799E-002  0.4560691E+03  0.7546771E-02  0.1025927E+00
         21   -1    0    0  502  501  0.00000000000E+00  0.00000000000E+00  0.24222608343E+02  0.24222608343E+02  0.00000000000E+00 0. -1.
         21   -1    0    0  501  502 -0.00000000000E+00 -0.00000000000E+00 -0.21467443597E+04  0.21467443597E+04  0.00000000000E+00 0. -1.
      99926    2    1    2    0    0 -0.71054273576E-14  0.00000000000E+00 -0.21225217513E+04  0.21709669680E+04  0.45606906423E+03 0.  0.
      99925    2    3    3    0    0 -0.17399157781E+02 -0.70245802038E+02 -0.91426215693E+03  0.95409558659E+03  0.26303211466E+03 0.  0.
         25    1    4    4    0    0 -0.32887487858E+02 -0.18160719073E+01 -0.44058635252E+03  0.45918267291E+03  0.12509000000E+03 0.  0.
         25    1    4    4    0    0  0.15488330077E+02 -0.68429730131E+02 -0.47367580442E+03  0.49491291368E+03  0.12509000000E+03 0.  0.
         25    1    3    3    0    0  0.17399157781E+02  0.70245802038E+02 -0.12082595944E+04  0.12168713814E+04  0.12509000000E+03 0.  0.
<mgrwt>
<rscale>  2 0.45606906E+03</rscale>
<asrwt>0</asrwt>
<pdfrwt beam="1">  1       21 0.35621467E-02 0.45606906E+03</pdfrwt>
<pdfrwt beam="2">  1       21 0.31569784E+00 0.45606906E+03</pdfrwt>
<totfact> 0.11022167E+04</totfact>
</mgrwt>
</event>
<event>
 7    0  0.4831799E-002  0.4450651E+03  0.7546771E-02  0.1029204E+00
         21   -1    0    0  502  501  0.00000000000E+00  0.00000000000E+00  0.94302667085E+03  0.94302667085E+03  0.00000000000E+00 0. -1.
         21   -1    0    0  501  502 -0.00000000000E+00 -0.00000000000E+00 -0.52512559467E+02  0.52512559467E+02  0.00000000000E+00 0. -1.
      99926    2    1    2    0    0  0.00000000000E+00  0.00000000000E+00  0.89051411138E+03  0.99553923032E+03  0.44506513740E+03 0.  0.
      99925    2    3    3    0    0  0.10118896151E+03  0.22208048820E+01  0.61498934228E+03  0.67646941915E+03  0.26297308994E+03 0.  0.
         25    1    4    4    0    0  0.63924907945E+02 -0.13945193248E+02  0.40285409209E+03  0.42687210014E+03  0.12509000000E+03 0.  0.
         25    1    3    3    0    0 -0.10118896151E+03 -0.22208048820E+01  0.27552476911E+03  0.31906981116E+03  0.12509000000E+03 0.  0.
         25    1    4    4    0    0  0.37264053562E+02  0.16165998130E+02  0.21213525019E+03  0.24959731901E+03  0.12509000000E+03 0.  0.
<mgrwt>
<rscale>  2 0.44506514E+03</rscale>
<asrwt>0</asrwt>
<pdfrwt beam="1">  1       21 0.13868038E+00 0.44506514E+03</pdfrwt>
<pdfrwt beam="2">  1       21 0.77224358E-02 0.44506514E+03</pdfrwt>
<totfact> 0.42547488E+04</totfact>
</mgrwt>
</event>
<event>
 7    0  0.4831799E-002  0.4684938E+03  0.7546771E-02  0.1022346E+00
         21   -1    0    0  502  501  0.00000000000E+00  0.00000000000E+00  0.18322505211E+03  0.18322505211E+03  0.00000000000E+00 0.  1.
         21   -1    0    0  501  502 -0.00000000000E+00 -0.00000000000E+00 -0.29947657183E+03  0.29947657183E+03  0.00000000000E+00 0.  1.
      99926    2    1    2    0    0  0.00000000000E+00  0.00000000000E+00 -0.11625151971E+03  0.48270162394E+03  0.46849380137E+03 0.  0.
      99925    2    3    3    0    0 -0.25709175923E+02  0.10896414184E+03 -0.13061244151E+03  0.31421456180E+03  0.26293922309E+03 0.  0.
         25    1    3    3    0    0  0.25709175923E+02 -0.10896414184E+03  0.14360921800E+02  0.16848706214E+03  0.12509000000E+03 0.  0.
         25    1    4    4    0    0 -0.78999401033E+01  0.29182337829E+02 -0.96725837217E+02  0.16098886166E+03  0.12509000000E+03 0.  0.
         25    1    4    4    0    0 -0.17809235820E+02  0.79781804009E+02 -0.33886604295E+02  0.15322570014E+03  0.12509000000E+03 0.  0.
<mgrwt>
<rscale>  2 0.46849380E+03</rscale>
<asrwt>0</asrwt>
<pdfrwt beam="1">  1       21 0.26944861E-01 0.46849380E+03</pdfrwt>
<pdfrwt beam="2">  1       21 0.44040672E-01 0.46849380E+03</pdfrwt>
<totfact> 0.59835456E+04</totfact>
</mgrwt>
</event>
<event>
 7    0  0.4831799E-002  0.4548571E+03  0.7546771E-02  0.1026283E+00
         21   -1    0    0  502  501  0.00000000000E+00  0.00000000000E+00  0.45654378293E+03  0.45654378293E+03  0.00000000000E+00 0. -1.
         21   -1    0    0  501  502 -0.00000000000E+00 -0.00000000000E+00 -0.11329414783E+03  0.11329414783E+03  0.00000000000E+00 0. -1.
      99926    2    1    2    0    0 -0.17763568394E-14  0.00000000000E+00  0.34324963510E+03  0.56983793076E+03  0.45485707133E+03 0.  0.
      99925    2    3    3    0    0 -0.10688937677E+02  0.53861257791E+02  0.33972608679E+03  0.43318065151E+03  0.26309004983E+03 0.  0.
         25    1    4    4    0    0 -0.60527063972E+01  0.59326434146E+02  0.13704092699E+03  0.19489480448E+03  0.12509000000E+03 0.  0.
         25    1    4    4    0    0 -0.46362312800E+01 -0.54651763548E+01  0.20268515980E+03  0.23828584703E+03  0.12509000000E+03 0.  0.
         25    1    3    3    0    0  0.10688937677E+02 -0.53861257791E+02  0.35235483100E+01  0.13665727925E+03  0.12509000000E+03 0.  0.
<mgrwt>
<rscale>  2 0.45485707E+03</rscale>
<asrwt>0</asrwt>
<pdfrwt beam="1">  1       21 0.67138791E-01 0.45485707E+03</pdfrwt>
<pdfrwt beam="2">  1       21 0.16660904E-01 0.45485707E+03</pdfrwt>
<totfact> 0.60642840E+04</totfact>
</mgrwt>
</event>
<event>
 7    0  0.4831799E-002  0.4605902E+03  0.7546771E-02  0.1024610E+00
         21   -1    0    0  502  501  0.00000000000E+00  0.00000000000E+00  0.74707114170E+03  0.74707114170E+03  0.00000000000E+00 0.  1.
         21   -1    0    0  501  502 -0.00000000000E+00 -0.00000000000E+00 -0.70991674214E+02  0.70991674214E+02  0.00000000000E+00 0.  1.
      99926    2    1    2    0    0 -0.71054273576E-14  0.00000000000E+00  0.67607946748E+03  0.81806281591E+03  0.46059019141E+03 0.  0.
      99925    2    3    3    0    0  0.63632214982E+02 -0.37907297245E+02  0.25911234491E+03  0.37648030790E+03  0.26289197970E+03 0.  0.
         25    1    3    3    0    0 -0.63632214982E+02  0.37907297245E+02  0.41696712257E+03  0.44158250801E+03  0.12509000000E+03 0.  0.
         25    1    4    4    0    0  0.47689743625E+02 -0.38937718549E+01  0.84249174371E+02  0.15822422251E+03  0.12509000000E+03 0.  0.
         25    1    4    4    0    0  0.15942471357E+02 -0.34013525390E+02  0.17486317054E+03  0.21825608540E+03  0.12509000000E+03 0.  0.
<mgrwt>
<rscale>  2 0.46059019E+03</rscale>
<asrwt>0</asrwt>
<pdfrwt beam="1">  1       21 0.10986340E+00 0.46059019E+03</pdfrwt>
<pdfrwt beam="2">  1       21 0.10439953E-01 0.46059019E+03</pdfrwt>
<totfact> 0.44901281E+04</totfact>
</mgrwt>
</event>
<event>
 7    0  0.4831799E-002  0.4521648E+03  0.7546771E-02  0.1027078E+00
         21   -1    0    0  502  501  0.00000000000E+00  0.00000000000E+00  0.18483358212E+04  0.18483358212E+04  0.00000000000E+00 0.  1.
         21   -1    0    0  501  502 -0.00000000000E+00 -0.00000000000E+00 -0.27653658466E+02  0.27653658466E+02  0.00000000000E+00 0.  1.
      99926    2    1    2    0    0  0.55511151231E-16  0.35527136788E-14  0.18206821628E+04  0.18759894797E+04  0.45216478205E+03 0.  0.
      99925    2    3    3    0    0 -0.44767804750E+00 -0.22627455423E+02  0.15970536666E+04  0.16187553168E+04  0.26320364658E+03 0.  0.
         25    1    3    3    0    0  0.44767804750E+00  0.22627455423E+02  0.22362849616E+03  0.25723416287E+03  0.12509000000E+03 0.  0.
         25    1    4    4    0    0  0.10233695892E+02  0.10108947074E+02  0.99117145379E+03  0.99913726697E+03  0.12509000000E+03 0.  0.
         25    1    4    4    0    0 -0.10681373940E+02 -0.32736402497E+02  0.60588221283E+03  0.61961804986E+03  0.12509000000E+03 0.  0.
<mgrwt>
<rscale>  2 0.45216478E+03</rscale>
<asrwt>0</asrwt>
<pdfrwt beam="1">  1       21 0.27181401E+00 0.45216478E+03</pdfrwt>
<pdfrwt beam="2">  1       21 0.40667157E-02 0.45216478E+03</pdfrwt>
<totfact> 0.16195421E+04</totfact>
</mgrwt>
</event>
<event>
 7    0  0.4831799E-002  0.4537936E+03  0.7546771E-02  0.1026597E+00
         21   -1    0    0  502  501  0.00000000000E+00  0.00000000000E+00  0.60099975676E+02  0.60099975676E+02  0.00000000000E+00 0. -1.
         21   -1    0    0  501  502 -0.00000000000E+00 -0.00000000000E+00 -0.85660879828E+03  0.85660879828E+03  0.00000000000E+00 0. -1.
      99926    2    1    2    0    0  0.35527136788E-14  0.00000000000E+00 -0.79650882260E+03  0.91670877396E+03  0.45379364447E+03 0.  0.
      99925    2    3    3    0    0  0.21640134311E+02  0.80402392904E+02 -0.35097378568E+03  0.44651539095E+03  0.26317400313E+03 0.  0.
         25    1    3    3    0    0 -0.21640134311E+02 -0.80402392904E+02 -0.44553503692E+03  0.47019338301E+03  0.12509000000E+03 0.  0.
         25    1    4    4    0    0 -0.51727781037E+01  0.16371160823E+01 -0.17413175256E+03  0.21447333898E+03  0.12509000000E+03 0.  0.
         25    1    4    4    0    0  0.26812912415E+02  0.78765276822E+02 -0.17684203312E+03  0.23204205197E+03  0.12509000000E+03 0.  0.
<mgrwt>
<rscale>  2 0.45379364E+03</rscale>
<asrwt>0</asrwt>
<pdfrwt beam="1">  1       21 0.88382324E-02 0.45379364E+03</pdfrwt>
<pdfrwt beam="2">  1       21 0.12597187E+00 0.45379364E+03</pdfrwt>
<totfact> 0.42922826E+04</totfact>
</mgrwt>
</event>
<event>
 7    0  0.4831799E-002  0.4573649E+03  0.7546771E-02  0.1025548E+00
         21   -1    0    0  502  501  0.00000000000E+00  0.00000000000E+00  0.24685667210E+03  0.24685667210E+03  0.00000000000E+00 0. -1.
         21   -1    0    0  501  502 -0.00000000000E+00 -0.00000000000E+00 -0.21184624357E+03  0.21184624357E+03  0.00000000000E+00 0. -1.
      99926    2    1    2    0    0  0.14210854715E-13  0.00000000000E+00  0.35010428536E+02  0.45870291567E+03  0.45736488140E+03 0.  0.
      99925    2    3    3    0    0  0.10464299980E+03  0.45784297176E+02 -0.45794048702E+00  0.28563682258E+03  0.26180493775E+03 0.  0.
         25    1    3    3    0    0 -0.10464299980E+03 -0.45784297176E+02  0.35468369023E+02  0.17306609309E+03  0.12509000000E+03 0.  0.
         25    1    4    4    0    0  0.47838614993E+02 -0.10296129516E+02 -0.20585942437E+02  0.13588904479E+03  0.12509000000E+03 0.  0.
         25    1    4    4    0    0  0.56804384809E+02  0.56080426692E+02  0.20128001950E+02  0.14974777779E+03  0.12509000000E+03 0.  0.
<mgrwt>
<rscale>  2 0.45736488E+03</rscale>
<asrwt>0</asrwt>
<pdfrwt beam="1">  1       21 0.36302452E-01 0.45736488E+03</pdfrwt>
<pdfrwt beam="2">  1       21 0.31153859E-01 0.45736488E+03</pdfrwt>
<totfact> 0.67002202E+04</totfact>
</mgrwt>
</event>
<event>
 7    0  0.4831799E-002  0.4482356E+03  0.7546771E-02  0.1028250E+00
         21   -1    0    0  502  501  0.00000000000E+00  0.00000000000E+00  0.76583768926E+03  0.76583768926E+03  0.00000000000E+00 0.  1.
         21   -1    0    0  501  502 -0.00000000000E+00 -0.00000000000E+00 -0.65586729025E+02  0.65586729025E+02  0.00000000000E+00 0.  1.
      99926    2    1    2    0    0  0.00000000000E+00  0.00000000000E+00  0.70025096023E+03  0.83142441828E+03  0.44823560324E+03 0.  0.
      99925    2    3    3    0    0 -0.92685182561E+01 -0.54636965150E+02  0.27425407047E+03  0.38399625468E+03  0.26299567497E+03 0.  0.
         25    1    4    4    0    0  0.33861259931E+02 -0.40082420650E+02  0.13702326594E+03  0.19281096670E+03  0.12509000000E+03 0.  0.
         25    1    3    3    0    0  0.92685182561E+01  0.54636965150E+02  0.42599688976E+03  0.44742816360E+03  0.12509000000E+03 0.  0.
         25    1    4    4    0    0 -0.43129778187E+02 -0.14554544500E+02  0.13723080452E+03  0.19118528799E+03  0.12509000000E+03 0.  0.
<mgrwt>
<rscale>  2 0.44823560E+03</rscale>
<asrwt>0</asrwt>
<pdfrwt beam="1">  1       21 0.11262318E+00 0.44823560E+03</pdfrwt>
<pdfrwt beam="2">  1       21 0.96451077E-02 0.44823560E+03</pdfrwt>
<totfact> 0.48822119E+04</totfact>
</mgrwt>
</event>
<event>
 7    0  0.4831799E-002  0.4584848E+03  0.7546771E-02  0.1025222E+00
         21   -1    0    0  502  501  0.00000000000E+00  0.00000000000E+00  0.58437495923E+03  0.58437495923E+03  0.00000000000E+00 0.  1.
         21   -1    0    0  501  502 -0.00000000000E+00 -0.00000000000E+00 -0.89928705385E+02  0.89928705385E+02  0.00000000000E+00 0.  1.
      99926    2    1    2    0    0  0.00000000000E+00  0.00000000000E+00  0.49444625385E+03  0.67430366462E+03  0.45848482436E+03 0.  0.
      99925    2    3    3    0    0  0.62363874889E+02 -0.93830689682E+02  0.26612479045E+03  0.39062841021E+03  0.26282066043E+03 0.  0.
         25    1    4    4    0    0  0.81715071744E+01 -0.50649796862E+02  0.84387511286E+02  0.15937670976E+03  0.12509000000E+03 0.  0.
         25    1    4    4    0    0  0.54192367714E+02 -0.43180892820E+02  0.18173727917E+03  0.23125170045E+03  0.12509000000E+03 0.  0.
         25    1    3    3    0    0 -0.62363874889E+02  0.93830689682E+02  0.22832146340E+03  0.28367525441E+03  0.12509000000E+03 0.  0.
<mgrwt>
<rscale>  2 0.45848482E+03</rscale>
<asrwt>0</asrwt>
<pdfrwt beam="1">  1       21 0.85937492E-01 0.45848482E+03</pdfrwt>
<pdfrwt beam="2">  1       21 0.13224810E-01 0.45848482E+03</pdfrwt>
<totfact> 0.52853963E+04</totfact>
</mgrwt>
</event>
<event>
 7    0  0.4831799E-002  0.4543016E+03  0.7546771E-02  0.1026447E+00
         21   -1    0    0  502  501  0.00000000000E+00  0.00000000000E+00  0.12289505006E+03  0.12289505006E+03  0.00000000000E+00 0. -1.
         21   -1    0    0  501  502 -0.00000000000E+00 -0.00000000000E+00 -0.41984990456E+03  0.41984990456E+03  0.00000000000E+00 0. -1.
      99926    2    1    2    0    0  0.00000000000E+00  0.17763568394E-14 -0.29695485450E+03  0.54274495462E+03  0.45430155200E+03 0.  0.
      99925    2    3    3    0    0 -0.10829701624E+03  0.15863919021E+02 -0.16089271687E+03  0.32794197268E+03  0.26396886834E+03 0.  0.
         25    1    3    3    0    0  0.10829701624E+03 -0.15863919021E+02 -0.13606213763E+03  0.21480298193E+03  0.12509000000E+03 0.  0.
         25    1    4    4    0    0 -0.90521576798E+02  0.13149601660E+02 -0.59789787680E+02  0.16610055599E+03  0.12509000000E+03 0.  0.
         25    1    4    4    0    0 -0.17775439437E+02  0.27143173604E+01 -0.10110292919E+03  0.16184141669E+03  0.12509000000E+03 0.  0.
<mgrwt>
<rscale>  2 0.45430155E+03</rscale>
<asrwt>0</asrwt>
<pdfrwt beam="1">  1       21 0.18072802E-01 0.45430155E+03</pdfrwt>
<pdfrwt beam="2">  1       21 0.61742633E-01 0.45430155E+03</pdfrwt>
<totfact> 0.62694290E+04</totfact>
</mgrwt>
</event>
<event>
 7    0  0.4831799E-002  0.4571730E+03  0.7546771E-02  0.1025604E+00
         21   -1    0    0  502  501  0.00000000000E+00  0.00000000000E+00  0.42512552340E+03  0.42512552340E+03  0.00000000000E+00 0.  1.
         21   -1    0    0  501  502 -0.00000000000E+00 -0.00000000000E+00 -0.12290908329E+03  0.12290908329E+03  0.00000000000E+00 0.  1.
      99926    2    1    2    0    0  0.00000000000E+00  0.00000000000E+00  0.30221644011E+03  0.54803460669E+03  0.45717300167E+03 0.  0.
      99925    2    3    3    0    0  0.89987697918E+01 -0.34165323192E+02  0.32105540105E+03  0.41669283223E+03  0.26326431343E+03 0.  0.
         25    1    3    3    0    0 -0.89987697918E+01  0.34165323192E+02 -0.18838960943E+02  0.13134177445E+03  0.12509000000E+03 0.  0.
         25    1    4    4    0    0 -0.17054655209E+02 -0.48404936906E+02  0.18905583453E+03  0.23242959332E+03  0.12509000000E+03 0.  0.
         25    1    4    4    0    0  0.26053425001E+02  0.14239613714E+02  0.13199956652E+03  0.18426323891E+03  0.12509000000E+03 0.  0.
<mgrwt>
<rscale>  2 0.45717300E+03</rscale>
<asrwt>0</asrwt>
<pdfrwt beam="1">  1       21 0.62518459E-01 0.45717300E+03</pdfrwt>
<pdfrwt beam="2">  1       21 0.18074865E-01 0.45717300E+03</pdfrwt>
<totfact> 0.60941988E+04</totfact>
</mgrwt>
</event>
<event>
 7    0  0.4831799E-002  0.4590457E+03  0.7546771E-02  0.1025058E+00
         21   -1    0    0  502  501  0.00000000000E+00  0.00000000000E+00  0.46837269357E+03  0.46837269357E+03  0.00000000000E+00 0.  1.
         21   -1    0    0  501  502 -0.00000000000E+00 -0.00000000000E+00 -0.11247613335E+03  0.11247613335E+03  0.00000000000E+00 0.  1.
      99926    2    1    2    0    0  0.14210854715E-13  0.00000000000E+00  0.35589656022E+03  0.58084882692E+03  0.45904574735E+03 0.  0.
      99925    2    3    3    0    0 -0.68558924685E+02 -0.85335677525E+02  0.17089010304E+03  0.33213734486E+03  0.26292448444E+03 0.  0.
         25    1    3    3    0    0  0.68558924685E+02  0.85335677525E+02  0.18500645717E+03  0.24871148206E+03  0.12509000000E+03 0.  0.
         25    1    4    4    0    0 -0.73893241105E+02 -0.58572378214E+02  0.89198051161E+02  0.18026296070E+03  0.12509000000E+03 0.  0.
         25    1    4    4    0    0  0.53343164194E+01 -0.26763299312E+02  0.81692051883E+02  0.15187438416E+03  0.12509000000E+03 0.  0.
<mgrwt>
<rscale>  2 0.45904575E+03</rscale>
<asrwt>0</asrwt>
<pdfrwt beam="1">  1       21 0.68878337E-01 0.45904575E+03</pdfrwt>
<pdfrwt beam="2">  1       21 0.16540608E-01 0.45904575E+03</pdfrwt>
<totfact> 0.57995514E+04</totfact>
</mgrwt>
</event>
<event>
 7    0  0.4831799E-002  0.4561580E+03  0.7546771E-02  0.1025901E+00
         21   -1    0    0  502  501  0.00000000000E+00  0.00000000000E+00  0.24717843639E+03  0.24717843639E+03  0.00000000000E+00 0.  1.
         21   -1    0    0  501  502 -0.00000000000E+00 -0.00000000000E+00 -0.21045541334E+03  0.21045541334E+03  0.00000000000E+00 0.  1.
      99926    2    1    2    0    0  0.00000000000E+00  0.00000000000E+00  0.36723023045E+02  0.45763384973E+03  0.45615804279E+03 0.  0.
      99925    2    3    3    0    0 -0.82860604498E+02 -0.59351257701E+02 -0.28646248530E+02  0.28353875694E+03  0.26303073501E+03 0.  0.
         25    1    4    4    0    0 -0.51292772646E+02 -0.63439134748E+01  0.17844025877E+02  0.13651780515E+03  0.12509000000E+03 0.  0.
         25    1    3    3    0    0  0.82860604498E+02  0.59351257701E+02  0.65369271575E+02  0.17409509279E+03  0.12509000000E+03 0.  0.
         25    1    4    4    0    0 -0.31567831853E+02 -0.53007344227E+02 -0.46490274406E+02  0.14702095179E+03  0.12509000000E+03 0.  0.
<mgrwt>
<rscale>  2 0.45615804E+03</rscale>
<asrwt>0</asrwt>
<pdfrwt beam="1">  1       21 0.36349770E-01 0.45615804E+03</pdfrwt>
<pdfrwt beam="2">  1       21 0.30949325E-01 0.45615804E+03</pdfrwt>
<totfact> 0.67725373E+04</totfact>
</mgrwt>
</event>
<event>
 7    0  0.4831799E-002  0.4540438E+03  0.7546771E-02  0.1026523E+00
         21   -1    0    0  502  501  0.00000000000E+00  0.00000000000E+00  0.70969274766E+03  0.70969274766E+03  0.00000000000E+00 0. -1.
         21   -1    0    0  501  502 -0.00000000000E+00 -0.00000000000E+00 -0.72621493758E+02  0.72621493758E+02  0.00000000000E+00 0. -1.
      99926    2    1    2    0    0  0.00000000000E+00  0.00000000000E+00  0.63707125391E+03  0.78231424142E+03  0.45404381923E+03 0.  0.
      99925    2    3    3    0    0 -0.59413256908E+02  0.45523826089E+02  0.25741715850E+03  0.37563612043E+03  0.26312838623E+03 0.  0.
         25    1    4    4    0    0 -0.39799685668E+02 -0.16842316241E+02  0.12904249734E+03  0.18484359014E+03  0.12509000000E+03 0.  0.
         25    1    3    3    0    0  0.59413256908E+02 -0.45523826089E+02  0.37965409540E+03  0.40667812099E+03  0.12509000000E+03 0.  0.
         25    1    4    4    0    0 -0.19613571240E+02  0.62366142330E+02  0.12837466117E+03  0.19079253029E+03  0.12509000000E+03 0.  0.
<mgrwt>
<rscale>  2 0.45404382E+03</rscale>
<asrwt>0</asrwt>
<pdfrwt beam="1">  1       21 0.10436658E+00 0.45404382E+03</pdfrwt>
<pdfrwt beam="2">  1       21 0.10679632E-01 0.45404382E+03</pdfrwt>
<totfact> 0.48998892E+04</totfact>
</mgrwt>
</event>
<event>
 7    0  0.4831799E-002  0.4570198E+03  0.7546771E-02  0.1025649E+00
         21   -1    0    0  502  501  0.00000000000E+00  0.00000000000E+00  0.30270699397E+03  0.30270699397E+03  0.00000000000E+00 0.  1.
         21   -1    0    0  501  502 -0.00000000000E+00 -0.00000000000E+00 -0.17249943396E+03  0.17249943396E+03  0.00000000000E+00 0.  1.
      99926    2    1    2    0    0  0.71054273576E-14  0.00000000000E+00  0.13020756000E+03  0.47520642793E+03  0.45701984690E+03 0.  0.
      99925    2    3    3    0    0 -0.56287950717E+02 -0.33654352142E+02 -0.16477161744E+02  0.27157719499E+03  0.26302419502E+03 0.  0.
         25    1    3    3    0    0  0.56287950717E+02  0.33654352142E+02  0.14668472175E+03  0.20362923294E+03  0.12509000000E+03 0.  0.
         25    1    4    4    0    0 -0.63758719492E+02 -0.18967884326E+02 -0.29566280881E+02  0.14472949945E+03  0.12509000000E+03 0.  0.
         25    1    4    4    0    0  0.74707687746E+01 -0.14686467816E+02  0.13089119137E+02  0.12684769554E+03  0.12509000000E+03 0.  0.
<mgrwt>
<rscale>  2 0.45701985E+03</rscale>
<asrwt>0</asrwt>
<pdfrwt beam="1">  1       21 0.44515735E-01 0.45701985E+03</pdfrwt>
<pdfrwt beam="2">  1       21 0.25367564E-01 0.45701985E+03</pdfrwt>
<totfact> 0.65986731E+04</totfact>
</mgrwt>
</event>
<event>
 7    0  0.4831799E-002  0.4475329E+03  0.7546771E-02  0.1028460E+00
         21   -1    0    0  502  501  0.00000000000E+00  0.00000000000E+00  0.13069008670E+03  0.13069008670E+03  0.00000000000E+00 0.  1.
         21   -1    0    0  501  502 -0.00000000000E+00 -0.00000000000E+00 -0.38313097662E+03  0.38313097662E+03  0.00000000000E+00 0.  1.
      99926    2    1    2    0    0  0.00000000000E+00  0.00000000000E+00 -0.25244088992E+03  0.51382106331E+03  0.44753288393E+03 0.  0.
      99925    2    3    3    0    0 -0.38336115368E+02  0.79984532912E+01 -0.46762145777E+02  0.26992582578E+03  0.26294413884E+03 0.  0.
         25    1    4    4    0    0  0.27329733835E+01  0.20940458336E+02  0.71665202495E+01  0.12706234317E+03  0.12509000000E+03 0.  0.
         25    1    3    3    0    0  0.38336115368E+02 -0.79984532912E+01 -0.20567874415E+03  0.24389523753E+03  0.12509000000E+03 0.  0.
         25    1    4    4    0    0 -0.41069088751E+02 -0.12942005045E+02 -0.53928666026E+02  0.14286348261E+03  0.12509000000E+03 0.  0.
<mgrwt>
<rscale>  2 0.44753288E+03</rscale>
<asrwt>0</asrwt>
<pdfrwt beam="1">  1       21 0.19219130E-01 0.44753288E+03</pdfrwt>
<pdfrwt beam="2">  1       21 0.56342792E-01 0.44753288E+03</pdfrwt>
<totfact> 0.68265888E+04</totfact>
</mgrwt>
</event>
<event>
 7    0  0.4831799E-002  0.4638721E+03  0.7546771E-02  0.1023664E+00
         21   -1    0    0  502  501  0.00000000000E+00  0.00000000000E+00  0.12447559523E+03  0.12447559523E+03  0.00000000000E+00 0.  1.
         21   -1    0    0  501  502 -0.00000000000E+00 -0.00000000000E+00 -0.43216775969E+03  0.43216775969E+03  0.00000000000E+00 0.  1.
      99926    2    1    2    0    0  0.00000000000E+00 -0.88817841970E-15 -0.30769216446E+03  0.55664335492E+03  0.46387213379E+03 0.  0.
      99925    2    3    3    0    0 -0.58028867632E+02  0.52809497554E+01 -0.64433068799E+02  0.27696901997E+03  0.26299235684E+03 0.  0.
         25    1    4    4    0    0 -0.45488324493E+02  0.39833084525E+02 -0.36029130763E+02  0.14353211714E+03  0.12509000000E+03 0.  0.
         25    1    3    3    0    0  0.58028867632E+02 -0.52809497554E+01 -0.24325909566E+03  0.27967433495E+03  0.12509000000E+03 0.  0.
         25    1    4    4    0    0 -0.12540543139E+02 -0.34552134769E+02 -0.28403938036E+02  0.13343690282E+03  0.12509000000E+03 0.  0.
<mgrwt>
<rscale>  2 0.46387213E+03</rscale>
<asrwt>0</asrwt>
<pdfrwt beam="1">  1       21 0.18305235E-01 0.46387213E+03</pdfrwt>
<pdfrwt beam="2">  1       21 0.63554081E-01 0.46387213E+03</pdfrwt>
<totfact> 0.57300811E+04</totfact>
</mgrwt>
</event>
<event>
 7    0  0.4831799E-002  0.4370088E+03  0.7546771E-02  0.1031669E+00
         21   -1    0    0  502  501  0.00000000000E+00  0.00000000000E+00  0.39588328759E+03  0.39588328759E+03  0.00000000000E+00 0. -1.
         21   -1    0    0  501  502 -0.00000000000E+00 -0.00000000000E+00 -0.12060166263E+03  0.12060166263E+03  0.00000000000E+00 0. -1.
      99926    2    1    2    0    0  0.00000000000E+00  0.00000000000E+00  0.27528162496E+03  0.51648495022E+03  0.43700884518E+03 0.  0.
      99925    2    3    3    0    0  0.19002934093E+02 -0.62273032830E+02  0.95669605333E+02  0.28812771295E+03  0.26386713221E+03 0.  0.
         25    1    4    4    0    0  0.32605651800E+02 -0.28474041443E+02  0.11173397888E+02  0.13283919785E+03  0.12509000000E+03 0.  0.
         25    1    4    4    0    0 -0.13602717706E+02 -0.33798991387E+02  0.84496207444E+02  0.15528851509E+03  0.12509000000E+03 0.  0.
         25    1    3    3    0    0 -0.19002934093E+02  0.62273032830E+02  0.17961201963E+03  0.22835723728E+03  0.12509000000E+03 0.  0.
<mgrwt>
<rscale>  2 0.43700885E+03</rscale>
<asrwt>0</asrwt>
<pdfrwt beam="1">  1       21 0.58218130E-01 0.43700885E+03</pdfrwt>
<pdfrwt beam="2">  1       21 0.17735539E-01 0.43700885E+03</pdfrwt>
<totfact> 0.74149341E+04</totfact>
</mgrwt>
</event>
<event>
 7    0  0.4831799E-002  0.4339639E+03  0.7546771E-02  0.1032615E+00
         21   -1    0    0  502  501  0.00000000000E+00  0.00000000000E+00  0.16596397192E+03  0.16596397192E+03  0.00000000000E+00 0.  1.
         21   -1    0    0  501  502 -0.00000000000E+00 -0.00000000000E+00 -0.28368301223E+03  0.28368301223E+03  0.00000000000E+00 0.  1.
      99926    2    1    2    0    0  0.00000000000E+00 -0.71054273576E-14 -0.11771904031E+03  0.44964698415E+03  0.43396386705E+03 0.  0.
      99925    2    3    3    0    0  0.21023238197E+02 -0.39158772852E+02 -0.15913930369E+03  0.31058393242E+03  0.26298607390E+03 0.  0.
         25    1    4    4    0    0  0.11987377414E+02  0.18406803098E+02 -0.58743546987E+02  0.13993148334E+03  0.12509000000E+03 0.  0.
         25    1    4    4    0    0  0.90358607831E+01 -0.57565575950E+02 -0.10039575670E+03  0.17065244908E+03  0.12509000000E+03 0.  0.
         25    1    3    3    0    0 -0.21023238197E+02  0.39158772852E+02  0.41420263381E+02  0.13906305172E+03  0.12509000000E+03 0.  0.
<mgrwt>
<rscale>  2 0.43396387E+03</rscale>
<asrwt>0</asrwt>
<pdfrwt beam="1">  1       21 0.24406467E-01 0.43396387E+03</pdfrwt>
<pdfrwt beam="2">  1       21 0.41718090E-01 0.43396387E+03</pdfrwt>
<totfact> 0.81800738E+04</totfact>
</mgrwt>
</event>
<event>
 7    0  0.4831799E-002  0.4557839E+03  0.7546771E-02  0.1026011E+00
         21   -1    0    0  502  501  0.00000000000E+00  0.00000000000E+00  0.41401000707E+03  0.41401000707E+03  0.00000000000E+00 0. -1.
         21   -1    0    0  501  502 -0.00000000000E+00 -0.00000000000E+00 -0.12544319211E+03  0.12544319211E+03  0.00000000000E+00 0. -1.
      99926    2    1    2    0    0 -0.35527136788E-14  0.00000000000E+00  0.28856681496E+03  0.53945319918E+03  0.45578388235E+03 0.  0.
      99925    2    3    3    0    0  0.28763936624E+02 -0.10888766329E+03  0.16101536671E+03  0.32826426169E+03  0.26295929328E+03 0.  0.
         25    1    3    3    0    0 -0.28763936624E+02  0.10888766329E+03  0.12755144825E+03  0.21118893749E+03  0.12509000000E+03 0.  0.
         25    1    4    4    0    0  0.13334033727E+02 -0.30458422988E+02  0.11419493351E+03  0.17260794572E+03  0.12509000000E+03 0.  0.
         25    1    4    4    0    0  0.15429902897E+02 -0.78429240300E+02  0.46820433196E+02  0.15565631597E+03  0.12509000000E+03 0.  0.
<mgrwt>
<rscale>  2 0.45578388E+03</rscale>
<asrwt>0</asrwt>
<pdfrwt beam="1">  1       21 0.60883824E-01 0.45578388E+03</pdfrwt>
<pdfrwt beam="2">  1       21 0.18447528E-01 0.45578388E+03</pdfrwt>
<totfact> 0.62182222E+04</totfact>
</mgrwt>
</event>
<event>
 7    0  0.4831799E-002  0.4601678E+03  0.7546771E-02  0.1024733E+00
         21   -1    0    0  502  501  0.00000000000E+00  0.00000000000E+00  0.11170365709E+03  0.11170365709E+03  0.00000000000E+00 0.  1.
         21   -1    0    0  501  502 -0.00000000000E+00 -0.00000000000E+00 -0.47392003873E+03  0.47392003873E+03  0.00000000000E+00 0.  1.
      99926    2    1    2    0    0  0.14210854715E-13  0.35527136788E-14 -0.36221638164E+03  0.58562369582E+03  0.46016780198E+03 0.  0.
      99925    2    3    3    0    0  0.68483007079E+02  0.22887868347E+02 -0.34550499355E+03  0.44022577504E+03  0.26308032170E+03 0.  0.
         25    1    3    3    0    0 -0.68483007079E+02 -0.22887868347E+02 -0.16711388089E+02  0.14539792078E+03  0.12509000000E+03 0.  0.
         25    1    4    4    0    0  0.36638238310E+01  0.21017285594E+02 -0.20600074989E+03  0.24194827330E+03  0.12509000000E+03 0.  0.
         25    1    4    4    0    0  0.64819183248E+02  0.18705827528E+01 -0.13950424366E+03  0.19827750174E+03  0.12509000000E+03 0.  0.
<mgrwt>
<rscale>  2 0.46016780E+03</rscale>
<asrwt>0</asrwt>
<pdfrwt beam="1">  1       21 0.16427008E-01 0.46016780E+03</pdfrwt>
<pdfrwt beam="2">  1       21 0.69694124E-01 0.46016780E+03</pdfrwt>
<totfact> 0.57199378E+04</totfact>
</mgrwt>
</event>
<event>
 7    0  0.4831799E-002  0.4560849E+03  0.7546771E-02  0.1025923E+00
         21   -1    0    0  502  501  0.00000000000E+00  0.00000000000E+00  0.25591354020E+03  0.25591354020E+03  0.00000000000E+00 0. -1.
         21   -1    0    0  501  502 -0.00000000000E+00 -0.00000000000E+00 -0.20320673397E+03  0.20320673397E+03  0.00000000000E+00 0. -1.
      99926    2    1    2    0    0  0.71054273576E-14 -0.71054273576E-14  0.52706806233E+02  0.45912027417E+03  0.45608488106E+03 0.  0.
      99925    2    3    3    0    0 -0.38254040332E+02 -0.43033733829E+02 -0.66049678756E+02  0.27728000174E+03  0.26307102739E+03 0.  0.
         25    1    3    3    0    0  0.38254040332E+02  0.43033733829E+02  0.11875648499E+03  0.18184027243E+03  0.12509000000E+03 0.  0.
         25    1    4    4    0    0  0.21918873565E+02 -0.21031072336E+02 -0.29519297056E+02  0.13206680136E+03  0.12509000000E+03 0.  0.
         25    1    4    4    0    0 -0.60172913897E+02 -0.22002661493E+02 -0.36530381700E+02  0.14521320039E+03  0.12509000000E+03 0.  0.
<mgrwt>
<rscale>  2 0.45608488E+03</rscale>
<asrwt>0</asrwt>
<pdfrwt beam="1">  1       21 0.37634344E-01 0.45608488E+03</pdfrwt>
<pdfrwt beam="2">  1       21 0.29883343E-01 0.45608488E+03</pdfrwt>
<totfact> 0.67657387E+04</totfact>
</mgrwt>
</event>
<event>
 7    0  0.4831799E-002  0.4531045E+03  0.7546771E-02  0.1026800E+00
         21   -1    0    0  502  501  0.00000000000E+00  0.00000000000E+00  0.10122872908E+03  0.10122872908E+03  0.00000000000E+00 0.  1.
         21   -1    0    0  501  502 -0.00000000000E+00 -0.00000000000E+00 -0.50702929118E+03  0.50702929118E+03  0.00000000000E+00 0.  1.
      99926    2    1    2    0    0  0.00000000000E+00  0.00000000000E+00 -0.40580056210E+03  0.60825802027E+03  0.45310453873E+03 0.  0.
      99925    2    3    3    0    0 -0.10555784007E+03 -0.96160124914E+01 -0.30170865290E+03  0.41404793052E+03  0.26300694333E+03 0.  0.
         25    1    4    4    0    0 -0.27459226735E+02 -0.10681149063E+02 -0.93605908364E+02  0.15898952877E+03  0.12509000000E+03 0.  0.
         25    1    3    3    0    0  0.10555784007E+03  0.96160124914E+01 -0.10409190920E+03  0.19421008974E+03  0.12509000000E+03 0.  0.
         25    1    4    4    0    0 -0.78098613338E+02  0.10651365719E+01 -0.20810274454E+03  0.25505840175E+03  0.12509000000E+03 0.  0.
<mgrwt>
<rscale>  2 0.45310454E+03</rscale>
<asrwt>0</asrwt>
<pdfrwt beam="1">  1       21 0.14886578E-01 0.45310454E+03</pdfrwt>
<pdfrwt beam="2">  1       21 0.74563130E-01 0.45310454E+03</pdfrwt>
<totfact> 0.59052041E+04</totfact>
</mgrwt>
</event>
<event>
 7    0  0.4831799E-002  0.4583431E+03  0.7546771E-02  0.1025263E+00
         21   -1    0    0  502  501  0.00000000000E+00  0.00000000000E+00  0.16655399956E+03  0.16655399956E+03  0.00000000000E+00 0. -1.
         21   -1    0    0  501  502 -0.00000000000E+00 -0.00000000000E+00 -0.31533072006E+03  0.31533072006E+03  0.00000000000E+00 0. -1.
      99926    2    1    2    0    0  0.71054273576E-14  0.00000000000E+00 -0.14877672050E+03  0.48188471961E+03  0.45834307067E+03 0.  0.
      99925    2    3    3    0    0 -0.63764527525E+02 -0.94273619015E+02 -0.11801441919E+03  0.30999156241E+03  0.26308541467E+03 0.  0.
         25    1    3    3    0    0  0.63764527525E+02  0.94273619015E+02 -0.30762301314E+02  0.17189315721E+03  0.12509000000E+03 0.  0.
         25    1    4    4    0    0 -0.45775331113E+02 -0.88676239213E+02 -0.61307540105E+02  0.17136212800E+03  0.12509000000E+03 0.  0.
         25    1    4    4    0    0 -0.17989196412E+02 -0.55973798014E+01 -0.56706879084E+02  0.13862943441E+03  0.12509000000E+03 0.  0.
<mgrwt>
<rscale>  2 0.45834307E+03</rscale>
<asrwt>0</asrwt>
<pdfrwt beam="1">  1       21 0.24493236E-01 0.45834307E+03</pdfrwt>
<pdfrwt beam="2">  1       21 0.46372164E-01 0.45834307E+03</pdfrwt>
<totfact> 0.64825828E+04</totfact>
</mgrwt>
</event>
<event>
 7    0  0.4831799E-002  0.4501691E+03  0.7546771E-02  0.1027672E+00
         21   -1    0    0  502  501  0.00000000000E+00  0.00000000000E+00  0.20259578992E+03  0.20259578992E+03  0.00000000000E+00 0.  1.
         21   -1    0    0  501  502 -0.00000000000E+00 -0.00000000000E+00 -0.25006963494E+03  0.25006963494E+03  0.00000000000E+00 0.  1.
      99926    2    1    2    0    0  0.00000000000E+00  0.00000000000E+00 -0.47473845029E+02  0.45266542486E+03  0.45016910256E+03 0.  0.
      99925    2    3    3    0    0  0.58733792979E+02  0.79268485646E+02 -0.75679518081E+02  0.29087475966E+03  0.26295928410E+03 0.  0.
         25    1    4    4    0    0  0.34950904876E+01  0.17851261724E+02 -0.87480259178E+01  0.12670800788E+03  0.12509000000E+03 0.  0.
         25    1    4    4    0    0  0.55238702491E+02  0.61417223922E+02 -0.66931492163E+02  0.16416675178E+03  0.12509000000E+03 0.  0.
         25    1    3    3    0    0 -0.58733792979E+02 -0.79268485646E+02  0.28205673052E+02  0.16179066520E+03  0.12509000000E+03 0.  0.
<mgrwt>
<rscale>  2 0.45016910E+03</rscale>
<asrwt>0</asrwt>
<pdfrwt beam="1">  1       21 0.29793499E-01 0.45016910E+03</pdfrwt>
<pdfrwt beam="2">  1       21 0.36774946E-01 0.45016910E+03</pdfrwt>
<totfact> 0.71430868E+04</totfact>
</mgrwt>
</event>
<event>
 7    0  0.4831799E-002  0.4635981E+03  0.7546771E-02  0.1023743E+00
         21   -1    0    0  502  501  0.00000000000E+00  0.00000000000E+00  0.10176395792E+03  0.10176395792E+03  0.00000000000E+00 0.  1.
         21   -1    0    0  501  502 -0.00000000000E+00 -0.00000000000E+00 -0.52799430758E+03  0.52799430758E+03  0.00000000000E+00 0.  1.
      99926    2    1    2    0    0  0.00000000000E+00  0.00000000000E+00 -0.42623034966E+03  0.62975826550E+03  0.46359806082E+03 0.  0.
      99925    2    3    3    0    0 -0.28236685738E+02  0.21612356151E+02 -0.10932020042E+03  0.28720322591E+03  0.26319267162E+03 0.  0.
         25    1    3    3    0    0  0.28236685738E+02 -0.21612356151E+02 -0.31691014923E+03  0.34255503959E+03  0.12509000000E+03 0.  0.
         25    1    4    4    0    0 -0.40643934904E+02  0.63681744267E+01 -0.22291574302E+02  0.13355487814E+03  0.12509000000E+03 0.  0.
         25    1    4    4    0    0  0.12407249166E+02  0.15244181724E+02 -0.87028626120E+02  0.15364834777E+03  0.12509000000E+03 0.  0.
<mgrwt>
<rscale>  2 0.46359806E+03</rscale>
<asrwt>0</asrwt>
<pdfrwt beam="1">  1       21 0.14965288E-01 0.46359806E+03</pdfrwt>
<pdfrwt beam="2">  1       21 0.77646223E-01 0.46359806E+03</pdfrwt>
<totfact> 0.53180194E+04</totfact>
</mgrwt>
</event>
<event>
 7    0  0.4831799E-002  0.4490365E+03  0.7546771E-02  0.1028010E+00
         21   -1    0    0  502  501  0.00000000000E+00  0.00000000000E+00  0.64140196542E+02  0.64140196542E+02  0.00000000000E+00 0. -1.
         21   -1    0    0  501  502 -0.00000000000E+00 -0.00000000000E+00 -0.78591032228E+03  0.78591032228E+03  0.00000000000E+00 0. -1.
      99926    2    1    2    0    0  0.14210854715E-13  0.00000000000E+00 -0.72177012574E+03  0.85005051882E+03  0.44903649088E+03 0.  0.
      99925    2    3    3    0    0  0.10651144252E+03 -0.11140650879E+02 -0.47449706967E+03  0.55296421175E+03  0.26296986304E+03 0.  0.
         25    1    4    4    0    0  0.44780395220E+02  0.30500633633E+02 -0.26267425639E+03  0.29594061148E+03  0.12509000000E+03 0.  0.
         25    1    3    3    0    0 -0.10651144252E+03  0.11140650879E+02 -0.24727305607E+03  0.29708630707E+03  0.12509000000E+03 0.  0.
         25    1    4    4    0    0  0.61731047300E+02 -0.41641284512E+02 -0.21182281327E+03  0.25702360028E+03  0.12509000000E+03 0.  0.
<mgrwt>
<rscale>  2 0.44903649E+03</rscale>
<asrwt>0</asrwt>
<pdfrwt beam="1">  1       21 0.94323819E-02 0.44903649E+03</pdfrwt>
<pdfrwt beam="2">  1       21 0.11557505E+00 0.44903649E+03</pdfrwt>
<totfact> 0.47626302E+04</totfact>
</mgrwt>
</event>
<event>
 7    0  0.4831799E-002  0.4514340E+03  0.7546771E-02  0.1027295E+00
         21   -1    0    0  502  501  0.00000000000E+00  0.00000000000E+00  0.22921729350E+03  0.22921729350E+03  0.00000000000E+00 0. -1.
         21   -1    0    0  501  502 -0.00000000000E+00 -0.00000000000E+00 -0.22227014606E+03  0.22227014606E+03  0.00000000000E+00 0. -1.
      99926    2    1    2    0    0  0.00000000000E+00 -0.44408920985E-15  0.69471474331E+01  0.45148743956E+03  0.45143398767E+03 0.  0.
      99925    2    3    3    0    0 -0.90973896491E+02  0.23540619442E+01  0.65845428801E+02  0.28596309966E+03  0.26297810256E+03 0.  0.
         25    1    4    4    0    0 -0.98762143854E+01 -0.20259774886E+02  0.22574767395E+02  0.12909347897E+03  0.12509000000E+03 0.  0.
         25    1    3    3    0    0  0.90973896491E+02 -0.23540619442E+01 -0.58898281368E+02  0.16552433990E+03  0.12509000000E+03 0.  0.
         25    1    4    4    0    0 -0.81097682106E+02  0.22613836830E+02  0.43270661406E+02  0.15686962070E+03  0.12509000000E+03 0.  0.
<mgrwt>
<rscale>  2 0.45143399E+03</rscale>
<asrwt>0</asrwt>
<pdfrwt beam="1">  1       21 0.33708426E-01 0.45143399E+03</pdfrwt>
<pdfrwt beam="2">  1       21 0.32686786E-01 0.45143399E+03</pdfrwt>
<totfact> 0.70796936E+04</totfact>
</mgrwt>
</event>
<event>
 6    0  0.4831799E-002  0.4569401E+03  0.7546771E-02  0.1025672E+00
         21   -1    0    0  502  501  0.00000000000E+00  0.00000000000E+00  0.29392476807E+03  0.29392476807E+03  0.00000000000E+00 0. -1.
         21   -1    0    0  501  502 -0.00000000000E+00 -0.00000000000E+00 -0.17759155062E+03  0.17759155062E+03  0.00000000000E+00 0. -1.
      99926    2    1    2    0    0 -0.88817841970E-15 -0.14210854715E-13  0.11633321745E+03  0.47151631868E+03  0.45694006314E+03 0.  0.
         25    1    3    3    0    0  0.24876309018E+02 -0.29167652374E+02  0.58478571790E+02  0.14330678335E+03  0.12509000000E+03 0.  0.
         25    1    3    3    0    0 -0.29844104745E+02 -0.82285866813E+02  0.49075475783E+02  0.16036690709E+03  0.12509000000E+03 0.  0.
         25    1    3    3    0    0  0.49677957271E+01  0.11145351919E+03  0.87791698776E+01  0.16784262825E+03  0.12509000000E+03 0.  0.
<mgrwt>
<rscale>  2 0.45694006E+03</rscale>
<asrwt>0</asrwt>
<pdfrwt beam="1">  1       21 0.43224231E-01 0.45694006E+03</pdfrwt>
<pdfrwt beam="2">  1       21 0.26116404E-01 0.45694006E+03</pdfrwt>
<totfact> 0.66296868E+04</totfact>
</mgrwt>
</event>
<event>
 7    0  0.4831799E-002  0.4520672E+03  0.7546771E-02  0.1027107E+00
         21   -1    0    0  502  501  0.00000000000E+00  0.00000000000E+00  0.47002943749E+03  0.47002943749E+03  0.00000000000E+00 0. -1.
         21   -1    0    0  501  502 -0.00000000000E+00 -0.00000000000E+00 -0.10869782511E+03  0.10869782511E+03  0.00000000000E+00 0. -1.
      99926    2    1    2    0    0  0.00000000000E+00  0.00000000000E+00  0.36133161238E+03  0.57872726260E+03  0.45206715250E+03 0.  0.
      99925    2    3    3    0    0 -0.67684125667E+02 -0.65707718675E+02  0.15464444013E+03  0.31937086604E+03  0.26302889966E+03 0.  0.
         25    1    4    4    0    0 -0.50464421321E+00 -0.19357306651E+02  0.46016780906E+02  0.13468486259E+03  0.12509000000E+03 0.  0.
         25    1    3    3    0    0  0.67684125667E+02  0.65707718675E+02  0.20668717225E+03  0.25935639655E+03  0.12509000000E+03 0.  0.
         25    1    4    4    0    0 -0.67179481454E+02 -0.46350412024E+02  0.10862765922E+03  0.18468600345E+03  0.12509000000E+03 0.  0.
<mgrwt>
<rscale>  2 0.45206715E+03</rscale>
<asrwt>0</asrwt>
<pdfrwt beam="1">  1       21 0.69121975E-01 0.45206715E+03</pdfrwt>
<pdfrwt beam="2">  1       21 0.15984974E-01 0.45206715E+03</pdfrwt>
<totfact> 0.61418913E+04</totfact>
</mgrwt>
</event>
<event>
 7    0  0.4831799E-002  0.4826433E+03  0.7546771E-02  0.1018411E+00
         21   -1    0    0  502  501  0.00000000000E+00  0.00000000000E+00  0.22438778262E+03  0.22438778262E+03  0.00000000000E+00 0. -1.
         21   -1    0    0  501  502 -0.00000000000E+00 -0.00000000000E+00 -0.25953348452E+03  0.25953348452E+03  0.00000000000E+00 0. -1.
      99926    2    1    2    0    0 -0.35527136788E-14  0.00000000000E+00 -0.35145701898E+02  0.48392126715E+03  0.48264331803E+03 0.  0.
      99925    2    3    3    0    0 -0.31712230453E+02  0.12538544288E+03  0.25189301827E+02  0.29414509472E+03  0.26298224460E+03 0.  0.
         25    1    4    4    0    0 -0.24038824414E+02  0.85963210390E+02  0.47584983379E+02  0.16087068522E+03  0.12509000000E+03 0.  0.
         25    1    4    4    0    0 -0.76734060394E+01  0.39422232493E+02 -0.22395681552E+02  0.13327440950E+03  0.12509000000E+03 0.  0.
         25    1    3    3    0    0  0.31712230453E+02 -0.12538544288E+03 -0.60335003725E+02  0.18977617243E+03  0.12509000000E+03 0.  0.
<mgrwt>
<rscale>  2 0.48264332E+03</rscale>
<asrwt>0</asrwt>
<pdfrwt beam="1">  1       21 0.32998203E-01 0.48264332E+03</pdfrwt>
<pdfrwt beam="2">  1       21 0.38166689E-01 0.48264332E+03</pdfrwt>
<totfact> 0.53634727E+04</totfact>
</mgrwt>
</event>
<event>
 7    0  0.4831799E-002  0.4539650E+03  0.7546771E-02  0.1026546E+00
         21   -1    0    0  502  501  0.00000000000E+00  0.00000000000E+00  0.76178534693E+03  0.76178534693E+03  0.00000000000E+00 0. -1.
         21   -1    0    0  501  502 -0.00000000000E+00 -0.00000000000E+00 -0.67631996860E+02  0.67631996860E+02  0.00000000000E+00 0. -1.
      99926    2    1    2    0    0  0.00000000000E+00  0.00000000000E+00  0.69415335007E+03  0.82941734379E+03  0.45396503915E+03 0.  0.
      99925    2    3    3    0    0 -0.53005982736E+01 -0.10116351681E+03  0.52537270653E+03  0.59618662710E+03  0.26298262316E+03 0.  0.
         25    1    4    4    0    0 -0.98040772920E+01 -0.71279364629E+02  0.20289355716E+03  0.24897825486E+03  0.12509000000E+03 0.  0.
         25    1    3    3    0    0  0.53005982736E+01  0.10116351681E+03  0.16878064353E+03  0.23323071669E+03  0.12509000000E+03 0.  0.
         25    1    4    4    0    0  0.45034790184E+01 -0.29884152185E+02  0.32247914937E+03  0.34720837224E+03  0.12509000000E+03 0.  0.
<mgrwt>
<rscale>  2 0.45396504E+03</rscale>
<asrwt>0</asrwt>
<pdfrwt beam="1">  1       21 0.11202725E+00 0.45396504E+03</pdfrwt>
<pdfrwt beam="2">  1       21 0.99458823E-02 0.45396504E+03</pdfrwt>
<totfact> 0.46753115E+04</totfact>
</mgrwt>
</event>
<event>
 7    0  0.4831799E-002  0.4559839E+03  0.7546771E-02  0.1025952E+00
         21   -1    0    0  502  501  0.00000000000E+00  0.00000000000E+00  0.48609053646E+03  0.48609053646E+03  0.00000000000E+00 0. -1.
         21   -1    0    0  501  502 -0.00000000000E+00 -0.00000000000E+00 -0.10693546629E+03  0.10693546629E+03  0.00000000000E+00 0. -1.
      99926    2    1    2    0    0  0.11102230246E-15 -0.17763568394E-14  0.37915507017E+03  0.59302600274E+03  0.45598385135E+03 0.  0.
      99925    2    3    3    0    0  0.29701325096E+00  0.14612129880E+02  0.38549874748E+03  0.46692543614E+03  0.26305223064E+03 0.  0.
         25    1    4    4    0    0  0.74524685981E+01  0.42568560022E+02  0.16205804611E+03  0.20923178535E+03  0.12509000000E+03 0.  0.
         25    1    4    4    0    0 -0.71554553472E+01 -0.27956430142E+02  0.22344070137E+03  0.25769365079E+03  0.12509000000E+03 0.  0.
         25    1    3    3    0    0 -0.29701325096E+00 -0.14612129880E+02 -0.63436773105E+01  0.12610056661E+03  0.12509000000E+03 0.  0.
<mgrwt>
<rscale>  2 0.45598385E+03</rscale>
<asrwt>0</asrwt>
<pdfrwt beam="1">  1       21 0.71483902E-01 0.45598385E+03</pdfrwt>
<pdfrwt beam="2">  1       21 0.15725804E-01 0.45598385E+03</pdfrwt>
<totfact> 0.58652232E+04</totfact>
</mgrwt>
</event>
<event>
 7    0  0.4831799E-002  0.4614151E+03  0.7546771E-02  0.1024372E+00
         21   -1    0    0  502  501  0.00000000000E+00  0.00000000000E+00  0.22196053570E+03  0.22196053570E+03  0.00000000000E+00 0.  1.
         21   -1    0    0  501  502 -0.00000000000E+00 -0.00000000000E+00 -0.23979922873E+03  0.23979922873E+03  0.00000000000E+00 0.  1.
      99926    2    1    2    0    0  0.00000000000E+00 -0.14210854715E-13 -0.17838693029E+02  0.46175976443E+03  0.46141506378E+03 0.  0.
      99925    2    3    3    0    0 -0.45071530446E+02 -0.10207726835E+03  0.30740855668E+02  0.28723557636E+03  0.26288412761E+03 0.  0.
         25    1    3    3    0    0  0.45071530446E+02  0.10207726835E+03 -0.48579548697E+02  0.17452418807E+03  0.12509000000E+03 0.  0.
         25    1    4    4    0    0 -0.18549936155E+01 -0.60897387619E+02  0.48827228807E+02  0.14745690622E+03  0.12509000000E+03 0.  0.
         25    1    4    4    0    0 -0.43216536830E+02 -0.41179880730E+02 -0.18086373139E+02  0.13977867014E+03  0.12509000000E+03 0.  0.
<mgrwt>
<rscale>  2 0.46141506E+03</rscale>
<asrwt>0</asrwt>
<pdfrwt beam="1">  1       21 0.32641256E-01 0.46141506E+03</pdfrwt>
<pdfrwt beam="2">  1       21 0.35264592E-01 0.46141506E+03</pdfrwt>
<totfact> 0.64678867E+04</totfact>
</mgrwt>
</event>
<event>
 7    0  0.4831799E-002  0.4535891E+03  0.7546771E-02  0.1026657E+00
         21   -1    0    0  502  501  0.00000000000E+00  0.00000000000E+00  0.17683624676E+03  0.17683624676E+03  0.00000000000E+00 0.  1.
         21   -1    0    0  501  502 -0.00000000000E+00 -0.00000000000E+00 -0.29086662212E+03  0.29086662212E+03  0.00000000000E+00 0.  1.
      99926    2    1    2    0    0  0.00000000000E+00  0.35527136788E-14 -0.11403037536E+03  0.46770286888E+03  0.45358907290E+03 0.  0.
      99925    2    3    3    0    0  0.10487985265E+03 -0.25218682038E+02 -0.10261542512E+03  0.30213241679E+03  0.26290360665E+03 0.  0.
         25    1    3    3    0    0 -0.10487985265E+03  0.25218682038E+02 -0.11414950242E+02  0.16557045209E+03  0.12509000000E+03 0.  0.
         25    1    4    4    0    0  0.20254348536E+02  0.67438240101E+00 -0.72422023021E+02  0.14595598975E+03  0.12509000000E+03 0.  0.
         25    1    4    4    0    0  0.84625504117E+02 -0.25893064439E+02 -0.30193402096E+02  0.15617642704E+03  0.12509000000E+03 0.  0.
<mgrwt>
<rscale>  2 0.45358907E+03</rscale>
<asrwt>0</asrwt>
<pdfrwt beam="1">  1       21 0.26005331E-01 0.45358907E+03</pdfrwt>
<pdfrwt beam="2">  1       21 0.42774502E-01 0.45358907E+03</pdfrwt>
<totfact> 0.68369006E+04</totfact>
</mgrwt>
</event>
<event>
 7    0  0.4831799E-002  0.4556233E+03  0.7546771E-02  0.1026058E+00
         21   -1    0    0  502  501  0.00000000000E+00  0.00000000000E+00  0.10032553491E+04  0.10032553491E+04  0.00000000000E+00 0.  1.
         21   -1    0    0  501  502 -0.00000000000E+00 -0.00000000000E+00 -0.51729757144E+02  0.51729757144E+02  0.00000000000E+00 0.  1.
      99926    2    1    2    0    0  0.00000000000E+00  0.00000000000E+00  0.95152559191E+03  0.10549851062E+04  0.45562333373E+03 0.  0.
      99925    2    3    3    0    0 -0.56540384680E+02  0.84707525784E+02  0.71565432813E+03  0.76923181890E+03  0.26302907408E+03 0.  0.
         25    1    4    4    0    0 -0.56967341003E+02  0.33237579556E+02  0.29073762929E+03  0.32330464243E+03  0.12509000000E+03 0.  0.
         25    1    4    4    0    0  0.42695632227E+00  0.51469946228E+02  0.42491669884E+03  0.44592717647E+03  0.12509000000E+03 0.  0.
         25    1    3    3    0    0  0.56540384680E+02 -0.84707525784E+02  0.23587126379E+03  0.28575328730E+03  0.12509000000E+03 0.  0.
<mgrwt>
<rscale>  2 0.45562333E+03</rscale>
<asrwt>0</asrwt>
<pdfrwt beam="1">  1       21 0.14753754E+00 0.45562333E+03</pdfrwt>
<pdfrwt beam="2">  1       21 0.76073178E-02 0.45562333E+03</pdfrwt>
<totfact> 0.36915080E+04</totfact>
</mgrwt>
</event>
<event>
 7    0  0.4831799E-002  0.4434224E+03  0.7546771E-02  0.1029702E+00
         21   -1    0    0  502  501  0.00000000000E+00  0.00000000000E+00  0.11042246633E+03  0.11042246633E+03  0.00000000000E+00 0. -1.
         21   -1    0    0  501  502 -0.00000000000E+00 -0.00000000000E+00 -0.44516176563E+03  0.44516176563E+03  0.00000000000E+00 0. -1.
      99926    2    1    2    0    0  0.00000000000E+00  0.00000000000E+00 -0.33473929930E+03  0.55558423196E+03  0.44342241746E+03 0.  0.
      99925    2    3    3    0    0  0.78124160812E+02  0.12543779669E+02 -0.29345508341E+03  0.40192023002E+03  0.26298907660E+03 0.  0.
         25    1    4    4    0    0  0.28035656410E+02  0.12494710110E+02 -0.87167237600E+02  0.15552411781E+03  0.12509000000E+03 0.  0.
         25    1    3    3    0    0 -0.78124160812E+02 -0.12543779669E+02 -0.41284215887E+02  0.15366400194E+03  0.12509000000E+03 0.  0.
         25    1    4    4    0    0  0.50088504402E+02  0.49069559317E-01 -0.20628784581E+03  0.24639611221E+03  0.12509000000E+03 0.  0.
<mgrwt>
<rscale>  2 0.44342242E+03</rscale>
<asrwt>0</asrwt>
<pdfrwt beam="1">  1       21 0.16238598E-01 0.44342242E+03</pdfrwt>
<pdfrwt beam="2">  1       21 0.65464965E-01 0.44342242E+03</pdfrwt>
<totfact> 0.67469151E+04</totfact>
</mgrwt>
</event>
<event>
 7    0  0.4831799E-002  0.4532663E+03  0.7546771E-02  0.1026752E+00
         21   -1    0    0  502  501  0.00000000000E+00  0.00000000000E+00  0.18720147173E+03  0.18720147173E+03  0.00000000000E+00 0.  1.
         21   -1    0    0  501  502 -0.00000000000E+00 -0.00000000000E+00 -0.27437067489E+03  0.27437067489E+03  0.00000000000E+00 0.  1.
      99926    2    1    2    0    0  0.00000000000E+00  0.00000000000E+00 -0.87169203164E+02  0.46157214662E+03  0.45326634174E+03 0.  0.
      99925    2    3    3    0    0  0.17207157672E+02  0.10602696950E+03 -0.88420754944E+02  0.29668770522E+03  0.26204495795E+03 0.  0.
         25    1    4    4    0    0  0.69890170459E+01  0.86720375917E+02 -0.23834184394E+02  0.15422336530E+03  0.12509000000E+03 0.  0.
         25    1    3    3    0    0 -0.17207157672E+02 -0.10602696950E+03  0.12515517805E+01  0.16488444140E+03  0.12509000000E+03 0.  0.
         25    1    4    4    0    0  0.10218140626E+02  0.19306593579E+02 -0.64586570550E+02  0.14246433992E+03  0.12509000000E+03 0.  0.
<mgrwt>
<rscale>  2 0.45326634E+03</rscale>
<asrwt>0</asrwt>
<pdfrwt beam="1">  1       21 0.27529628E-01 0.45326634E+03</pdfrwt>
<pdfrwt beam="2">  1       21 0.40348628E-01 0.45326634E+03</pdfrwt>
<totfact> 0.69011578E+04</totfact>
</mgrwt>
</event>
<event>
 7    0  0.4831799E-002  0.4416649E+03  0.7546771E-02  0.1030237E+00
         21   -1    0    0  502  501  0.00000000000E+00  0.00000000000E+00  0.25925513468E+03  0.25925513468E+03  0.00000000000E+00 0. -1.
         21   -1    0    0  501  502 -0.00000000000E+00 -0.00000000000E+00 -0.18810419929E+03  0.18810419929E+03  0.00000000000E+00 0. -1.
      99926    2    1    2    0    0  0.00000000000E+00  0.00000000000E+00  0.71150935392E+02  0.44735933396E+03  0.44166493870E+03 0.  0.
      99925    2    3    3    0    0  0.77264606488E+02 -0.61876431472E+02  0.30160395280E+02  0.28265886442E+03  0.26303587589E+03 0.  0.
         25    1    4    4    0    0  0.37355806380E+02 -0.51350871998E+02  0.51059270950E+02  0.14928806240E+03  0.12509000000E+03 0.  0.
         25    1    4    4    0    0  0.39908800108E+02 -0.10525559474E+02 -0.20898875670E+02  0.13337080202E+03  0.12509000000E+03 0.  0.
         25    1    3    3    0    0 -0.77264606488E+02  0.61876431472E+02  0.40990540112E+02  0.16470046954E+03  0.12509000000E+03 0.  0.
<mgrwt>
<rscale>  2 0.44166494E+03</rscale>
<asrwt>0</asrwt>
<pdfrwt beam="1">  1       21 0.38125755E-01 0.44166494E+03</pdfrwt>
<pdfrwt beam="2">  1       21 0.27662382E-01 0.44166494E+03</pdfrwt>
<totfact> 0.76977611E+04</totfact>
</mgrwt>
</event>
<event>
 7    0  0.4831799E-002  0.4590535E+03  0.7546771E-02  0.1025056E+00
         21   -1    0    0  502  501  0.00000000000E+00  0.00000000000E+00  0.87800311604E+02  0.87800311604E+02  0.00000000000E+00 0. -1.
         21   -1    0    0  501  502 -0.00000000000E+00 -0.00000000000E+00 -0.60002662858E+03  0.60002662858E+03  0.00000000000E+00 0. -1.
      99926    2    1    2    0    0  0.00000000000E+00  0.00000000000E+00 -0.51222631697E+03  0.68782694018E+03  0.45905348255E+03 0.  0.
      99925    2    3    3    0    0  0.79352343250E+02  0.65180411957E+02 -0.40489879805E+03  0.49363120156E+03  0.26302746245E+03 0.  0.
         25    1    4    4    0    0  0.38298819338E+02  0.73044038744E+02 -0.19869383650E+03  0.24885533934E+03  0.12509000000E+03 0.  0.
         25    1    4    4    0    0  0.41053523911E+02 -0.78636267870E+01 -0.20620496156E+03  0.24477586221E+03  0.12509000000E+03 0.  0.
         25    1    3    3    0    0 -0.79352343250E+02 -0.65180411957E+02 -0.10732751892E+03  0.19419573862E+03  0.12509000000E+03 0.  0.
<mgrwt>
<rscale>  2 0.45905348E+03</rscale>
<asrwt>0</asrwt>
<pdfrwt beam="1">  1       21 0.12911811E-01 0.45905348E+03</pdfrwt>
<pdfrwt beam="2">  1       21 0.88239208E-01 0.45905348E+03</pdfrwt>
<totfact> 0.51893112E+04</totfact>
</mgrwt>
</event>
<event>
 7    0  0.4831799E-002  0.4512230E+03  0.7546771E-02  0.1027358E+00
         21   -1    0    0  502  501  0.00000000000E+00  0.00000000000E+00  0.12466009554E+04  0.12466009554E+04  0.00000000000E+00 0.  1.
         21   -1    0    0  501  502 -0.00000000000E+00 -0.00000000000E+00 -0.40831473912E+02  0.40831473912E+02  0.00000000000E+00 0.  1.
      99926    2    1    2    0    0  0.00000000000E+00  0.88817841970E-15  0.12057694815E+04  0.12874324293E+04  0.45122302418E+03 0.  0.
      99925    2    3    3    0    0  0.94960210381E+02  0.58136302543E+01  0.60641097628E+03  0.66781208933E+03  0.26303512056E+03 0.  0.
         25    1    4    4    0    0  0.10322598370E+02 -0.31367195081E+01  0.22816576885E+03  0.26042949376E+03  0.12509000000E+03 0.  0.
         25    1    4    4    0    0  0.84637612011E+02  0.89503497623E+01  0.37824520743E+03  0.40738259557E+03  0.12509000000E+03 0.  0.
         25    1    3    3    0    0 -0.94960210381E+02 -0.58136302543E+01  0.59935850519E+03  0.61962033996E+03  0.12509000000E+03 0.  0.
<mgrwt>
<rscale>  2 0.45122302E+03</rscale>
<asrwt>0</asrwt>
<pdfrwt beam="1">  1       21 0.18332364E+00 0.45122302E+03</pdfrwt>
<pdfrwt beam="2">  1       21 0.60046293E-02 0.45122302E+03</pdfrwt>
<totfact> 0.30364184E+04</totfact>
</mgrwt>
</event>
<event>
 7    0  0.4831799E-002  0.4634118E+03  0.7546771E-02  0.1023796E+00
         21   -1    0    0  502  501  0.00000000000E+00  0.00000000000E+00  0.19144131261E+03  0.19144131261E+03  0.00000000000E+00 0.  1.
         21   -1    0    0  501  502 -0.00000000000E+00 -0.00000000000E+00 -0.28043902304E+03  0.28043902304E+03  0.00000000000E+00 0.  1.
      99926    2    1    2    0    0  0.00000000000E+00  0.14210854715E-13 -0.88997710425E+02  0.47188033565E+03  0.46341175936E+03 0.  0.
      99925    2    3    3    0    0  0.79713093585E+02 -0.87870810588E+02 -0.32166662807E+02  0.29035145994E+03  0.26304718104E+03 0.  0.
         25    1    4    4    0    0  0.51267282075E+02 -0.85640633194E+02 -0.23603718177E+02  0.16176308564E+03  0.12509000000E+03 0.  0.
         25    1    4    4    0    0  0.28445811510E+02 -0.22301773932E+01 -0.85629446296E+01  0.12858837430E+03  0.12509000000E+03 0.  0.
         25    1    3    3    0    0 -0.79713093585E+02  0.87870810588E+02 -0.56831047619E+02  0.18152887571E+03  0.12509000000E+03 0.  0.
<mgrwt>
<rscale>  2 0.46341176E+03</rscale>
<asrwt>0</asrwt>
<pdfrwt beam="1">  1       21 0.28153134E-01 0.46341176E+03</pdfrwt>
<pdfrwt beam="2">  1       21 0.41241033E-01 0.46341176E+03</pdfrwt>
<totfact> 0.62984372E+04</totfact>
</mgrwt>
</event>
<event>
 7    0  0.4831799E-002  0.4563279E+03  0.7546771E-02  0.1025852E+00
         21   -1    0    0  502  501  0.00000000000E+00  0.00000000000E+00  0.12370982646E+03  0.12370982646E+03  0.00000000000E+00 0. -1.
         21   -1    0    0  501  502 -0.00000000000E+00 -0.00000000000E+00 -0.42081364903E+03  0.42081364903E+03  0.00000000000E+00 0. -1.
      99926    2    1    2    0    0 -0.14210854715E-13 -0.71054273576E-14 -0.29710382257E+03  0.54452347549E+03  0.45632787990E+03 0.  0.
      99925    2    3    3    0    0 -0.10446524176E+03  0.43016287503E+02 -0.16753504993E+03  0.33192299885E+03  0.26332773588E+03 0.  0.
         25    1    3    3    0    0  0.10446524176E+03 -0.43016287503E+02 -0.12956877263E+03  0.21260047664E+03  0.12509000000E+03 0.  0.
         25    1    4    4    0    0 -0.85861184109E+02 -0.16908862648E+01 -0.10023953642E+03  0.18185289328E+03  0.12509000000E+03 0.  0.
         25    1    4    4    0    0 -0.18604057647E+02  0.44707173768E+02 -0.67295513516E+02  0.15007010557E+03  0.12509000000E+03 0.  0.
<mgrwt>
<rscale>  2 0.45632788E+03</rscale>
<asrwt>0</asrwt>
<pdfrwt beam="1">  1       21 0.18192621E-01 0.45632788E+03</pdfrwt>
<pdfrwt beam="2">  1       21 0.61884361E-01 0.45632788E+03</pdfrwt>
<totfact> 0.61580249E+04</totfact>
</mgrwt>
</event>
<event>
 7    0  0.4831799E-002  0.4922284E+03  0.7546771E-02  0.1015828E+00
         21   -1    0    0  502  501  0.00000000000E+00  0.00000000000E+00  0.57061206727E+03  0.57061206727E+03  0.00000000000E+00 0.  1.
         21   -1    0    0  501  502 -0.00000000000E+00 -0.00000000000E+00 -0.10615302108E+03  0.10615302108E+03  0.00000000000E+00 0.  1.
      99926    2    1    2    0    0 -0.35527136788E-14  0.00000000000E+00  0.46445904620E+03  0.67676508835E+03  0.49222838116E+03 0.  0.
      99925    2    3    3    0    0 -0.29138768227E+02 -0.10947300238E+03  0.40863211900E+03  0.49900806327E+03  0.26305024705E+03 0.  0.
         25    1    3    3    0    0  0.29138768227E+02  0.10947300238E+03  0.55826927199E+02  0.17775702508E+03  0.12509000000E+03 0.  0.
         25    1    4    4    0    0 -0.99882327692E+01 -0.43067995277E+02  0.12939418718E+03  0.18532398870E+03  0.12509000000E+03 0.  0.
         25    1    4    4    0    0 -0.19150535457E+02 -0.66405007102E+02  0.27923793182E+03  0.31368407458E+03  0.12509000000E+03 0.  0.
<mgrwt>
<rscale>  2 0.49222838E+03</rscale>
<asrwt>0</asrwt>
<pdfrwt beam="1">  1       21 0.83913538E-01 0.49222838E+03</pdfrwt>
<pdfrwt beam="2">  1       21 0.15610739E-01 0.49222838E+03</pdfrwt>
<totfact> 0.40817500E+04</totfact>
</mgrwt>
</event>
<event>
 7    0  0.4831799E-002  0.4526344E+03  0.7546771E-02  0.1026939E+00
         21   -1    0    0  502  501  0.00000000000E+00  0.00000000000E+00  0.44602889496E+03  0.44602889496E+03  0.00000000000E+00 0. -1.
         21   -1    0    0  501  502 -0.00000000000E+00 -0.00000000000E+00 -0.11483443058E+03  0.11483443058E+03  0.00000000000E+00 0. -1.
      99926    2    1    2    0    0  0.00000000000E+00  0.71054273576E-14  0.33119446439E+03  0.56086332554E+03  0.45263439628E+03 0.  0.
      99925    2    3    3    0    0 -0.87056023513E+02 -0.62945280864E+02  0.24303480655E+03  0.37388607296E+03  0.26302855119E+03 0.  0.
         25    1    4    4    0    0 -0.35087300483E+02 -0.36053895272E+02  0.68219026572E+02  0.15110375808E+03  0.12509000000E+03 0.  0.
         25    1    3    3    0    0  0.87056023513E+02  0.62945280864E+02  0.88159657835E+02  0.18697725258E+03  0.12509000000E+03 0.  0.
         25    1    4    4    0    0 -0.51968723031E+02 -0.26891385592E+02  0.17481577998E+03  0.22278231488E+03  0.12509000000E+03 0.  0.
<mgrwt>
<rscale>  2 0.45263440E+03</rscale>
<asrwt>0</asrwt>
<pdfrwt beam="1">  1       21 0.65592484E-01 0.45263440E+03</pdfrwt>
<pdfrwt beam="2">  1       21 0.16887416E-01 0.45263440E+03</pdfrwt>
<totfact> 0.62312083E+04</totfact>
</mgrwt>
</event>
<event>
 7    0  0.4831799E-002  0.4555258E+03  0.7546771E-02  0.1026087E+00
         21   -1    0    0  502  501  0.00000000000E+00  0.00000000000E+00  0.17382419180E+03  0.17382419180E+03  0.00000000000E+00 0.  1.
         21   -1    0    0  501  502 -0.00000000000E+00 -0.00000000000E+00 -0.29843908879E+03  0.29843908879E+03  0.00000000000E+00 0.  1.
      99926    2    1    2    0    0  0.00000000000E+00  0.88817841970E-15 -0.12461489700E+03  0.47226328059E+03  0.45552577714E+03 0.  0.
      99925    2    3    3    0    0  0.39326713370E+02 -0.68720177874E+01  0.31967325650E+02  0.26791231885E+03  0.26298533357E+03 0.  0.
         25    1    4    4    0    0  0.49846955717E+02  0.11189279215E+02  0.39761237129E+02  0.14084879496E+03  0.12509000000E+03 0.  0.
         25    1    3    3    0    0 -0.39326713370E+02  0.68720177874E+01 -0.15658222265E+03  0.20435096173E+03  0.12509000000E+03 0.  0.
         25    1    4    4    0    0 -0.10520242347E+02 -0.18061297003E+02 -0.77939114796E+01  0.12706352389E+03  0.12509000000E+03 0.  0.
<mgrwt>
<rscale>  2 0.45552578E+03</rscale>
<asrwt>0</asrwt>
<pdfrwt beam="1">  1       21 0.25562381E-01 0.45552578E+03</pdfrwt>
<pdfrwt beam="2">  1       21 0.43888101E-01 0.45552578E+03</pdfrwt>
<totfact> 0.66987912E+04</totfact>
</mgrwt>
</event>
<event>
 7    0  0.4831799E-002  0.4554037E+03  0.7546771E-02  0.1026123E+00
         21   -1    0    0  502  501  0.00000000000E+00  0.00000000000E+00  0.26261521503E+03  0.26261521503E+03  0.00000000000E+00 0.  1.
         21   -1    0    0  501  502 -0.00000000000E+00 -0.00000000000E+00 -0.19743006879E+03  0.19743006879E+03  0.00000000000E+00 0.  1.
      99926    2    1    2    0    0  0.00000000000E+00 -0.14210854715E-13  0.65185146240E+02  0.46004528382E+03  0.45540373283E+03 0.  0.
      99925    2    3    3    0    0  0.43844204770E+02 -0.69468486751E+02 -0.38093891499E+02  0.27821499845E+03  0.26306701779E+03 0.  0.
         25    1    4    4    0    0  0.16553933163E+01 -0.69993458199E+02 -0.25511719024E+02  0.14560281737E+03  0.12509000000E+03 0.  0.
         25    1    3    3    0    0 -0.43844204770E+02  0.69468486751E+02  0.10327903774E+03  0.18183028538E+03  0.12509000000E+03 0.  0.
         25    1    4    4    0    0  0.42188811454E+02  0.52497144799E+00 -0.12582172475E+02  0.13261218108E+03  0.12509000000E+03 0.  0.
<mgrwt>
<rscale>  2 0.45540373E+03</rscale>
<asrwt>0</asrwt>
<pdfrwt beam="1">  1       21 0.38619885E-01 0.45540373E+03</pdfrwt>
<pdfrwt beam="2">  1       21 0.29033834E-01 0.45540373E+03</pdfrwt>
<totfact> 0.67958210E+04</totfact>
</mgrwt>
</event>
<event>
 7    0  0.4831799E-002  0.4541439E+03  0.7546771E-02  0.1026493E+00
         21   -1    0    0  502  501  0.00000000000E+00  0.00000000000E+00  0.24700392754E+03  0.24700392754E+03  0.00000000000E+00 0. -1.
         21   -1    0    0  501  502 -0.00000000000E+00 -0.00000000000E+00 -0.20874838209E+03  0.20874838209E+03  0.00000000000E+00 0. -1.
      99926    2    1    2    0    0  0.00000000000E+00  0.00000000000E+00  0.38255545450E+02  0.45575230963E+03  0.45414389898E+03 0.  0.
      99925    2    3    3    0    0  0.68175426463E+02 -0.89343578232E+02  0.28248812388E+02  0.28729517398E+03  0.26288848938E+03 0.  0.
         25    1    4    4    0    0  0.63602347075E+02 -0.33311983254E+02  0.39931912255E+02  0.14965631459E+03  0.12509000000E+03 0.  0.
         25    1    4    4    0    0  0.45730793876E+01 -0.56031594978E+02 -0.11683099867E+02  0.13763885939E+03  0.12509000000E+03 0.  0.
         25    1    3    3    0    0 -0.68175426463E+02  0.89343578232E+02  0.10006733062E+02  0.16845713565E+03  0.12509000000E+03 0.  0.
<mgrwt>
<rscale>  2 0.45414390E+03</rscale>
<asrwt>0</asrwt>
<pdfrwt beam="1">  1       21 0.36324107E-01 0.45414390E+03</pdfrwt>
<pdfrwt beam="2">  1       21 0.30698291E-01 0.45414390E+03</pdfrwt>
<totfact> 0.68960578E+04</totfact>
</mgrwt>
</event>
<event>
 7    0  0.4831799E-002  0.4508754E+03  0.7546771E-02  0.1027461E+00
         21   -1    0    0  502  501  0.00000000000E+00  0.00000000000E+00  0.69988454457E+03  0.69988454457E+03  0.00000000000E+00 0.  1.
         21   -1    0    0  501  502 -0.00000000000E+00 -0.00000000000E+00 -0.72615057070E+02  0.72615057070E+02  0.00000000000E+00 0.  1.
      99926    2    1    2    0    0 -0.71054273576E-14 -0.14210854715E-13  0.62726948750E+03  0.77249960165E+03  0.45087539807E+03 0.  0.
      99925    2    3    3    0    0 -0.63281491091E+02 -0.86479287136E+02  0.43198717861E+03  0.51702768052E+03  0.26309976381E+03 0.  0.
         25    1    3    3    0    0  0.63281491091E+02  0.86479287136E+02  0.19528230889E+03  0.25547192113E+03  0.12509000000E+03 0.  0.
         25    1    4    4    0    0 -0.50819818428E+02 -0.34752601135E+02  0.15497048273E+03  0.20845564480E+03  0.12509000000E+03 0.  0.
         25    1    4    4    0    0 -0.12461672663E+02 -0.51726686001E+02  0.27701669588E+03  0.30857203572E+03  0.12509000000E+03 0.  0.
<mgrwt>
<rscale>  2 0.45087540E+03</rscale>
<asrwt>0</asrwt>
<pdfrwt beam="1">  1       21 0.10292419E+00 0.45087540E+03</pdfrwt>
<pdfrwt beam="2">  1       21 0.10678685E-01 0.45087540E+03</pdfrwt>
<totfact> 0.50746961E+04</totfact>
</mgrwt>
</event>
<event>
 7    0  0.4831799E-002  0.4601399E+03  0.7546771E-02  0.1024741E+00
         21   -1    0    0  502  501  0.00000000000E+00  0.00000000000E+00  0.23374969476E+03  0.23374969476E+03  0.00000000000E+00 0. -1.
         21   -1    0    0  501  502 -0.00000000000E+00 -0.00000000000E+00 -0.22644808888E+03  0.22644808888E+03  0.00000000000E+00 0. -1.
      99926    2    1    2    0    0  0.00000000000E+00 -0.14210854715E-13  0.73016058781E+01  0.46019778364E+03  0.46013985550E+03 0.  0.
      99925    2    3    3    0    0  0.82359335787E+02 -0.79562083702E+02 -0.21981665163E+02  0.28809838383E+03  0.26344695824E+03 0.  0.
         25    1    4    4    0    0  0.31907407381E+02 -0.75965431554E+02 -0.30649513390E+02  0.15289123653E+03  0.12509000000E+03 0.  0.
         25    1    3    3    0    0 -0.82359335787E+02  0.79562083702E+02  0.29283271042E+02  0.17209939982E+03  0.12509000000E+03 0.  0.
         25    1    4    4    0    0  0.50451928406E+02 -0.35966521482E+01  0.86678482267E+01  0.13520714729E+03  0.12509000000E+03 0.  0.
<mgrwt>
<rscale>  2 0.46013986E+03</rscale>
<asrwt>0</asrwt>
<pdfrwt beam="1">  1       21 0.34374955E-01 0.46013986E+03</pdfrwt>
<pdfrwt beam="2">  1       21 0.33301189E-01 0.46013986E+03</pdfrwt>
<totfact> 0.65441418E+04</totfact>
</mgrwt>
</event>
<event>
 7    0  0.4831799E-002  0.4612485E+03  0.7546771E-02  0.1024420E+00
         21   -1    0    0  502  501  0.00000000000E+00  0.00000000000E+00  0.10729589685E+03  0.10729589685E+03  0.00000000000E+00 0. -1.
         21   -1    0    0  501  502 -0.00000000000E+00 -0.00000000000E+00 -0.49570903389E+03  0.49570903389E+03  0.00000000000E+00 0. -1.
      99926    2    1    2    0    0  0.00000000000E+00  0.00000000000E+00 -0.38841313704E+03  0.60300493074E+03  0.46124850295E+03 0.  0.
      99925    2    3    3    0    0 -0.32744188946E+02  0.70993367284E+02 -0.36023496018E+03  0.45282584478E+03  0.26300148109E+03 0.  0.
         25    1    3    3    0    0  0.32744188946E+02 -0.70993367284E+02 -0.28178176855E+02  0.15017908596E+03  0.12509000000E+03 0.  0.
         25    1    4    4    0    0 -0.37435278635E+02  0.16579948712E+01 -0.15582083411E+03  0.20330221218E+03  0.12509000000E+03 0.  0.
         25    1    4    4    0    0  0.46910896888E+01  0.69335372413E+02 -0.20441412607E+03  0.24952363260E+03  0.12509000000E+03 0.  0.
<mgrwt>
<rscale>  2 0.46124850E+03</rscale>
<asrwt>0</asrwt>
<pdfrwt beam="1">  1       21 0.15778808E-01 0.46124850E+03</pdfrwt>
<pdfrwt beam="2">  1       21 0.72898388E-01 0.46124850E+03</pdfrwt>
<totfact> 0.55692877E+04</totfact>
</mgrwt>
</event>
<event>
 7    0  0.4831799E-002  0.4652525E+03  0.7546771E-02  0.1023269E+00
         21   -1    0    0  502  501  0.00000000000E+00  0.00000000000E+00  0.20986803376E+02  0.20986803376E+02  0.00000000000E+00 0. -1.
         21   -1    0    0  501  502 -0.00000000000E+00 -0.00000000000E+00 -0.25785234303E+04  0.25785234303E+04  0.00000000000E+00 0. -1.
      99926    2    1    2    0    0 -0.35527136788E-14  0.00000000000E+00 -0.25575366269E+04  0.25995102337E+04  0.46525246579E+03 0.  0.
      99925    2    3    3    0    0  0.19239167035E+02  0.11975792539E+03 -0.14900696013E+04  0.15179162872E+04  0.26277429834E+03 0.  0.
         25    1    4    4    0    0  0.22456605399E+02  0.20901728952E+02 -0.59914648982E+03  0.61283375051E+03  0.12509000000E+03 0.  0.
         25    1    4    4    0    0 -0.32174383644E+01  0.98856196439E+02 -0.89092311150E+03  0.90508253667E+03  0.12509000000E+03 0.  0.
         25    1    3    3    0    0 -0.19239167035E+02 -0.11975792539E+03 -0.10674670256E+04  0.10815939465E+04  0.12509000000E+03 0.  0.
<mgrwt>
<rscale>  2 0.46525247E+03</rscale>
<asrwt>0</asrwt>
<pdfrwt beam="1">  1       21 0.30862942E-02 0.46525247E+03</pdfrwt>
<pdfrwt beam="2">  1       21 0.37919468E+00 0.46525247E+03</pdfrwt>
<totfact> 0.56983450E+03</totfact>
</mgrwt>
</event>
<event>
 7    0  0.4831799E-002  0.4399830E+03  0.7546771E-02  0.1030752E+00
         21   -1    0    0  502  501  0.00000000000E+00  0.00000000000E+00  0.83637910918E+02  0.83637910918E+02  0.00000000000E+00 0.  1.
         21   -1    0    0  501  502 -0.00000000000E+00 -0.00000000000E+00 -0.57864030123E+03  0.57864030123E+03  0.00000000000E+00 0.  1.
      99926    2    1    2    0    0  0.00000000000E+00  0.00000000000E+00 -0.49500239032E+03  0.66227821215E+03  0.43998302680E+03 0.  0.
      99925    2    3    3    0    0 -0.94450846115E+02 -0.16095646201E+02 -0.34931740595E+03  0.44768171887E+03  0.26308979295E+03 0.  0.
         25    1    3    3    0    0  0.94450846115E+02  0.16095646201E+02 -0.14568498437E+03  0.21459649328E+03  0.12509000000E+03 0.  0.
         25    1    4    4    0    0 -0.89764696257E+02 -0.85956345023E+01 -0.20429416498E+03  0.25595937094E+03  0.12509000000E+03 0.  0.
         25    1    4    4    0    0 -0.46861498579E+01 -0.75000116982E+01 -0.14502324097E+03  0.19172234793E+03  0.12509000000E+03 0.  0.
<mgrwt>
<rscale>  2 0.43998303E+03</rscale>
<asrwt>0</asrwt>
<pdfrwt beam="1">  1       21 0.12299693E-01 0.43998303E+03</pdfrwt>
<pdfrwt beam="2">  1       21 0.85094158E-01 0.43998303E+03</pdfrwt>
<totfact> 0.62018682E+04</totfact>
</mgrwt>
</event>
<event>
 7    0  0.4831799E-002  0.4583989E+03  0.7546771E-02  0.1025247E+00
         21   -1    0    0  502  501  0.00000000000E+00  0.00000000000E+00  0.20418429990E+04  0.20418429990E+04  0.00000000000E+00 0.  1.
         21   -1    0    0  501  502 -0.00000000000E+00 -0.00000000000E+00 -0.25727925397E+02  0.25727925397E+02  0.00000000000E+00 0.  1.
      99926    2    1    2    0    0  0.00000000000E+00 -0.14210854715E-13  0.20161150736E+04  0.20675709244E+04  0.45839888460E+03 0.  0.
      99925    2    3    3    0    0  0.77078053312E+02 -0.68194066094E+02  0.10292656170E+04  0.10675155184E+04  0.26383747791E+03 0.  0.
         25    1    4    4    0    0  0.31591988319E+02  0.88824888059E+01  0.48168372618E+03  0.49874209016E+03  0.12509000000E+03 0.  0.
         25    1    3    3    0    0 -0.77078053312E+02  0.68194066094E+02  0.98684945659E+03  0.10000554060E+04  0.12509000000E+03 0.  0.
         25    1    4    4    0    0  0.45486064993E+02 -0.77076554900E+02  0.54758189084E+03  0.56877342826E+03  0.12509000000E+03 0.  0.
<mgrwt>
<rscale>  2 0.45839888E+03</rscale>
<asrwt>0</asrwt>
<pdfrwt beam="1">  1       21 0.30027092E+00 0.45839888E+03</pdfrwt>
<pdfrwt beam="2">  1       21 0.37835198E-02 0.45839888E+03</pdfrwt>
<totfact> 0.12309815E+04</totfact>
</mgrwt>
</event>
<event>
 7    0  0.4831799E-002  0.4465855E+03  0.7546771E-02  0.1028745E+00
         21   -1    0    0  502  501  0.00000000000E+00  0.00000000000E+00  0.20613728438E+03  0.20613728438E+03  0.00000000000E+00 0. -1.
         21   -1    0    0  501  502 -0.00000000000E+00 -0.00000000000E+00 -0.24187597774E+03  0.24187597774E+03  0.00000000000E+00 0. -1.
      99926    2    1    2    0    0  0.00000000000E+00  0.17763568394E-14 -0.35738693358E+02  0.44801326212E+03  0.44658552242E+03 0.  0.
      99925    2    3    3    0    0 -0.32269807774E+02  0.15008443219E+02  0.74816693678E+02  0.27731881124E+03  0.26465372008E+03 0.  0.
         25    1    4    4    0    0  0.14151079081E+02  0.37650973451E+02  0.30233500882E+02  0.13483108513E+03  0.12509000000E+03 0.  0.
         25    1    3    3    0    0  0.32269807774E+02 -0.15008443219E+02 -0.11055538704E+03  0.17069445089E+03  0.12509000000E+03 0.  0.
         25    1    4    4    0    0 -0.46420886855E+02 -0.22642530231E+02  0.44583192796E+02  0.14248772611E+03  0.12509000000E+03 0.  0.
<mgrwt>
<rscale>  2 0.44658552E+03</rscale>
<asrwt>0</asrwt>
<pdfrwt beam="1">  1       21 0.30314307E-01 0.44658552E+03</pdfrwt>
<pdfrwt beam="2">  1       21 0.35569997E-01 0.44658552E+03</pdfrwt>
<totfact> 0.73898810E+04</totfact>
</mgrwt>
</event>
<event>
 7    0  0.4831799E-002  0.4472824E+03  0.7546771E-02  0.1028536E+00
         21   -1    0    0  502  501  0.00000000000E+00  0.00000000000E+00  0.72007512695E+03  0.72007512695E+03  0.00000000000E+00 0. -1.
         21   -1    0    0  501  502 -0.00000000000E+00 -0.00000000000E+00 -0.69458553711E+02  0.69458553711E+02  0.00000000000E+00 0. -1.
      99926    2    1    2    0    0  0.00000000000E+00  0.14210854715E-13  0.65061657324E+03  0.78953368066E+03  0.44728235772E+03 0.  0.
      99925    2    3    3    0    0 -0.28216346936E+02  0.84425383324E+02  0.51301022939E+03  0.58336185536E+03  0.26307366124E+03 0.  0.
         25    1    4    4    0    0 -0.69584795260E+01  0.81344628021E+02  0.24767321014E+03  0.28923156132E+03  0.12509000000E+03 0.  0.
         25    1    4    4    0    0 -0.21257867410E+02  0.30807553034E+01  0.26533701925E+03  0.29413029403E+03  0.12509000000E+03 0.  0.
         25    1    3    3    0    0  0.28216346936E+02 -0.84425383324E+02  0.13760634385E+03  0.20617182531E+03  0.12509000000E+03 0.  0.
<mgrwt>
<rscale>  2 0.44728236E+03</rscale>
<asrwt>0</asrwt>
<pdfrwt beam="1">  1       21 0.10589340E+00 0.44728236E+03</pdfrwt>
<pdfrwt beam="2">  1       21 0.10214494E-01 0.44728236E+03</pdfrwt>
<totfact> 0.51313537E+04</totfact>
</mgrwt>
</event>
<event>
 7    0  0.4831799E-002  0.4462004E+03  0.7546771E-02  0.1028861E+00
         21   -1    0    0  502  501  0.00000000000E+00  0.00000000000E+00  0.60756790179E+03  0.60756790179E+03  0.00000000000E+00 0. -1.
         21   -1    0    0  501  502 -0.00000000000E+00 -0.00000000000E+00 -0.81922848083E+02  0.81922848083E+02  0.00000000000E+00 0. -1.
      99926    2    1    2    0    0  0.00000000000E+00 -0.14210854715E-13  0.52564505370E+03  0.68949074987E+03  0.44620037166E+03 0.  0.
      99925    2    3    3    0    0 -0.79768501900E+01 -0.80228872095E+02  0.43612739449E+03  0.51582088643E+03  0.26337004498E+03 0.  0.
         25    1    4    4    0    0 -0.30050383590E+02 -0.11159843140E+02  0.17720708816E+03  0.21926565587E+03  0.12509000000E+03 0.  0.
         25    1    3    3    0    0  0.79768501900E+01  0.80228872095E+02  0.89517659212E+02  0.17366986344E+03  0.12509000000E+03 0.  0.
         25    1    4    4    0    0  0.22073533400E+02 -0.69069028956E+02  0.25892030634E+03  0.29655523056E+03  0.12509000000E+03 0.  0.
<mgrwt>
<rscale>  2 0.44620037E+03</rscale>
<asrwt>0</asrwt>
<pdfrwt beam="1">  1       21 0.89348219E-01 0.44620037E+03</pdfrwt>
<pdfrwt beam="2">  1       21 0.12047478E-01 0.44620037E+03</pdfrwt>
<totfact> 0.57347796E+04</totfact>
</mgrwt>
</event>
<event>
 7    0  0.4831799E-002  0.4595704E+03  0.7546771E-02  0.1024906E+00
         21   -1    0    0  502  501  0.00000000000E+00  0.00000000000E+00  0.85426139427E+03  0.85426139427E+03  0.00000000000E+00 0. -1.
         21   -1    0    0  501  502 -0.00000000000E+00 -0.00000000000E+00 -0.61809240371E+02  0.61809240371E+02  0.00000000000E+00 0. -1.
      99926    2    1    2    0    0 -0.88817841970E-15  0.00000000000E+00  0.79245215389E+03  0.91607063464E+03  0.45957044230E+03 0.  0.
      99925    2    3    3    0    0 -0.17653432897E+01  0.58920619709E+02  0.69902663406E+03  0.74918566911E+03  0.26299463076E+03 0.  0.
         25    1    4    4    0    0 -0.12090733775E+02  0.66888487908E+02  0.33304543682E+03  0.36219749688E+03  0.12509000000E+03 0.  0.
         25    1    3    3    0    0  0.17653432897E+01 -0.58920619709E+02  0.93425519836E+02  0.16688496553E+03  0.12509000000E+03 0.  0.
         25    1    4    4    0    0  0.10325390485E+02 -0.79678681996E+01  0.36598119724E+03  0.38698817223E+03  0.12509000000E+03 0.  0.
<mgrwt>
<rscale>  2 0.45957044E+03</rscale>
<asrwt>0</asrwt>
<pdfrwt beam="1">  1       21 0.12562667E+00 0.45957044E+03</pdfrwt>
<pdfrwt beam="2">  1       21 0.90895947E-02 0.45957044E+03</pdfrwt>
<totfact> 0.41057529E+04</totfact>
</mgrwt>
</event>
<event>
 7    0  0.4831799E-002  0.4448861E+03  0.7546771E-02  0.1029258E+00
         21   -1    0    0  502  501  0.00000000000E+00  0.00000000000E+00  0.23351276556E+03  0.23351276556E+03  0.00000000000E+00 0. -1.
         21   -1    0    0  501  502 -0.00000000000E+00 -0.00000000000E+00 -0.21189809452E+03  0.21189809452E+03  0.00000000000E+00 0. -1.
      99926    2    1    2    0    0  0.00000000000E+00  0.00000000000E+00  0.21614671030E+02  0.44541086008E+03  0.44488609809E+03 0.  0.
      99925    2    3    3    0    0 -0.44019890469E+02 -0.68531510845E+02  0.77539525775E+02  0.28600754702E+03  0.26297075914E+03 0.  0.
         25    1    4    4    0    0 -0.53741522767E+02 -0.11273010359E+02  0.49270823199E+02  0.14522518429E+03  0.12509000000E+03 0.  0.
         25    1    3    3    0    0  0.44019890469E+02  0.68531510845E+02 -0.55924854745E+02  0.15940331306E+03  0.12509000000E+03 0.  0.
         25    1    4    4    0    0  0.97216322979E+01 -0.57258500486E+02  0.28268702576E+02  0.14078236274E+03  0.12509000000E+03 0.  0.
<mgrwt>
<rscale>  2 0.44488610E+03</rscale>
<asrwt>0</asrwt>
<pdfrwt beam="1">  1       21 0.34340113E-01 0.44488610E+03</pdfrwt>
<pdfrwt beam="2">  1       21 0.31161484E-01 0.44488610E+03</pdfrwt>
<totfact> 0.75136838E+04</totfact>
</mgrwt>
</event>
<event>
 7    0  0.4831799E-002  0.4536787E+03  0.7546771E-02  0.1026631E+00
         21   -1    0    0  502  501  0.00000000000E+00  0.00000000000E+00  0.19887710367E+03  0.19887710367E+03  0.00000000000E+00 0. -1.
         21   -1    0    0  501  502 -0.00000000000E+00 -0.00000000000E+00 -0.25873308247E+03  0.25873308247E+03  0.00000000000E+00 0. -1.
      99926    2    1    2    0    0 -0.71054273576E-14  0.71054273576E-14 -0.59855978801E+02  0.45761018614E+03  0.45367867953E+03 0.  0.
      99925    2    3    3    0    0  0.50970570529E+02  0.33590700613E+02 -0.13241160255E+03  0.30064470947E+03  0.26292218357E+03 0.  0.
         25    1    4    4    0    0 -0.67743223104E+01  0.15307376981E+01 -0.39331394542E+02  0.13131146674E+03  0.12509000000E+03 0.  0.
         25    1    4    4    0    0  0.57744892839E+02  0.32059962915E+02 -0.93080208006E+02  0.16933324273E+03  0.12509000000E+03 0.  0.
         25    1    3    3    0    0 -0.50970570529E+02 -0.33590700613E+02  0.72555623748E+02  0.15696547667E+03  0.12509000000E+03 0.  0.
<mgrwt>
<rscale>  2 0.45367868E+03</rscale>
<asrwt>0</asrwt>
<pdfrwt beam="1">  1       21 0.29246633E-01 0.45367868E+03</pdfrwt>
<pdfrwt beam="2">  1       21 0.38048982E-01 0.45367868E+03</pdfrwt>
<totfact> 0.69080128E+04</totfact>
</mgrwt>
</event>
<event>
 7    0  0.4831799E-002  0.4514845E+03  0.7546771E-02  0.1027280E+00
         21   -1    0    0  502  501  0.00000000000E+00  0.00000000000E+00  0.16277837404E+03  0.16277837404E+03  0.00000000000E+00 0.  1.
         21   -1    0    0  501  502 -0.00000000000E+00 -0.00000000000E+00 -0.31306097896E+03  0.31306097896E+03  0.00000000000E+00 0.  1.
      99926    2    1    2    0    0  0.00000000000E+00 -0.14210854715E-13 -0.15028260492E+03  0.47583935300E+03  0.45148447207E+03 0.  0.
      99925    2    3    3    0    0  0.45989608458E+02  0.97274232068E+02 -0.11808796269E+03  0.30772830815E+03  0.26301069255E+03 0.  0.
         25    1    4    4    0    0 -0.56141045643E+00  0.11851690192E+02 -0.49323525184E+02  0.13498553989E+03  0.12509000000E+03 0.  0.
         25    1    4    4    0    0  0.46551018914E+02  0.85422541876E+02 -0.68764437501E+02  0.17274276826E+03  0.12509000000E+03 0.  0.
         25    1    3    3    0    0 -0.45989608458E+02 -0.97274232068E+02 -0.32194642239E+02  0.16811104485E+03  0.12509000000E+03 0.  0.
<mgrwt>
<rscale>  2 0.45148447E+03</rscale>
<asrwt>0</asrwt>
<pdfrwt beam="1">  1       21 0.23937996E-01 0.45148447E+03</pdfrwt>
<pdfrwt beam="2">  1       21 0.46038379E-01 0.45148447E+03</pdfrwt>
<totfact> 0.68906904E+04</totfact>
</mgrwt>
</event>
<event>
 7    0  0.4831799E-002  0.4552154E+03  0.7546771E-02  0.1026178E+00
         21   -1    0    0  502  501  0.00000000000E+00  0.00000000000E+00  0.70670007744E+03  0.70670007744E+03  0.00000000000E+00 0.  1.
         21   -1    0    0  501  502 -0.00000000000E+00 -0.00000000000E+00 -0.73305860732E+02  0.73305860732E+02  0.00000000000E+00 0.  1.
      99926    2    1    2    0    0  0.14210854715E-13  0.35527136788E-14  0.63339421671E+03  0.78000593818E+03  0.45521536642E+03 0.  0.
      99925    2    3    3    0    0 -0.11244601060E+03 -0.14245095433E+02  0.39655740105E+03  0.48916884736E+03  0.26302349867E+03 0.  0.
         25    1    3    3    0    0  0.11244601060E+03  0.14245095433E+02  0.23683681566E+03  0.29083709082E+03  0.12509000000E+03 0.  0.
         25    1    4    4    0    0 -0.65697279599E+02 -0.44104916983E+02  0.23138240811E+03  0.27467563258E+03  0.12509000000E+03 0.  0.
         25    1    4    4    0    0 -0.46748731001E+02  0.29859821550E+02  0.16517499294E+03  0.21449321478E+03  0.12509000000E+03 0.  0.
<mgrwt>
<rscale>  2 0.45521537E+03</rscale>
<asrwt>0</asrwt>
<pdfrwt beam="1">  1       21 0.10392648E+00 0.45521537E+03</pdfrwt>
<pdfrwt beam="2">  1       21 0.10780274E-01 0.45521537E+03</pdfrwt>
<totfact> 0.48664825E+04</totfact>
</mgrwt>
</event>
<event>
 7    0  0.4831799E-002  0.4549185E+03  0.7546771E-02  0.1026265E+00
         21   -1    0    0  502  501  0.00000000000E+00  0.00000000000E+00  0.14156788476E+03  0.14156788476E+03  0.00000000000E+00 0. -1.
         21   -1    0    0  501  502 -0.00000000000E+00 -0.00000000000E+00 -0.36546216035E+03  0.36546216035E+03  0.00000000000E+00 0. -1.
      99926    2    1    2    0    0  0.00000000000E+00  0.00000000000E+00 -0.22389427559E+03  0.50703004511E+03  0.45491847622E+03 0.  0.
      99925    2    3    3    0    0 -0.93200377584E+02  0.31512397096E+02 -0.79708112178E+02  0.29228252040E+03  0.26343186411E+03 0.  0.
         25    1    4    4    0    0 -0.45038598157E+01  0.15970497688E+02 -0.24358767043E+02  0.12851536555E+03  0.12509000000E+03 0.  0.
         25    1    4    4    0    0 -0.88696517769E+02  0.15541899408E+02 -0.55349345135E+02  0.16376715485E+03  0.12509000000E+03 0.  0.
         25    1    3    3    0    0  0.93200377584E+02 -0.31512397096E+02 -0.14418616341E+03  0.21474752471E+03  0.12509000000E+03 0.  0.
<mgrwt>
<rscale>  2 0.45491848E+03</rscale>
<asrwt>0</asrwt>
<pdfrwt beam="1">  1       21 0.20818807E-01 0.45491848E+03</pdfrwt>
<pdfrwt beam="2">  1       21 0.53744435E-01 0.45491848E+03</pdfrwt>
<totfact> 0.64821481E+04</totfact>
</mgrwt>
</event>
<event>
 7    0  0.4831799E-002  0.4565608E+03  0.7546771E-02  0.1025783E+00
         21   -1    0    0  502  501  0.00000000000E+00  0.00000000000E+00  0.50352381677E+03  0.50352381677E+03  0.00000000000E+00 0. -1.
         21   -1    0    0  501  502 -0.00000000000E+00 -0.00000000000E+00 -0.10349450565E+03  0.10349450565E+03  0.00000000000E+00 0. -1.
      99926    2    1    2    0    0  0.00000000000E+00 -0.14210854715E-13  0.40002931112E+03  0.60701832242E+03  0.45656083275E+03 0.  0.
      99925    2    3    3    0    0 -0.13507051087E+02 -0.66953124647E+02  0.12832291691E+03  0.30020073153E+03  0.26265670917E+03 0.  0.
         25    1    3    3    0    0  0.13507051087E+02  0.66953124647E+02  0.27170639421E+03  0.30681759090E+03  0.12509000000E+03 0.  0.
         25    1    4    4    0    0 -0.15346927415E+02 -0.15810617625E+02  0.10108371306E+03  0.16232969216E+03  0.12509000000E+03 0.  0.
         25    1    4    4    0    0  0.18398763281E+01 -0.51142507022E+02  0.27239203853E+02  0.13787103937E+03  0.12509000000E+03 0.  0.
<mgrwt>
<rscale>  2 0.45656083E+03</rscale>
<asrwt>0</asrwt>
<pdfrwt beam="1">  1       21 0.74047619E-01 0.45656083E+03</pdfrwt>
<pdfrwt beam="2">  1       21 0.15219780E-01 0.45656083E+03</pdfrwt>
<totfact> 0.57535631E+04</totfact>
</mgrwt>
</event>
<event>
 7    0  0.4831799E-002  0.4571100E+03  0.7546771E-02  0.1025623E+00
         21   -1    0    0  502  501  0.00000000000E+00  0.00000000000E+00  0.10263650457E+04  0.10263650457E+04  0.00000000000E+00 0. -1.
         21   -1    0    0  501  502 -0.00000000000E+00 -0.00000000000E+00 -0.50895516349E+02  0.50895516349E+02  0.00000000000E+00 0. -1.
      99926    2    1    2    0    0  0.00000000000E+00  0.00000000000E+00  0.97546952939E+03  0.10772605621E+04  0.45710996036E+03 0.  0.
      99925    2    3    3    0    0  0.99130796473E+01  0.57607619696E+02  0.37905258461E+03  0.46506975269E+03  0.26304392403E+03 0.  0.
         25    1    3    3    0    0 -0.99130796473E+01 -0.57607619696E+02  0.59641694478E+03  0.61219080940E+03  0.12509000000E+03 0.  0.
         25    1    4    4    0    0 -0.13528300582E+02  0.52515535683E+02  0.14793741017E+03  0.20118121640E+03  0.12509000000E+03 0.  0.
         25    1    4    4    0    0  0.23441380229E+02  0.50920840125E+01  0.23111517444E+03  0.26388853628E+03  0.12509000000E+03 0.  0.
<mgrwt>
<rscale>  2 0.45710996E+03</rscale>
<asrwt>0</asrwt>
<pdfrwt beam="1">  1       21 0.15093602E+00 0.45710996E+03</pdfrwt>
<pdfrwt beam="2">  1       21 0.74846354E-02 0.45710996E+03</pdfrwt>
<totfact> 0.35701326E+04</totfact>
</mgrwt>
</event>
<event>
 7    0  0.4831799E-002  0.4232400E+03  0.7546771E-02  0.1036017E+00
         21   -1    0    0  502  501  0.00000000000E+00  0.00000000000E+00  0.37815695802E+03  0.37815695802E+03  0.00000000000E+00 0. -1.
         21   -1    0    0  501  502 -0.00000000000E+00 -0.00000000000E+00 -0.11842446065E+03  0.11842446065E+03  0.00000000000E+00 0. -1.
      99926    2    1    2    0    0  0.00000000000E+00  0.00000000000E+00  0.25973249737E+03  0.49658141868E+03  0.42324004440E+03 0.  0.
      99925    2    3    3    0    0 -0.37727275642E+01  0.32490532394E+02  0.25392968612E+03  0.36715557548E+03  0.26315976696E+03 0.  0.
         25    1    4    4    0    0 -0.12596926795E+01  0.20719034186E+02  0.71315724946E+02  0.14547957220E+03  0.12509000000E+03 0.  0.
         25    1    4    4    0    0 -0.25130348847E+01  0.11771498208E+02  0.18261396117E+03  0.22167600328E+03  0.12509000000E+03 0.  0.
         25    1    3    3    0    0  0.37727275642E+01 -0.32490532394E+02  0.58028112518E+01  0.12942584320E+03  0.12509000000E+03 0.  0.
<mgrwt>
<rscale>  2 0.42324004E+03</rscale>
<asrwt>0</asrwt>
<pdfrwt beam="1">  1       21 0.55611317E-01 0.42324004E+03</pdfrwt>
<pdfrwt beam="2">  1       21 0.17415362E-01 0.42324004E+03</pdfrwt>
<totfact> 0.84986297E+04</totfact>
</mgrwt>
</event>
<event>
 7    0  0.4831799E-002  0.4548150E+03  0.7546771E-02  0.1026296E+00
         21   -1    0    0  502  501  0.00000000000E+00  0.00000000000E+00  0.52560053283E+02  0.52560053283E+02  0.00000000000E+00 0.  1.
         21   -1    0    0  501  502 -0.00000000000E+00 -0.00000000000E+00 -0.98390621509E+03  0.98390621509E+03  0.00000000000E+00 0.  1.
      99926    2    1    2    0    0  0.71054273576E-14  0.00000000000E+00 -0.93134616181E+03  0.10364662684E+04  0.45481496497E+03 0.  0.
      99925    2    3    3    0    0  0.61381828493E+02 -0.39983918265E+02 -0.78194553130E+03  0.82829686840E+03  0.26319279186E+03 0.  0.
         25    1    3    3    0    0 -0.61381828493E+02  0.39983918265E+02 -0.14940063050E+03  0.20816939997E+03  0.12509000000E+03 0.  0.
         25    1    4    4    0    0 -0.68041180676E+01 -0.30844130735E+02 -0.32926603843E+03  0.35364005512E+03  0.12509000000E+03 0.  0.
         25    1    4    4    0    0  0.68185946560E+02 -0.91397875305E+01 -0.45267949288E+03  0.47465681328E+03  0.12509000000E+03 0.  0.
<mgrwt>
<rscale>  2 0.45481496E+03</rscale>
<asrwt>0</asrwt>
<pdfrwt beam="1">  1       21 0.77294196E-02 0.45481496E+03</pdfrwt>
<pdfrwt beam="2">  1       21 0.14469209E+00 0.45481496E+03</pdfrwt>
<totfact> 0.37832558E+04</totfact>
</mgrwt>
</event>
<event>
 7    0  0.4831799E-002  0.4510696E+03  0.7546771E-02  0.1027404E+00
         21   -1    0    0  502  501  0.00000000000E+00  0.00000000000E+00  0.39440057539E+03  0.39440057539E+03  0.00000000000E+00 0.  1.
         21   -1    0    0  501  502 -0.00000000000E+00 -0.00000000000E+00 -0.12897025068E+03  0.12897025068E+03  0.00000000000E+00 0.  1.
      99926    2    1    2    0    0  0.00000000000E+00  0.19984014443E-14  0.26543032470E+03  0.52337082607E+03  0.45106957812E+03 0.  0.
      99925    2    3    3    0    0 -0.13330864175E+02  0.14279321420E+01  0.41234401282E+02  0.26628898869E+03  0.26273522550E+03 0.  0.
         25    1    3    3    0    0  0.13330864175E+02 -0.14279321420E+01  0.22419592342E+03  0.25708183738E+03  0.12509000000E+03 0.  0.
         25    1    4    4    0    0  0.16755753398E+02  0.27857776321E+02  0.38721315240E+02  0.13492093732E+03  0.12509000000E+03 0.  0.
         25    1    4    4    0    0 -0.30086617574E+02 -0.26429844179E+02  0.25130860417E+01  0.13136805137E+03  0.12509000000E+03 0.  0.
<mgrwt>
<rscale>  2 0.45106958E+03</rscale>
<asrwt>0</asrwt>
<pdfrwt beam="1">  1       21 0.58000084E-01 0.45106958E+03</pdfrwt>
<pdfrwt beam="2">  1       21 0.18966213E-01 0.45106958E+03</pdfrwt>
<totfact> 0.65680157E+04</totfact>
</mgrwt>
</event>
<event>
 7    0  0.4831799E-002  0.4532366E+03  0.7546771E-02  0.1026761E+00
         21   -1    0    0  502  501  0.00000000000E+00  0.00000000000E+00  0.97947174994E+02  0.97947174994E+02  0.00000000000E+00 0.  1.
         21   -1    0    0  501  502 -0.00000000000E+00 -0.00000000000E+00 -0.52432184689E+03  0.52432184689E+03  0.00000000000E+00 0.  1.
      99926    2    1    2    0    0  0.00000000000E+00  0.71054273576E-14 -0.42637467190E+03  0.62226902189E+03  0.45323655497E+03 0.  0.
      99925    2    3    3    0    0 -0.41500838326E+02 -0.62093315061E+02 -0.38145017332E+03  0.46981044381E+03  0.26389338572E+03 0.  0.
         25    1    3    3    0    0  0.41500838326E+02  0.62093315061E+02 -0.44924498579E+02  0.15245857808E+03  0.12509000000E+03 0.  0.
         25    1    4    4    0    0 -0.53613484505E+02 -0.12966371790E+02 -0.22428380447E+03  0.26266569164E+03  0.12509000000E+03 0.  0.
         25    1    4    4    0    0  0.12112646180E+02 -0.49126943271E+02 -0.15716636885E+03  0.20714475217E+03  0.12509000000E+03 0.  0.
<mgrwt>
<rscale>  2 0.45323655E+03</rscale>
<asrwt>0</asrwt>
<pdfrwt beam="1">  1       21 0.14403996E-01 0.45323655E+03</pdfrwt>
<pdfrwt beam="2">  1       21 0.77106155E-01 0.45323655E+03</pdfrwt>
<totfact> 0.58133296E+04</totfact>
</mgrwt>
</event>
<event>
 7    0  0.4831799E-002  0.4091672E+03  0.7546771E-02  0.1040651E+00
         21   -1    0    0  502  501  0.00000000000E+00  0.00000000000E+00  0.12811042532E+03  0.12811042532E+03  0.00000000000E+00 0.  1.
         21   -1    0    0  501  502 -0.00000000000E+00 -0.00000000000E+00 -0.32670610485E+03  0.32670610485E+03  0.00000000000E+00 0.  1.
      99926    2    1    2    0    0  0.00000000000E+00  0.71054273576E-14 -0.19859567952E+03  0.45481653017E+03  0.40916724232E+03 0.  0.
      99925    2    3    3    0    0 -0.13478019936E+02 -0.42735131304E+02 -0.17702296548E+03  0.32020286608E+03  0.26303002998E+03 0.  0.
         25    1    4    4    0    0  0.16977829424E+02  0.89602948423E+01 -0.10159622478E+03  0.16228935444E+03  0.12509000000E+03 0.  0.
         25    1    3    3    0    0  0.13478019936E+02  0.42735131304E+02 -0.21572714046E+02  0.13461366409E+03  0.12509000000E+03 0.  0.
         25    1    4    4    0    0 -0.30455849359E+02 -0.51695426146E+02 -0.75426740692E+02  0.15791351163E+03  0.12509000000E+03 0.  0.
<mgrwt>
<rscale>  2 0.40916724E+03</rscale>
<asrwt>0</asrwt>
<pdfrwt beam="1">  1       21 0.18839769E-01 0.40916724E+03</pdfrwt>
<pdfrwt beam="2">  1       21 0.48045015E-01 0.40916724E+03</pdfrwt>
<totfact> 0.10044061E+05</totfact>
</mgrwt>
</event>
<event>
 7    0  0.4831799E-002  0.4448948E+03  0.7546771E-02  0.1029255E+00
         21   -1    0    0  502  501  0.00000000000E+00  0.00000000000E+00  0.25204845073E+03  0.25204845073E+03  0.00000000000E+00 0. -1.
         21   -1    0    0  501  502 -0.00000000000E+00 -0.00000000000E+00 -0.19632273712E+03  0.19632273712E+03  0.00000000000E+00 0. -1.
      99926    2    1    2    0    0  0.00000000000E+00  0.71054273576E-14  0.55725713616E+02  0.44837118785E+03  0.44489478187E+03 0.  0.
      99925    2    3    3    0    0  0.59300948839E+02 -0.36034217601E+02 -0.41731650125E+02  0.27528013315E+03  0.26310179344E+03 0.  0.
         25    1    4    4    0    0  0.61087982405E+02  0.71493541424E+01 -0.14334950026E+02  0.14012799061E+03  0.12509000000E+03 0.  0.
         25    1    4    4    0    0 -0.17870335667E+01 -0.43183571743E+02 -0.27396700099E+02  0.13515214254E+03  0.12509000000E+03 0.  0.
         25    1    3    3    0    0 -0.59300948839E+02  0.36034217601E+02  0.97457363741E+02  0.17309105470E+03  0.12509000000E+03 0.  0.
<mgrwt>
<rscale>  2 0.44489478E+03</rscale>
<asrwt>0</asrwt>
<pdfrwt beam="1">  1       21 0.37065949E-01 0.44489478E+03</pdfrwt>
<pdfrwt beam="2">  1       21 0.28870991E-01 0.44489478E+03</pdfrwt>
<totfact> 0.74892328E+04</totfact>
</mgrwt>
</event>
<event>
 7    0  0.4831799E-002  0.4336652E+03  0.7546771E-02  0.1032708E+00
         21   -1    0    0  502  501  0.00000000000E+00  0.00000000000E+00  0.23788601899E+03  0.23788601899E+03  0.00000000000E+00 0. -1.
         21   -1    0    0  501  502 -0.00000000000E+00 -0.00000000000E+00 -0.19764241608E+03  0.19764241608E+03  0.00000000000E+00 0. -1.
      99926    2    1    2    0    0  0.14210854715E-13  0.17763568394E-14  0.40243602918E+02  0.43552843507E+03  0.43366515906E+03 0.  0.
      99925    2    3    3    0    0  0.89005008917E+02 -0.57103099215E+01  0.47632446794E+02  0.28172140543E+03  0.26295170857E+03 0.  0.
         25    1    3    3    0    0 -0.89005008917E+02  0.57103099215E+01 -0.73888438754E+01  0.15380702964E+03  0.12509000000E+03 0.  0.
         25    1    4    4    0    0  0.47252596669E+02  0.26156112399E+02  0.52369185584E+02  0.14596913991E+03  0.12509000000E+03 0.  0.
         25    1    4    4    0    0  0.41752412248E+02 -0.31866422320E+02 -0.47367387900E+01  0.13575226552E+03  0.12509000000E+03 0.  0.
<mgrwt>
<rscale>  2 0.43366516E+03</rscale>
<asrwt>0</asrwt>
<pdfrwt beam="1">  1       21 0.34983238E-01 0.43366516E+03</pdfrwt>
<pdfrwt beam="2">  1       21 0.29065061E-01 0.43366516E+03</pdfrwt>
<totfact> 0.83297978E+04</totfact>
</mgrwt>
</event>
<event>
 7    0  0.4831799E-002  0.4554555E+03  0.7546771E-02  0.1026108E+00
         21   -1    0    0  502  501  0.00000000000E+00  0.00000000000E+00  0.18134112281E+03  0.18134112281E+03  0.00000000000E+00 0.  1.
         21   -1    0    0  501  502 -0.00000000000E+00 -0.00000000000E+00 -0.28597993230E+03  0.28597993230E+03  0.00000000000E+00 0.  1.
      99926    2    1    2    0    0  0.00000000000E+00  0.00000000000E+00 -0.10463880949E+03  0.46732105511E+03  0.45545547324E+03 0.  0.
      99925    2    3    3    0    0 -0.63021411280E+02  0.19565822725E+02 -0.16075690623E+03  0.31516564581E+03  0.26292980375E+03 0.  0.
         25    1    3    3    0    0  0.63021411280E+02 -0.19565822725E+02  0.56118096741E+02  0.15215540930E+03  0.12509000000E+03 0.  0.
         25    1    4    4    0    0 -0.62611594957E+02 -0.46878578968E+01 -0.10996828397E+03  0.17799640281E+03  0.12509000000E+03 0.  0.
         25    1    4    4    0    0 -0.40981632314E+00  0.24253680622E+02 -0.50788622263E+02  0.13716924300E+03  0.12509000000E+03 0.  0.
<mgrwt>
<rscale>  2 0.45545547E+03</rscale>
<asrwt>0</asrwt>
<pdfrwt beam="1">  1       21 0.26667812E-01 0.45545547E+03</pdfrwt>
<pdfrwt beam="2">  1       21 0.42055872E-01 0.45545547E+03</pdfrwt>
<totfact> 0.67391939E+04</totfact>
</mgrwt>
</event>
<event>
 7    0  0.4831799E-002  0.4411639E+03  0.7546771E-02  0.1030390E+00
         21   -1    0    0  502  501  0.00000000000E+00  0.00000000000E+00  0.21144091454E+03  0.21144091454E+03  0.00000000000E+00 0.  1.
         21   -1    0    0  501  502 -0.00000000000E+00 -0.00000000000E+00 -0.23011816615E+03  0.23011816615E+03  0.00000000000E+00 0.  1.
      99926    2    1    2    0    0  0.00000000000E+00  0.00000000000E+00 -0.18677251608E+02  0.44155908068E+03  0.44116389472E+03 0.  0.
      99925    2    3    3    0    0 -0.43839071678E+02 -0.71559813098E+02  0.41871959882E+02  0.27921258036E+03  0.26298998640E+03 0.  0.
         25    1    4    4    0    0 -0.40967712251E+02 -0.49984886060E+02 -0.11953194605E+02  0.14130544661E+03  0.12509000000E+03 0.  0.
         25    1    4    4    0    0 -0.28713594263E+01 -0.21574927037E+02  0.53825154487E+02  0.13790713374E+03  0.12509000000E+03 0.  0.
         25    1    3    3    0    0  0.43839071678E+02  0.71559813098E+02 -0.60549211490E+02  0.16234650033E+03  0.12509000000E+03 0.  0.
<mgrwt>
<rscale>  2 0.44116389E+03</rscale>
<asrwt>0</asrwt>
<pdfrwt beam="1">  1       21 0.31094252E-01 0.44116389E+03</pdfrwt>
<pdfrwt beam="2">  1       21 0.33840907E-01 0.44116389E+03</pdfrwt>
<totfact> 0.77780454E+04</totfact>
</mgrwt>
</event>
<event>
 7    0  0.4831799E-002  0.4477499E+03  0.7546771E-02  0.1028395E+00
         21   -1    0    0  502  501  0.00000000000E+00  0.00000000000E+00  0.43737780709E+02  0.43737780709E+02  0.00000000000E+00 0. -1.
         21   -1    0    0  501  502 -0.00000000000E+00 -0.00000000000E+00 -0.11459197387E+04  0.11459197387E+04  0.00000000000E+00 0. -1.
      99926    2    1    2    0    0  0.00000000000E+00  0.00000000000E+00 -0.11021819579E+04  0.11896575194E+04  0.44774986874E+03 0.  0.
      99925    2    3    3    0    0  0.10278539289E+03  0.24762313319E+02 -0.67020860737E+03  0.72767646687E+03  0.26297424569E+03 0.  0.
         25    1    3    3    0    0 -0.10278539289E+03 -0.24762313319E+02 -0.43197335058E+03  0.46198105249E+03  0.12509000000E+03 0.  0.
         25    1    4    4    0    0  0.43690988946E+02  0.39923689884E+01 -0.42699666778E+03  0.44710010503E+03  0.12509000000E+03 0.  0.
         25    1    4    4    0    0  0.59094403943E+02  0.20769944331E+02 -0.24321193959E+03  0.28057636184E+03  0.12509000000E+03 0.  0.
<mgrwt>
<rscale>  2 0.44774987E+03</rscale>
<asrwt>0</asrwt>
<pdfrwt beam="1">  1       21 0.64320272E-02 0.44774987E+03</pdfrwt>
<pdfrwt beam="2">  1       21 0.16851759E+00 0.44774987E+03</pdfrwt>
<totfact> 0.34387100E+04</totfact>
</mgrwt>
</event>
<event>
 7    0  0.4831799E-002  0.4539153E+03  0.7546771E-02  0.1026561E+00
         21   -1    0    0  502  501  0.00000000000E+00  0.00000000000E+00  0.31005345319E+03  0.31005345319E+03  0.00000000000E+00 0. -1.
         21   -1    0    0  501  502 -0.00000000000E+00 -0.00000000000E+00 -0.16613193977E+03  0.16613193977E+03  0.00000000000E+00 0. -1.
      99926    2    1    2    0    0  0.14210854715E-13  0.35527136788E-14  0.14392151342E+03  0.47618539297E+03  0.45391532960E+03 0.  0.
      99925    2    3    3    0    0 -0.88170471179E+02 -0.19175046698E+02  0.20807860484E+02  0.27883749193E+03  0.26301267164E+03 0.  0.
         25    1    3    3    0    0  0.88170471179E+02  0.19175046698E+02  0.12311365294E+03  0.19734790103E+03  0.12509000000E+03 0.  0.
         25    1    4    4    0    0 -0.16775081463E+02 -0.15102145086E+02 -0.20939576047E+02  0.12882333674E+03  0.12509000000E+03 0.  0.
         25    1    4    4    0    0 -0.71395389716E+02 -0.40729016111E+01  0.41747436531E+02  0.15001415519E+03  0.12509000000E+03 0.  0.
<mgrwt>
<rscale>  2 0.45391533E+03</rscale>
<asrwt>0</asrwt>
<pdfrwt beam="1">  1       21 0.45596096E-01 0.45391533E+03</pdfrwt>
<pdfrwt beam="2">  1       21 0.24431167E-01 0.45391533E+03</pdfrwt>
<totfact> 0.67558542E+04</totfact>
</mgrwt>
</event>
<event>
 7    0  0.4831799E-002  0.4523415E+03  0.7546771E-02  0.1027026E+00
         21   -1    0    0  502  501  0.00000000000E+00  0.00000000000E+00  0.22170600058E+03  0.22170600058E+03  0.00000000000E+00 0. -1.
         21   -1    0    0  501  502 -0.00000000000E+00 -0.00000000000E+00 -0.23072541896E+03  0.23072541896E+03  0.00000000000E+00 0. -1.
      99926    2    1    2    0    0 -0.71054273576E-14  0.00000000000E+00 -0.90194183788E+01  0.45243141954E+03  0.45234150758E+03 0.  0.
      99925    2    3    3    0    0 -0.34585563741E+02 -0.41161232681E+02 -0.10235967868E+03  0.28735470832E+03  0.26306808297E+03 0.  0.
         25    1    4    4    0    0 -0.57517689505E+02 -0.19430771124E+02 -0.61334692664E+02  0.15197135288E+03  0.12509000000E+03 0.  0.
         25    1    3    3    0    0  0.34585563741E+02  0.41161232681E+02  0.93340260299E+02  0.16507671122E+03  0.12509000000E+03 0.  0.
         25    1    4    4    0    0  0.22932125764E+02 -0.21730461558E+02 -0.41024986013E+02  0.13538335544E+03  0.12509000000E+03 0.  0.
<mgrwt>
<rscale>  2 0.45234151E+03</rscale>
<asrwt>0</asrwt>
<pdfrwt beam="1">  1       21 0.32603824E-01 0.45234151E+03</pdfrwt>
<pdfrwt beam="2">  1       21 0.33930209E-01 0.45234151E+03</pdfrwt>
<totfact> 0.70211934E+04</totfact>
</mgrwt>
</event>
<event>
 7    0  0.4831799E-002  0.4569665E+03  0.7546771E-02  0.1025665E+00
         21   -1    0    0  502  501  0.00000000000E+00  0.00000000000E+00  0.43649479882E+02  0.43649479882E+02  0.00000000000E+00 0. -1.
         21   -1    0    0  501  502 -0.00000000000E+00 -0.00000000000E+00 -0.11959959964E+04  0.11959959964E+04  0.00000000000E+00 0. -1.
      99926    2    1    2    0    0  0.00000000000E+00 -0.71054273576E-14 -0.11523465165E+04  0.12396454763E+04  0.45696653350E+03 0.  0.
      99925    2    3    3    0    0 -0.88840180707E+02 -0.32125052373E+02 -0.90170944293E+03  0.94402570791E+03  0.26302095169E+03 0.  0.
         25    1    3    3    0    0  0.88840180707E+02  0.32125052373E+02 -0.25063707361E+03  0.29561976839E+03  0.12509000000E+03 0.  0.
         25    1    4    4    0    0 -0.18736190948E+02  0.13953359613E+02 -0.46368484296E+03  0.48082936972E+03  0.12509000000E+03 0.  0.
         25    1    4    4    0    0 -0.70103989758E+02 -0.46078411987E+02 -0.43802459997E+03  0.46319633819E+03  0.12509000000E+03 0.  0.
<mgrwt>
<rscale>  2 0.45696653E+03</rscale>
<asrwt>0</asrwt>
<pdfrwt beam="1">  1       21 0.64190410E-02 0.45696653E+03</pdfrwt>
<pdfrwt beam="2">  1       21 0.17588177E+00 0.45696653E+03</pdfrwt>
<totfact> 0.30450258E+04</totfact>
</mgrwt>
</event>
<event>
 7    0  0.4831799E-002  0.4540120E+03  0.7546771E-02  0.1026532E+00
         21   -1    0    0  502  501  0.00000000000E+00  0.00000000000E+00  0.13450482263E+03  0.13450482263E+03  0.00000000000E+00 0. -1.
         21   -1    0    0  501  502 -0.00000000000E+00 -0.00000000000E+00 -0.38312178071E+03  0.38312178071E+03  0.00000000000E+00 0. -1.
      99926    2    1    2    0    0  0.14210854715E-13  0.00000000000E+00 -0.24861695809E+03  0.51762660334E+03  0.45401201376E+03 0.  0.
      99925    2    3    3    0    0 -0.90894326374E+02 -0.63341670190E+02 -0.13543159056E+03  0.31580395528E+03  0.26290012685E+03 0.  0.
         25    1    4    4    0    0 -0.29200679146E+02 -0.19635154461E+02 -0.10366179978E+03  0.16622724141E+03  0.12509000000E+03 0.  0.
         25    1    4    4    0    0 -0.61693647227E+02 -0.43706515729E+02 -0.31769790784E+02  0.14957671387E+03  0.12509000000E+03 0.  0.
         25    1    3    3    0    0  0.90894326374E+02  0.63341670190E+02 -0.11318536752E+03  0.20182264806E+03  0.12509000000E+03 0.  0.
<mgrwt>
<rscale>  2 0.45401201E+03</rscale>
<asrwt>0</asrwt>
<pdfrwt beam="1">  1       21 0.19780121E-01 0.45401201E+03</pdfrwt>
<pdfrwt beam="2">  1       21 0.56341438E-01 0.45401201E+03</pdfrwt>
<totfact> 0.64553814E+04</totfact>
</mgrwt>
</event>
<event>
 7    0  0.4831799E-002  0.4553327E+03  0.7546771E-02  0.1026144E+00
         21   -1    0    0  502  501  0.00000000000E+00  0.00000000000E+00  0.54660866972E+03  0.54660866972E+03  0.00000000000E+00 0. -1.
         21   -1    0    0  501  502 -0.00000000000E+00 -0.00000000000E+00 -0.94824649102E+02  0.94824649102E+02  0.00000000000E+00 0. -1.
      99926    2    1    2    0    0  0.00000000000E+00  0.00000000000E+00  0.45178402062E+03  0.64143331882E+03  0.45533273681E+03 0.  0.
      99925    2    3    3    0    0  0.29177191898E+02 -0.10870174095E+03  0.26387711322E+03  0.38919555210E+03  0.26301077903E+03 0.  0.
         25    1    4    4    0    0 -0.11528043382E+02 -0.67819290613E+02  0.17240850971E+03  0.22384046614E+03  0.12509000000E+03 0.  0.
         25    1    4    4    0    0  0.40705235280E+02 -0.40882450332E+02  0.91468603513E+02  0.16535508596E+03  0.12509000000E+03 0.  0.
         25    1    3    3    0    0 -0.29177191898E+02  0.10870174095E+03  0.18790690739E+03  0.25223776672E+03  0.12509000000E+03 0.  0.
<mgrwt>
<rscale>  2 0.45533274E+03</rscale>
<asrwt>0</asrwt>
<pdfrwt beam="1">  1       21 0.80383626E-01 0.45533274E+03</pdfrwt>
<pdfrwt beam="2">  1       21 0.13944802E-01 0.45533274E+03</pdfrwt>
<totfact> 0.56050416E+04</totfact>
</mgrwt>
</event>
<event>
 7    0  0.4831799E-002  0.4285827E+03  0.7546771E-02  0.1034309E+00
         21   -1    0    0  502  501  0.00000000000E+00  0.00000000000E+00  0.18972943147E+04  0.18972943147E+04  0.00000000000E+00 0. -1.
         21   -1    0    0  501  502 -0.00000000000E+00 -0.00000000000E+00 -0.24203300273E+02  0.24203300273E+02  0.00000000000E+00 0. -1.
      99926    2    1    2    0    0  0.00000000000E+00  0.00000000000E+00  0.18730910144E+04  0.19214976150E+04  0.42858270616E+03 0.  0.
      99925    2    3    3    0    0  0.45057270304E+02  0.26904403506E+02  0.90342935489E+03  0.94239330663E+03  0.26299532424E+03 0.  0.
         25    1    4    4    0    0  0.24522549779E+02 -0.26690078624E+02  0.41640022750E+03  0.43629161499E+03  0.12509000000E+03 0.  0.
         25    1    4    4    0    0  0.20534720525E+02  0.53594482130E+02  0.48702912739E+03  0.50610169164E+03  0.12509000000E+03 0.  0.
         25    1    3    3    0    0 -0.45057270304E+02 -0.26904403506E+02  0.96966165956E+03  0.97910430836E+03  0.12509000000E+03 0.  0.
<mgrwt>
<rscale>  2 0.42858271E+03</rscale>
<asrwt>0</asrwt>
<pdfrwt beam="1">  1       21 0.27901377E+00 0.42858271E+03</pdfrwt>
<pdfrwt beam="2">  1       21 0.35593102E-02 0.42858271E+03</pdfrwt>
<totfact> 0.18557477E+04</totfact>
</mgrwt>
</event>
<event>
 7    0  0.4831799E-002  0.4515269E+03  0.7546771E-02  0.1027268E+00
         21   -1    0    0  502  501  0.00000000000E+00  0.00000000000E+00  0.56554047404E+03  0.56554047404E+03  0.00000000000E+00 0. -1.
         21   -1    0    0  501  502 -0.00000000000E+00 -0.00000000000E+00 -0.90124654091E+02  0.90124654091E+02  0.00000000000E+00 0. -1.
      99926    2    1    2    0    0  0.14210854715E-13 -0.71054273576E-14  0.47541581995E+03  0.65566512813E+03  0.45152691879E+03 0.  0.
      99925    2    3    3    0    0 -0.73317184153E+02  0.38062989863E+02  0.40537229644E+03  0.49020273369E+03  0.26295973210E+03 0.  0.
         25    1    3    3    0    0  0.73317184153E+02 -0.38062989863E+02  0.70043523509E+02  0.16546239444E+03  0.12509000000E+03 0.  0.
         25    1    4    4    0    0 -0.63820355050E+02  0.36893936183E+01  0.25699341995E+03  0.29288184536E+03  0.12509000000E+03 0.  0.
         25    1    4    4    0    0 -0.94968291028E+01  0.34373596245E+02  0.14837887649E+03  0.19732088833E+03  0.12509000000E+03 0.  0.
<mgrwt>
<rscale>  2 0.45152692E+03</rscale>
<asrwt>0</asrwt>
<pdfrwt beam="1">  1       21 0.83167715E-01 0.45152692E+03</pdfrwt>
<pdfrwt beam="2">  1       21 0.13253626E-01 0.45152692E+03</pdfrwt>
<totfact> 0.56919449E+04</totfact>
</mgrwt>
</event>
<event>
 7    0  0.4831799E-002  0.4555348E+03  0.7546771E-02  0.1026084E+00
         21   -1    0    0  502  501  0.00000000000E+00  0.00000000000E+00  0.46954576303E+03  0.46954576303E+03  0.00000000000E+00 0. -1.
         21   -1    0    0  501  502 -0.00000000000E+00 -0.00000000000E+00 -0.11048548983E+03  0.11048548983E+03  0.00000000000E+00 0. -1.
      99926    2    1    2    0    0  0.14210854715E-13  0.00000000000E+00  0.35906027320E+03  0.58003125286E+03  0.45553482249E+03 0.  0.
      99925    2    3    3    0    0  0.84132077638E+02 -0.51168507057E+02  0.29814918564E+03  0.40957864569E+03  0.26299297996E+03 0.  0.
         25    1    4    4    0    0  0.80657234273E+02 -0.12424005077E+02  0.17059115437E+03  0.22673507755E+03  0.12509000000E+03 0.  0.
         25    1    3    3    0    0 -0.84132077638E+02  0.51168507057E+02  0.60911087564E+02  0.17045260717E+03  0.12509000000E+03 0.  0.
         25    1    4    4    0    0  0.34748433646E+01 -0.38744501981E+02  0.12755803127E+03  0.18284356814E+03  0.12509000000E+03 0.  0.
<mgrwt>
<rscale>  2 0.45553482E+03</rscale>
<asrwt>0</asrwt>
<pdfrwt beam="1">  1       21 0.69050847E-01 0.45553482E+03</pdfrwt>
<pdfrwt beam="2">  1       21 0.16247866E-01 0.45553482E+03</pdfrwt>
<totfact> 0.59671842E+04</totfact>
</mgrwt>
</event>
<event>
 7    0  0.4831799E-002  0.4331907E+03  0.7546771E-02  0.1032857E+00
         21   -1    0    0  502  501  0.00000000000E+00  0.00000000000E+00  0.70259413789E+02  0.70259413789E+02  0.00000000000E+00 0.  1.
         21   -1    0    0  501  502 -0.00000000000E+00 -0.00000000000E+00 -0.66771896623E+03  0.66771896623E+03  0.00000000000E+00 0.  1.
      99926    2    1    2    0    0  0.00000000000E+00  0.00000000000E+00 -0.59745955244E+03  0.73797838002E+03  0.43319068847E+03 0.  0.
      99925    2    3    3    0    0  0.69880688098E+02 -0.41166892205E+02 -0.31272946150E+03  0.41658025250E+03  0.26298548839E+03 0.  0.
         25    1    4    4    0    0  0.60253418710E+02  0.43053501425E+01 -0.12954706640E+03  0.18994462619E+03  0.12509000000E+03 0.  0.
         25    1    3    3    0    0 -0.69880688098E+02  0.41166892205E+02 -0.28473009095E+03  0.32139812752E+03  0.12509000000E+03 0.  0.
         25    1    4    4    0    0  0.96272693884E+01 -0.45472242347E+02 -0.18318239509E+03  0.22663562631E+03  0.12509000000E+03 0.  0.
<mgrwt>
<rscale>  2 0.43319069E+03</rscale>
<asrwt>0</asrwt>
<pdfrwt beam="1">  1       21 0.10332267E-01 0.43319069E+03</pdfrwt>
<pdfrwt beam="2">  1       21 0.98193967E-01 0.43319069E+03</pdfrwt>
<totfact> 0.60635928E+04</totfact>
</mgrwt>
</event>
<event>
 7    0  0.4831799E-002  0.4579411E+03  0.7546771E-02  0.1025380E+00
         21   -1    0    0  502  501  0.00000000000E+00  0.00000000000E+00  0.15299313014E+03  0.15299313014E+03  0.00000000000E+00 0.  1.
         21   -1    0    0  501  502 -0.00000000000E+00 -0.00000000000E+00 -0.34267893701E+03  0.34267893701E+03  0.00000000000E+00 0.  1.
      99926    2    1    2    0    0  0.00000000000E+00  0.00000000000E+00 -0.18968580687E+03  0.49567206715E+03  0.45794114559E+03 0.  0.
      99925    2    3    3    0    0 -0.13859807069E+02 -0.68019956852E+02 -0.21949275584E+03  0.34953934977E+03  0.26302448249E+03 0.  0.
         25    1    4    4    0    0  0.52385179109E+01 -0.44768654125E+02 -0.15929515999E+03  0.20749489285E+03  0.12509000000E+03 0.  0.
         25    1    4    4    0    0 -0.19098324980E+02 -0.23251302727E+02 -0.60197595848E+02  0.14204445692E+03  0.12509000000E+03 0.  0.
         25    1    3    3    0    0  0.13859807069E+02  0.68019956852E+02  0.29806948965E+02  0.14613271738E+03  0.12509000000E+03 0.  0.
<mgrwt>
<rscale>  2 0.45794115E+03</rscale>
<asrwt>0</asrwt>
<pdfrwt beam="1">  1       21 0.22498990E-01 0.45794115E+03</pdfrwt>
<pdfrwt beam="2">  1       21 0.50393960E-01 0.45794115E+03</pdfrwt>
<totfact> 0.64066805E+04</totfact>
</mgrwt>
</event>
<event>
 7    0  0.4831799E-002  0.4576955E+03  0.7546771E-02  0.1025452E+00
         21   -1    0    0  502  501  0.00000000000E+00  0.00000000000E+00  0.43404328192E+03  0.43404328192E+03  0.00000000000E+00 0.  1.
         21   -1    0    0  501  502 -0.00000000000E+00 -0.00000000000E+00 -0.12065914780E+03  0.12065914780E+03  0.00000000000E+00 0.  1.
      99926    2    1    2    0    0 -0.13322676296E-14  0.00000000000E+00  0.31338413413E+03  0.55470242972E+03  0.45769549923E+03 0.  0.
      99925    2    3    3    0    0 -0.21081635003E+01  0.27328019868E+02  0.33296911357E+03  0.42515574106E+03  0.26294050380E+03 0.  0.
         25    1    3    3    0    0  0.21081635003E+01 -0.27328019868E+02 -0.19584979446E+02  0.12954668866E+03  0.12509000000E+03 0.  0.
         25    1    4    4    0    0  0.14152842091E+02  0.45104964793E+02  0.20365451763E+03  0.24363380602E+03  0.12509000000E+03 0.  0.
         25    1    4    4    0    0 -0.16261005591E+02 -0.17776944925E+02  0.12931459595E+03  0.18152193503E+03  0.12509000000E+03 0.  0.
<mgrwt>
<rscale>  2 0.45769550E+03</rscale>
<asrwt>0</asrwt>
<pdfrwt beam="1">  1       21 0.63829894E-01 0.45769550E+03</pdfrwt>
<pdfrwt beam="2">  1       21 0.17743992E-01 0.45769550E+03</pdfrwt>
<totfact> 0.60261497E+04</totfact>
</mgrwt>
</event>
<event>
 7    0  0.4831799E-002  0.4514321E+03  0.7546771E-02  0.1027296E+00
         21   -1    0    0  502  501  0.00000000000E+00  0.00000000000E+00  0.75893261150E+03  0.75893261150E+03  0.00000000000E+00 0. -1.
         21   -1    0    0  501  502 -0.00000000000E+00 -0.00000000000E+00 -0.67130780101E+02  0.67130780101E+02  0.00000000000E+00 0. -1.
      99926    2    1    2    0    0  0.00000000000E+00  0.00000000000E+00  0.69180183139E+03  0.82606339160E+03  0.45143211341E+03 0.  0.
      99925    2    3    3    0    0  0.42636874858E+02  0.10100532431E+03  0.42902055857E+03  0.51506261333E+03  0.26307960266E+03 0.  0.
         25    1    4    4    0    0 -0.14754658810E+02  0.37524725097E+02  0.16893228280E+03  0.21403604655E+03  0.12509000000E+03 0.  0.
         25    1    3    3    0    0 -0.42636874858E+02 -0.10100532431E+03  0.26278127282E+03  0.31100077827E+03  0.12509000000E+03 0.  0.
         25    1    4    4    0    0  0.57391533668E+02  0.63480599214E+02  0.26008827577E+03  0.30102656678E+03  0.12509000000E+03 0.  0.
<mgrwt>
<rscale>  2 0.45143211E+03</rscale>
<asrwt>0</asrwt>
<pdfrwt beam="1">  1       21 0.11160773E+00 0.45143211E+03</pdfrwt>
<pdfrwt beam="2">  1       21 0.98721740E-02 0.45143211E+03</pdfrwt>
<totfact> 0.47855560E+04</totfact>
</mgrwt>
</event>
<event>
 7    0  0.4831799E-002  0.4402137E+03  0.7546771E-02  0.1030681E+00
         21   -1    0    0  502  501  0.00000000000E+00  0.00000000000E+00  0.57317065724E+02  0.57317065724E+02  0.00000000000E+00 0.  1.
         21   -1    0    0  501  502 -0.00000000000E+00 -0.00000000000E+00 -0.84524622871E+03  0.84524622871E+03  0.00000000000E+00 0.  1.
      99926    2    1    2    0    0  0.00000000000E+00  0.00000000000E+00 -0.78792916299E+03  0.90256329444E+03  0.44021373738E+03 0.  0.
      99925    2    3    3    0    0  0.84869604850E+01  0.25428299781E+02 -0.30770969610E+03  0.40559561802E+03  0.26287624722E+03 0.  0.
         25    1    4    4    0    0 -0.57774460529E+01  0.49797831863E+02 -0.13801502059E+03  0.19289597443E+03  0.12509000000E+03 0.  0.
         25    1    4    4    0    0  0.14264406538E+02 -0.24369532083E+02 -0.16969467551E+03  0.21269964359E+03  0.12509000000E+03 0.  0.
         25    1    3    3    0    0 -0.84869604850E+01 -0.25428299781E+02 -0.48021946688E+03  0.49696767642E+03  0.12509000000E+03 0.  0.
<mgrwt>
<rscale>  2 0.44021374E+03</rscale>
<asrwt>0</asrwt>
<pdfrwt beam="1">  1       21 0.84289804E-02 0.44021374E+03</pdfrwt>
<pdfrwt beam="2">  1       21 0.12430091E+00 0.44021374E+03</pdfrwt>
<totfact> 0.48495656E+04</totfact>
</mgrwt>
</event>
<event>
 7    0  0.4831799E-002  0.4478543E+03  0.7546771E-02  0.1028364E+00
         21   -1    0    0  502  501  0.00000000000E+00  0.00000000000E+00  0.20900398255E+03  0.20900398255E+03  0.00000000000E+00 0.  1.
         21   -1    0    0  501  502 -0.00000000000E+00 -0.00000000000E+00 -0.23991585101E+03  0.23991585101E+03  0.00000000000E+00 0.  1.
      99926    2    1    2    0    0  0.00000000000E+00  0.71054273576E-14 -0.30911868461E+02  0.44891983356E+03  0.44785429924E+03 0.  0.
      99925    2    3    3    0    0 -0.63100187485E+02 -0.60438760349E+02  0.41123876484E+02  0.28018591858E+03  0.26301805706E+03 0.  0.
         25    1    4    4    0    0 -0.33425045285E+02  0.64484378778E+00  0.46954708207E+02  0.13773126805E+03  0.12509000000E+03 0.  0.
         25    1    3    3    0    0  0.63100187485E+02  0.60438760349E+02 -0.72035744946E+02  0.16873391498E+03  0.12509000000E+03 0.  0.
         25    1    4    4    0    0 -0.29675142200E+02 -0.61083604137E+02 -0.58308317221E+01  0.14245465053E+03  0.12509000000E+03 0.  0.
<mgrwt>
<rscale>  2 0.44785430E+03</rscale>
<asrwt>0</asrwt>
<pdfrwt beam="1">  1       21 0.30735880E-01 0.44785430E+03</pdfrwt>
<pdfrwt beam="2">  1       21 0.35281743E-01 0.44785430E+03</pdfrwt>
<totfact> 0.73071644E+04</totfact>
</mgrwt>
</event>
<event>
 7    0  0.4831799E-002  0.4616844E+03  0.7546771E-02  0.1024294E+00
         21   -1    0    0  502  501  0.00000000000E+00  0.00000000000E+00  0.75437620697E+02  0.75437620697E+02  0.00000000000E+00 0. -1.
         21   -1    0    0  501  502 -0.00000000000E+00 -0.00000000000E+00 -0.70638644917E+03  0.70638644917E+03  0.00000000000E+00 0. -1.
      99926    2    1    2    0    0  0.00000000000E+00  0.35527136788E-14 -0.63094882848E+03  0.78182406987E+03  0.46168436412E+03 0.  0.
      99925    2    3    3    0    0 -0.11374696138E+03  0.19736676434E+02 -0.34213966145E+03  0.44658363276E+03  0.26277268787E+03 0.  0.
         25    1    4    4    0    0 -0.97416043769E+02  0.19415416364E+02 -0.21066941004E+03  0.26437842651E+03  0.12509000000E+03 0.  0.
         25    1    3    3    0    0  0.11374696138E+03 -0.19736676434E+02 -0.28880916702E+03  0.33524043711E+03  0.12509000000E+03 0.  0.
         25    1    4    4    0    0 -0.16330917608E+02  0.32126007033E+00 -0.13147025141E+03  0.18220520625E+03  0.12509000000E+03 0.  0.
<mgrwt>
<rscale>  2 0.46168436E+03</rscale>
<asrwt>0</asrwt>
<pdfrwt beam="1">  1       21 0.11093768E-01 0.46168436E+03</pdfrwt>
<pdfrwt beam="2">  1       21 0.10388036E+00 0.46168436E+03</pdfrwt>
<totfact> 0.46185334E+04</totfact>
</mgrwt>
</event>
<event>
 7    0  0.4831799E-002  0.4583690E+03  0.7546771E-02  0.1025255E+00
         21   -1    0    0  502  501  0.00000000000E+00  0.00000000000E+00  0.91470037396E+03  0.91470037396E+03  0.00000000000E+00 0. -1.
         21   -1    0    0  501  502 -0.00000000000E+00 -0.00000000000E+00 -0.57423759982E+02  0.57423759982E+02  0.00000000000E+00 0. -1.
      99926    2    1    2    0    0 -0.35527136788E-14  0.00000000000E+00  0.85727661398E+03  0.97212413394E+03  0.45836899865E+03 0.  0.
      99925    2    3    3    0    0 -0.30795576203E+02  0.73579684900E+02  0.35826533315E+03  0.45152630064E+03  0.26298215470E+03 0.  0.
         25    1    4    4    0    0 -0.18816670632E+02  0.14136078711E+02  0.22743798949E+03  0.26063277418E+03  0.12509000000E+03 0.  0.
         25    1    3    3    0    0  0.30795576203E+02 -0.73579684900E+02  0.49901128083E+03  0.52059783330E+03  0.12509000000E+03 0.  0.
         25    1    4    4    0    0 -0.11978905571E+02  0.59443606188E+02  0.13082734366E+03  0.19089352646E+03  0.12509000000E+03 0.  0.
<mgrwt>
<rscale>  2 0.45836900E+03</rscale>
<asrwt>0</asrwt>
<pdfrwt beam="1">  1       21 0.13451475E+00 0.45836900E+03</pdfrwt>
<pdfrwt beam="2">  1       21 0.84446711E-02 0.45836900E+03</pdfrwt>
<totfact> 0.39214610E+04</totfact>
</mgrwt>
</event>
<event>
 7    0  0.4831799E-002  0.4481388E+03  0.7546771E-02  0.1028279E+00
         21   -1    0    0  502  501  0.00000000000E+00  0.00000000000E+00  0.18908925678E+03  0.18908925678E+03  0.00000000000E+00 0.  1.
         21   -1    0    0  501  502 -0.00000000000E+00 -0.00000000000E+00 -0.26552065743E+03  0.26552065743E+03  0.00000000000E+00 0.  1.
      99926    2    1    2    0    0  0.14210854715E-13  0.00000000000E+00 -0.76431400644E+02  0.45460991421E+03  0.44813883462E+03 0.  0.
      99925    2    3    3    0    0 -0.84939025728E+02  0.41715693027E+02  0.13425475855E+01  0.27953526653E+03  0.26302723369E+03 0.  0.
         25    1    3    3    0    0  0.84939025728E+02 -0.41715693027E+02 -0.77773948229E+02  0.17507464768E+03  0.12509000000E+03 0.  0.
         25    1    4    4    0    0 -0.47467885169E+01  0.86839613004E+01  0.16527923010E+02  0.12656470094E+03  0.12509000000E+03 0.  0.
         25    1    4    4    0    0 -0.80192237211E+02  0.33031731727E+02 -0.15185375424E+02  0.15297056559E+03  0.12509000000E+03 0.  0.
<mgrwt>
<rscale>  2 0.44813883E+03</rscale>
<asrwt>0</asrwt>
<pdfrwt beam="1">  1       21 0.27807244E-01 0.44813883E+03</pdfrwt>
<pdfrwt beam="2">  1       21 0.39047155E-01 0.44813883E+03</pdfrwt>
<totfact> 0.72459153E+04</totfact>
</mgrwt>
</event>
<event>
 7    0  0.4831799E-002  0.4562345E+03  0.7546771E-02  0.1025879E+00
         21   -1    0    0  502  501  0.00000000000E+00  0.00000000000E+00  0.48893712156E+03  0.48893712156E+03  0.00000000000E+00 0. -1.
         21   -1    0    0  501  502 -0.00000000000E+00 -0.00000000000E+00 -0.10642980980E+03  0.10642980980E+03  0.00000000000E+00 0. -1.
      99926    2    1    2    0    0  0.00000000000E+00  0.00000000000E+00  0.38250731175E+03  0.59536693136E+03  0.45623452238E+03 0.  0.
      99925    2    3    3    0    0 -0.99747634878E+02  0.55144557395E+02  0.25410267973E+03  0.38293865994E+03  0.26283708367E+03 0.  0.
         25    1    3    3    0    0  0.99747634878E+02 -0.55144557395E+02  0.12840463202E+03  0.21242827142E+03  0.12509000000E+03 0.  0.
         25    1    4    4    0    0 -0.63117277768E+02  0.24613627507E+02  0.79640159122E+02  0.16303277111E+03  0.12509000000E+03 0.  0.
         25    1    4    4    0    0 -0.36630357111E+02  0.30530929888E+02  0.17446252061E+03  0.21990588883E+03  0.12509000000E+03 0.  0.
<mgrwt>
<rscale>  2 0.45623452E+03</rscale>
<asrwt>0</asrwt>
<pdfrwt beam="1">  1       21 0.71902517E-01 0.45623452E+03</pdfrwt>
<pdfrwt beam="2">  1       21 0.15651443E-01 0.45623452E+03</pdfrwt>
<totfact> 0.58392608E+04</totfact>
</mgrwt>
</event>
<event>
 7    0  0.4831799E-002  0.4518645E+03  0.7546771E-02  0.1027167E+00
         21   -1    0    0  502  501  0.00000000000E+00  0.00000000000E+00  0.22266468685E+04  0.22266468685E+04  0.00000000000E+00 0.  1.
         21   -1    0    0  501  502 -0.00000000000E+00 -0.00000000000E+00 -0.22924779931E+02  0.22924779931E+02  0.00000000000E+00 0.  1.
      99926    2    1    2    0    0  0.00000000000E+00 -0.71054273576E-14  0.22037220886E+04  0.22495716484E+04  0.45186453476E+03 0.  0.
      99925    2    3    3    0    0  0.20095038976E+02 -0.39750922206E+02  0.18906179301E+04  0.19094750908E+04  0.26396025857E+03 0.  0.
         25    1    3    3    0    0 -0.20095038976E+02  0.39750922206E+02  0.31310415846E+03  0.34009655769E+03  0.12509000000E+03 0.  0.
         25    1    4    4    0    0  0.29328785653E+02 -0.14481062642E+02  0.68577583080E+03  0.69785806369E+03  0.12509000000E+03 0.  0.
         25    1    4    4    0    0 -0.92337466765E+01 -0.25269859564E+02  0.12048420993E+04  0.12116170271E+04  0.12509000000E+03 0.  0.
<mgrwt>
<rscale>  2 0.45186453E+03</rscale>
<asrwt>0</asrwt>
<pdfrwt beam="1">  1       21 0.32744792E+00 0.45186453E+03</pdfrwt>
<pdfrwt beam="2">  1       21 0.33712927E-02 0.45186453E+03</pdfrwt>
<totfact> 0.10294702E+04</totfact>
</mgrwt>
</event>
<event>
 7    0  0.4831799E-002  0.4441126E+03  0.7546771E-02  0.1029492E+00
         21   -1    0    0  502  501  0.00000000000E+00  0.00000000000E+00  0.26573434920E+02  0.26573434920E+02  0.00000000000E+00 0.  1.
         21   -1    0    0  501  502 -0.00000000000E+00 -0.00000000000E+00 -0.18555748319E+04  0.18555748319E+04  0.00000000000E+00 0.  1.
      99926    2    1    2    0    0  0.00000000000E+00  0.17763568394E-14 -0.18290013970E+04  0.18821482668E+04  0.44411258498E+03 0.  0.
      99925    2    3    3    0    0 -0.63198058893E+02  0.13157698305E+02 -0.15008694202E+04  0.15250975394E+04  0.26295697080E+03 0.  0.
         25    1    4    4    0    0 -0.29061307878E+02 -0.25516469117E+02 -0.87729646750E+03  0.88701310576E+03  0.12509000000E+03 0.  0.
         25    1    4    4    0    0 -0.34136751015E+02  0.38674167422E+02 -0.62357295269E+03  0.63808443361E+03  0.12509000000E+03 0.  0.
         25    1    3    3    0    0  0.63198058893E+02 -0.13157698305E+02 -0.32813197678E+03  0.35705072743E+03  0.12509000000E+03 0.  0.
<mgrwt>
<rscale>  2 0.44411258E+03</rscale>
<asrwt>0</asrwt>
<pdfrwt beam="1">  1       21 0.39078580E-02 0.44411258E+03</pdfrwt>
<pdfrwt beam="2">  1       21 0.27287866E+00 0.44411258E+03</pdfrwt>
<totfact> 0.17133422E+04</totfact>
</mgrwt>
</event>
<event>
 7    0  0.4831799E-002  0.4398456E+03  0.7546771E-02  0.1030794E+00
         21   -1    0    0  502  501  0.00000000000E+00  0.00000000000E+00  0.11083608159E+04  0.11083608159E+04  0.00000000000E+00 0.  1.
         21   -1    0    0  501  502 -0.00000000000E+00 -0.00000000000E+00 -0.43637455017E+02  0.43637455017E+02  0.00000000000E+00 0.  1.
      99926    2    1    2    0    0  0.00000000000E+00  0.00000000000E+00  0.10647233609E+04  0.11519982709E+04  0.43984563313E+03 0.  0.
      99925    2    3    3    0    0 -0.70131357761E+02 -0.68507668405E+02  0.66016703307E+03  0.71734319106E+03  0.26296203954E+03 0.  0.
         25    1    3    3    0    0  0.70131357761E+02  0.68507668405E+02  0.40455632783E+03  0.43465507987E+03  0.12509000000E+03 0.  0.
         25    1    4    4    0    0 -0.10948406704E+02 -0.37169659677E+02  0.40149829572E+03  0.42231485976E+03  0.12509000000E+03 0.  0.
         25    1    4    4    0    0 -0.59182951057E+02 -0.31338008729E+02  0.25866873735E+03  0.29502833130E+03  0.12509000000E+03 0.  0.
<mgrwt>
<rscale>  2 0.43984563E+03</rscale>
<asrwt>0</asrwt>
<pdfrwt beam="1">  1       21 0.16299422E+00 0.43984563E+03</pdfrwt>
<pdfrwt beam="2">  1       21 0.64172735E-02 0.43984563E+03</pdfrwt>
<totfact> 0.38010421E+04</totfact>
</mgrwt>
</event>
<event>
 7    0  0.4831799E-002  0.4602564E+03  0.7546771E-02  0.1024707E+00
         21   -1    0    0  502  501  0.00000000000E+00  0.00000000000E+00  0.62828344467E+03  0.62828344467E+03  0.00000000000E+00 0. -1.
         21   -1    0    0  501  502 -0.00000000000E+00 -0.00000000000E+00 -0.84291569887E+02  0.84291569887E+02  0.00000000000E+00 0. -1.
      99926    2    1    2    0    0  0.28421709430E-13 -0.44408920985E-15  0.54399187478E+03  0.71257501455E+03  0.46025644106E+03 0.  0.
      99925    2    3    3    0    0  0.91686080672E+02 -0.36263211351E+01  0.22578987269E+03  0.35857005721E+03  0.26300557355E+03 0.  0.
         25    1    4    4    0    0  0.86260655659E+02  0.18095183923E+01  0.14064482550E+03  0.20705711799E+03  0.12509000000E+03 0.  0.
         25    1    3    3    0    0 -0.91686080672E+02  0.36263211351E+01  0.31820200208E+03  0.35400495734E+03  0.12509000000E+03 0.  0.
         25    1    4    4    0    0  0.54254250124E+01 -0.54358395274E+01  0.85145047197E+02  0.15151293922E+03  0.12509000000E+03 0.  0.
<mgrwt>
<rscale>  2 0.46025644E+03</rscale>
<asrwt>0</asrwt>
<pdfrwt beam="1">  1       21 0.92394622E-01 0.46025644E+03</pdfrwt>
<pdfrwt beam="2">  1       21 0.12395819E-01 0.46025644E+03</pdfrwt>
<totfact> 0.50120498E+04</totfact>
</mgrwt>
</event>
<event>
 7    0  0.4831799E-002  0.4528241E+03  0.7546771E-02  0.1026883E+00
         21   -1    0    0  502  501  0.00000000000E+00  0.00000000000E+00  0.15158684554E+03  0.15158684554E+03  0.00000000000E+00 0. -1.
         21   -1    0    0  501  502 -0.00000000000E+00 -0.00000000000E+00 -0.33817200006E+03  0.33817200006E+03  0.00000000000E+00 0. -1.
      99926    2    1    2    0    0  0.00000000000E+00  0.17763568394E-14 -0.18658515452E+03  0.48975884560E+03  0.45282414573E+03 0.  0.
      99925    2    3    3    0    0 -0.85373941124E+02 -0.15340281157E+02 -0.41835907076E+02  0.27970198000E+03  0.26260030549E+03 0.  0.
         25    1    3    3    0    0  0.85373941124E+02  0.15340281157E+02 -0.14474924744E+03  0.21005686560E+03  0.12509000000E+03 0.  0.
         25    1    4    4    0    0 -0.13815557111E+02  0.10538060490E+02  0.37695891783E+01  0.12634729217E+03  0.12509000000E+03 0.  0.
         25    1    4    4    0    0 -0.71558384014E+02 -0.25878341647E+02 -0.45605496254E+02  0.15335468782E+03  0.12509000000E+03 0.  0.
<mgrwt>
<rscale>  2 0.45282415E+03</rscale>
<asrwt>0</asrwt>
<pdfrwt beam="1">  1       21 0.22292183E-01 0.45282415E+03</pdfrwt>
<pdfrwt beam="2">  1       21 0.49731176E-01 0.45282415E+03</pdfrwt>
<totfact> 0.67148707E+04</totfact>
</mgrwt>
</event>
<event>
 7    0  0.4831799E-002  0.4548038E+03  0.7546771E-02  0.1026299E+00
         21   -1    0    0  502  501  0.00000000000E+00  0.00000000000E+00  0.82421026141E+02  0.82421026141E+02  0.00000000000E+00 0. -1.
         21   -1    0    0  501  502 -0.00000000000E+00 -0.00000000000E+00 -0.62740811943E+03  0.62740811943E+03  0.00000000000E+00 0. -1.
      99926    2    1    2    0    0  0.00000000000E+00  0.00000000000E+00 -0.54498709329E+03  0.70982914557E+03  0.45480378632E+03 0.  0.
      99925    2    3    3    0    0  0.26447102576E+02 -0.92140528099E+02 -0.24946534377E+03  0.37491133671E+03  0.26293768558E+03 0.  0.
         25    1    4    4    0    0  0.43017568675E+02 -0.20899978370E+02 -0.10371043928E+03  0.16938324482E+03  0.12509000000E+03 0.  0.
         25    1    4    4    0    0 -0.16570466099E+02 -0.71240549728E+02 -0.14575490449E+03  0.20552809189E+03  0.12509000000E+03 0.  0.
         25    1    3    3    0    0 -0.26447102576E+02  0.92140528099E+02 -0.29552174952E+03  0.33491780886E+03  0.12509000000E+03 0.  0.
<mgrwt>
<rscale>  2 0.45480379E+03</rscale>
<asrwt>0</asrwt>
<pdfrwt beam="1">  1       21 0.12120739E-01 0.45480379E+03</pdfrwt>
<pdfrwt beam="2">  1       21 0.92265903E-01 0.45480379E+03</pdfrwt>
<totfact> 0.52453483E+04</totfact>
</mgrwt>
</event>
<event>
 7    0  0.4831799E-002  0.4289806E+03  0.7546771E-02  0.1034182E+00
         21   -1    0    0  502  501  0.00000000000E+00  0.00000000000E+00  0.20396008412E+03  0.20396008412E+03  0.00000000000E+00 0.  1.
         21   -1    0    0  501  502 -0.00000000000E+00 -0.00000000000E+00 -0.22556419891E+03  0.22556419891E+03  0.00000000000E+00 0.  1.
      99926    2    1    2    0    0  0.00000000000E+00 -0.71054273576E-14 -0.21604114790E+02  0.42952428303E+03  0.42898061953E+03 0.  0.
      99925    2    3    3    0    0 -0.23968178840E+02 -0.39629469169E+02  0.59296413241E+02  0.27351988579E+03  0.26296785901E+03 0.  0.
         25    1    4    4    0    0  0.50669613790E+01 -0.34898176775E+02 -0.45185733497E+01  0.13004415575E+03  0.12509000000E+03 0.  0.
         25    1    3    3    0    0  0.23968178840E+02  0.39629469169E+02 -0.80900528031E+02  0.15600439724E+03  0.12509000000E+03 0.  0.
         25    1    4    4    0    0 -0.29035140219E+02 -0.47312923941E+01  0.63814986591E+02  0.14347573003E+03  0.12509000000E+03 0.  0.
<mgrwt>
<rscale>  2 0.42898062E+03</rscale>
<asrwt>0</asrwt>
<pdfrwt beam="1">  1       21 0.29994130E-01 0.42898062E+03</pdfrwt>
<pdfrwt beam="2">  1       21 0.33171206E-01 0.42898062E+03</pdfrwt>
<totfact> 0.87198823E+04</totfact>
</mgrwt>
</event>
<event>
 6    0  0.4831799E-002  0.6367683E+03  0.7546771E-02  0.9831929E-01
         21   -1    0    0  502  501  0.00000000000E+00  0.00000000000E+00  0.78520108962E+02  0.78520108962E+02  0.00000000000E+00 0. -1.
         21   -1    0    0  501  502 -0.00000000000E+00 -0.00000000000E+00 -0.12909872509E+04  0.12909872509E+04  0.00000000000E+00 0. -1.
      99925    2    1    2    0    0  0.18771345576E+03 -0.14926826756E+03 -0.80845391100E+03  0.88330621214E+03  0.26289690187E+03 0.  0.
         25    1    1    2    0    0 -0.18771345576E+03  0.14926826756E+03 -0.40401323094E+03  0.48620114772E+03  0.12509000000E+03 0.  0.
         25    1    3    3    0    0  0.73298681350E+02 -0.30414781912E+02 -0.36431586581E+03  0.39328274032E+03  0.12509000000E+03 0.  0.
         25    1    3    3    0    0  0.11441477441E+03 -0.11885348565E+03 -0.44413804519E+03  0.49002347182E+03  0.12509000000E+03 0.  0.
<mgrwt>
<rscale>  2 0.63676828E+03</rscale>
<asrwt>0</asrwt>
<pdfrwt beam="1">  1       21 0.11547076E-01 0.63676828E+03</pdfrwt>
<pdfrwt beam="2">  1       21 0.18985105E+00 0.63676828E+03</pdfrwt>
<totfact> 0.81027251E+03</totfact>
</mgrwt>
</event>
<event>
 7    0  0.4831799E-002  0.4563536E+03  0.7546771E-02  0.1025844E+00
         21   -1    0    0  502  501  0.00000000000E+00  0.00000000000E+00  0.10376386004E+04  0.10376386004E+04  0.00000000000E+00 0. -1.
         21   -1    0    0  501  502 -0.00000000000E+00 -0.00000000000E+00 -0.50176092037E+02  0.50176092037E+02  0.00000000000E+00 0. -1.
      99926    2    1    2    0    0  0.00000000000E+00 -0.71054273576E-14  0.98746250840E+03  0.10878146925E+04  0.45635359061E+03 0.  0.
      99925    2    3    3    0    0  0.84730349506E+02 -0.52589659154E+02  0.75416061874E+03  0.80493276623E+03  0.26308480555E+03 0.  0.
         25    1    4    4    0    0  0.47528641042E+02 -0.67058537420E+02  0.38109636339E+03  0.40943591128E+03  0.12509000000E+03 0.  0.
         25    1    4    4    0    0  0.37201708464E+02  0.14468878266E+02  0.37306425535E+03  0.39549685495E+03  0.12509000000E+03 0.  0.
         25    1    3    3    0    0 -0.84730349506E+02  0.52589659154E+02  0.23330188966E+03  0.28288192625E+03  0.12509000000E+03 0.  0.
<mgrwt>
<rscale>  2 0.45635359E+03</rscale>
<asrwt>0</asrwt>
<pdfrwt beam="1">  1       21 0.15259390E+00 0.45635359E+03</pdfrwt>
<pdfrwt beam="2">  1       21 0.73788377E-02 0.45635359E+03</pdfrwt>
<totfact> 0.35542808E+04</totfact>
</mgrwt>
</event>
<event>
 7    0  0.4831799E-002  0.4580238E+03  0.7546771E-02  0.1025356E+00
         21   -1    0    0  502  501  0.00000000000E+00  0.00000000000E+00  0.40016259795E+02  0.40016259795E+02  0.00000000000E+00 0.  1.
         21   -1    0    0  501  502 -0.00000000000E+00 -0.00000000000E+00 -0.13106283149E+04  0.13106283149E+04  0.00000000000E+00 0.  1.
      99926    2    1    2    0    0 -0.71054273576E-14  0.35527136788E-14 -0.12706120551E+04  0.13506445747E+04  0.45802376857E+03 0.  0.
      99925    2    3    3    0    0 -0.48973803605E+02  0.25317045254E+02 -0.49616678962E+03  0.56422715147E+03  0.26292852472E+03 0.  0.
         25    1    4    4    0    0 -0.19605091661E+02 -0.57901919140E+01 -0.31831313759E+03  0.34262026736E+03  0.12509000000E+03 0.  0.
         25    1    4    4    0    0 -0.29368711943E+02  0.31107237168E+02 -0.17785365202E+03  0.22160688411E+03  0.12509000000E+03 0.  0.
         25    1    3    3    0    0  0.48973803605E+02 -0.25317045254E+02 -0.77444526552E+03  0.78641742326E+03  0.12509000000E+03 0.  0.
<mgrwt>
<rscale>  2 0.45802377E+03</rscale>
<asrwt>0</asrwt>
<pdfrwt beam="1">  1       21 0.58847430E-02 0.45802377E+03</pdfrwt>
<pdfrwt beam="2">  1       21 0.19273949E+00 0.45802377E+03</pdfrwt>
<totfact> 0.27036328E+04</totfact>
</mgrwt>
</event>
<event>
 7    0  0.4831799E-002  0.4401062E+03  0.7546771E-02  0.1030714E+00
         21   -1    0    0  502  501  0.00000000000E+00  0.00000000000E+00  0.56323887900E+02  0.56323887900E+02  0.00000000000E+00 0. -1.
         21   -1    0    0  501  502 -0.00000000000E+00 -0.00000000000E+00 -0.85973068713E+03  0.85973068713E+03  0.00000000000E+00 0. -1.
      99926    2    1    2    0    0  0.00000000000E+00  0.00000000000E+00 -0.80340679923E+03  0.91605457503E+03  0.44010623648E+03 0.  0.
      99925    2    3    3    0    0 -0.47800669285E+02 -0.77397678542E+02 -0.59153514375E+03  0.65373337665E+03  0.26301748386E+03 0.  0.
         25    1    3    3    0    0  0.47800669285E+02  0.77397678542E+02 -0.21187165548E+03  0.26232119838E+03  0.12509000000E+03 0.  0.
         25    1    4    4    0    0 -0.54228983569E+02 -0.14674752606E+02 -0.26365714490E+03  0.29718467185E+03  0.12509000000E+03 0.  0.
         25    1    4    4    0    0  0.64283142839E+01 -0.62722925936E+02 -0.32787799885E+03  0.35654870480E+03  0.12509000000E+03 0.  0.
<mgrwt>
<rscale>  2 0.44010624E+03</rscale>
<asrwt>0</asrwt>
<pdfrwt beam="1">  1       21 0.82829244E-02 0.44010624E+03</pdfrwt>
<pdfrwt beam="2">  1       21 0.12643099E+00 0.44010624E+03</pdfrwt>
<totfact> 0.47887421E+04</totfact>
</mgrwt>
</event>
<event>
 7    0  0.4831799E-002  0.4502865E+03  0.7546771E-02  0.1027637E+00
         21   -1    0    0  502  501  0.00000000000E+00  0.00000000000E+00  0.18788699123E+03  0.18788699123E+03  0.00000000000E+00 0. -1.
         21   -1    0    0  501  502 -0.00000000000E+00 -0.00000000000E+00 -0.26978711525E+03  0.26978711525E+03  0.00000000000E+00 0. -1.
      99926    2    1    2    0    0  0.00000000000E+00  0.00000000000E+00 -0.81900124022E+02  0.45767410648E+03  0.45028652814E+03 0.  0.
      99925    2    3    3    0    0 -0.71799492734E+02  0.74291451298E+02 -0.85878457203E+02  0.29538509844E+03  0.26306436490E+03 0.  0.
         25    1    4    4    0    0 -0.19080787960E+02  0.86187030523E+01 -0.66917486231E+02  0.14340089461E+03  0.12509000000E+03 0.  0.
         25    1    4    4    0    0 -0.52718704773E+02  0.65672748246E+02 -0.18960970973E+02  0.15198420383E+03  0.12509000000E+03 0.  0.
         25    1    3    3    0    0  0.71799492734E+02 -0.74291451298E+02  0.39783331816E+01  0.16228900803E+03  0.12509000000E+03 0.  0.
<mgrwt>
<rscale>  2 0.45028653E+03</rscale>
<asrwt>0</asrwt>
<pdfrwt beam="1">  1       21 0.27630440E-01 0.45028653E+03</pdfrwt>
<pdfrwt beam="2">  1       21 0.39674575E-01 0.45028653E+03</pdfrwt>
<totfact> 0.70979924E+04</totfact>
</mgrwt>
</event>
<event>
 7    0  0.4831799E-002  0.4531013E+03  0.7546771E-02  0.1026801E+00
         21   -1    0    0  502  501  0.00000000000E+00  0.00000000000E+00  0.22161644621E+03  0.22161644621E+03  0.00000000000E+00 0. -1.
         21   -1    0    0  501  502 -0.00000000000E+00 -0.00000000000E+00 -0.23159472552E+03  0.23159472552E+03  0.00000000000E+00 0. -1.
      99926    2    1    2    0    0 -0.13322676296E-14  0.00000000000E+00 -0.99782793163E+01  0.45321117173E+03  0.45310131331E+03 0.  0.
      99925    2    3    3    0    0  0.30990883437E+01  0.72262013367E+02  0.78429582224E+02  0.28381559621E+03  0.26299941133E+03 0.  0.
         25    1    3    3    0    0 -0.30990883437E+01 -0.72262013367E+02 -0.88407861540E+02  0.16939557552E+03  0.12509000000E+03 0.  0.
         25    1    4    4    0    0  0.28153719754E+02  0.63365701229E+02  0.24869585944E+02  0.14516834515E+03  0.12509000000E+03 0.  0.
         25    1    4    4    0    0 -0.25054631410E+02  0.88963121383E+01  0.53559996280E+02  0.13864725106E+03  0.12509000000E+03 0.  0.
<mgrwt>
<rscale>  2 0.45310131E+03</rscale>
<asrwt>0</asrwt>
<pdfrwt beam="1">  1       21 0.32590654E-01 0.45310131E+03</pdfrwt>
<pdfrwt beam="2">  1       21 0.34058048E-01 0.45310131E+03</pdfrwt>
<totfact> 0.69727408E+04</totfact>
</mgrwt>
</event>
<event>
 7    0  0.4831799E-002  0.4598494E+03  0.7546771E-02  0.1024825E+00
         21   -1    0    0  502  501  0.00000000000E+00  0.00000000000E+00  0.22013672520E+04  0.22013672520E+04  0.00000000000E+00 0.  1.
         21   -1    0    0  501  502 -0.00000000000E+00 -0.00000000000E+00 -0.24014789405E+02  0.24014789405E+02  0.00000000000E+00 0.  1.
      99926    2    1    2    0    0  0.00000000000E+00  0.00000000000E+00  0.21773524626E+04  0.22253820414E+04  0.45984941431E+03 0.  0.
      99925    2    3    3    0    0  0.36640130002E+02 -0.10312543794E+03  0.11540443863E+04  0.11886640074E+04  0.26291885000E+03 0.  0.
         25    1    4    4    0    0  0.14849407890E+02 -0.33192230581E+02  0.39575572534E+03  0.41664413032E+03  0.12509000000E+03 0.  0.
         25    1    4    4    0    0  0.21790722111E+02 -0.69933207356E+02  0.75828866099E+03  0.77201987704E+03  0.12509000000E+03 0.  0.
         25    1    3    3    0    0 -0.36640130002E+02  0.10312543794E+03  0.10233080763E+04  0.10367180341E+04  0.12509000000E+03 0.  0.
<mgrwt>
<rscale>  2 0.45984941E+03</rscale>
<asrwt>0</asrwt>
<pdfrwt beam="1">  1       21 0.32373034E+00 0.45984941E+03</pdfrwt>
<pdfrwt beam="2">  1       21 0.35315882E-02 0.45984941E+03</pdfrwt>
<totfact> 0.99853545E+03</totfact>
</mgrwt>
</event>
<event>
 7    0  0.4831799E-002  0.4604459E+03  0.7546771E-02  0.1024652E+00
         21   -1    0    0  502  501  0.00000000000E+00  0.00000000000E+00  0.93740485211E+03  0.93740485211E+03  0.00000000000E+00 0.  1.
         21   -1    0    0  501  502 -0.00000000000E+00 -0.00000000000E+00 -0.56541847009E+02  0.56541847009E+02  0.00000000000E+00 0.  1.
      99926    2    1    2    0    0  0.00000000000E+00  0.00000000000E+00  0.88086300511E+03  0.99394669912E+03  0.46044587840E+03 0.  0.
      99925    2    3    3    0    0 -0.89229379709E+02  0.79052649018E+02  0.55016446435E+03  0.62082441826E+03  0.26178391271E+03 0.  0.
         25    1    3    3    0    0  0.89229379709E+02 -0.79052649018E+02  0.33069854076E+03  0.37312228087E+03  0.12509000000E+03 0.  0.
         25    1    4    4    0    0 -0.47096544598E+02  0.55378449720E+02  0.36131628749E+03  0.38920666093E+03  0.12509000000E+03 0.  0.
         25    1    4    4    0    0 -0.42132835111E+02  0.23674199298E+02  0.18884817686E+03  0.23161775733E+03  0.12509000000E+03 0.  0.
<mgrwt>
<rscale>  2 0.46044588E+03</rscale>
<asrwt>0</asrwt>
<pdfrwt beam="1">  1       21 0.13785365E+00 0.46044588E+03</pdfrwt>
<pdfrwt beam="2">  1       21 0.83149781E-02 0.46044588E+03</pdfrwt>
<totfact> 0.37770712E+04</totfact>
</mgrwt>
</event>
<event>
 7    0  0.4831799E-002  0.4671088E+03  0.7546771E-02  0.1022739E+00
         21   -1    0    0  502  501  0.00000000000E+00  0.00000000000E+00  0.28828779752E+03  0.28828779752E+03  0.00000000000E+00 0.  1.
         21   -1    0    0  501  502 -0.00000000000E+00 -0.00000000000E+00 -0.18921254363E+03  0.18921254363E+03  0.00000000000E+00 0.  1.
      99926    2    1    2    0    0 -0.71054273576E-14  0.00000000000E+00  0.99075253886E+02  0.47750034115E+03  0.46710884156E+03 0.  0.
      99925    2    3    3    0    0  0.33761911905E+02 -0.11026527337E+03  0.13261951047E+02  0.28694922398E+03  0.26242271356E+03 0.  0.
         25    1    4    4    0    0 -0.16851698945E+02 -0.45231197072E+02  0.26130033440E+02  0.13660207793E+03  0.12509000000E+03 0.  0.
         25    1    4    4    0    0  0.50613610850E+02 -0.65034076303E+02 -0.12868082392E+02  0.15034714606E+03  0.12509000000E+03 0.  0.
         25    1    3    3    0    0 -0.33761911905E+02  0.11026527337E+03  0.85813302838E+02  0.19055111716E+03  0.12509000000E+03 0.  0.
<mgrwt>
<rscale>  2 0.46710884E+03</rscale>
<asrwt>0</asrwt>
<pdfrwt beam="1">  1       21 0.42395264E-01 0.46710884E+03</pdfrwt>
<pdfrwt beam="2">  1       21 0.27825374E-01 0.46710884E+03</pdfrwt>
<totfact> 0.60823609E+04</totfact>
</mgrwt>
</event>
<event>
 7    0  0.4831799E-002  0.4441356E+03  0.7546771E-02  0.1029485E+00
         21   -1    0    0  502  501  0.00000000000E+00  0.00000000000E+00  0.19818665341E+03  0.19818665341E+03  0.00000000000E+00 0.  1.
         21   -1    0    0  501  502 -0.00000000000E+00 -0.00000000000E+00 -0.24882662888E+03  0.24882662888E+03  0.00000000000E+00 0.  1.
      99926    2    1    2    0    0 -0.17763568394E-14  0.00000000000E+00 -0.50639975469E+02  0.44701328229E+03  0.44413564080E+03 0.  0.
      99925    2    3    3    0    0 -0.12626531772E+02  0.93833006304E+02 -0.71905427668E+02  0.28869780632E+03  0.26308168022E+03 0.  0.
         25    1    4    4    0    0 -0.23917034945E+02  0.76486075934E+02 -0.63706844698E+02  0.16164224242E+03  0.12509000000E+03 0.  0.
         25    1    4    4    0    0  0.11290503173E+02  0.17346930370E+02 -0.81985829707E+01  0.12705556390E+03  0.12509000000E+03 0.  0.
         25    1    3    3    0    0  0.12626531772E+02 -0.93833006304E+02  0.21265452200E+02  0.15831547598E+03  0.12509000000E+03 0.  0.
<mgrwt>
<rscale>  2 0.44413564E+03</rscale>
<asrwt>0</asrwt>
<pdfrwt beam="1">  1       21 0.29145096E-01 0.44413564E+03</pdfrwt>
<pdfrwt beam="2">  1       21 0.36592151E-01 0.44413564E+03</pdfrwt>
<totfact> 0.75467264E+04</totfact>
</mgrwt>
</event>
<event>
 7    0  0.4831799E-002  0.4542653E+03  0.7546771E-02  0.1026458E+00
         21   -1    0    0  502  501  0.00000000000E+00  0.00000000000E+00  0.13280900278E+03  0.13280900278E+03  0.00000000000E+00 0. -1.
         21   -1    0    0  501  502 -0.00000000000E+00 -0.00000000000E+00 -0.38844680771E+03  0.38844680771E+03  0.00000000000E+00 0. -1.
      99926    2    1    2    0    0 -0.71054273576E-14  0.00000000000E+00 -0.25563780493E+03  0.52125581050E+03  0.45426526685E+03 0.  0.
      99925    2    3    3    0    0 -0.47885820484E+02 -0.42795228776E+02 -0.26694707923E+03  0.38018883635E+03  0.26297970410E+03 0.  0.
         25    1    4    4    0    0 -0.45898774172E+02 -0.37369731151E+02 -0.18298878080E+03  0.22942448926E+03  0.12509000000E+03 0.  0.
         25    1    3    3    0    0  0.47885820484E+02  0.42795228776E+02  0.11309274298E+02  0.14106697415E+03  0.12509000000E+03 0.  0.
         25    1    4    4    0    0 -0.19870463118E+01 -0.54254976252E+01 -0.83958298431E+02  0.15076434709E+03  0.12509000000E+03 0.  0.
<mgrwt>
<rscale>  2 0.45426527E+03</rscale>
<asrwt>0</asrwt>
<pdfrwt beam="1">  1       21 0.19530736E-01 0.45426527E+03</pdfrwt>
<pdfrwt beam="2">  1       21 0.57124530E-01 0.45426527E+03</pdfrwt>
<totfact> 0.64175025E+04</totfact>
</mgrwt>
</event>
<event>
 7    0  0.4831799E-002  0.4615805E+03  0.7546771E-02  0.1024324E+00
         21   -1    0    0  502  501  0.00000000000E+00  0.00000000000E+00  0.10943661035E+03  0.10943661035E+03  0.00000000000E+00 0. -1.
         21   -1    0    0  501  502 -0.00000000000E+00 -0.00000000000E+00 -0.48671225819E+03  0.48671225819E+03  0.00000000000E+00 0. -1.
      99926    2    1    2    0    0 -0.71054273576E-14  0.00000000000E+00 -0.37727564785E+03  0.59614886854E+03  0.46158050111E+03 0.  0.
      99925    2    3    3    0    0 -0.50654769121E+02  0.31901579618E+02 -0.36918569273E+03  0.45723676723E+03  0.26302807678E+03 0.  0.
         25    1    4    4    0    0 -0.57471549679E+02  0.20722041336E+01 -0.15497654403E+03  0.20729811951E+03  0.12509000000E+03 0.  0.
         25    1    3    3    0    0  0.50654769121E+02 -0.31901579618E+02 -0.80899551190E+01  0.13891210131E+03  0.12509000000E+03 0.  0.
         25    1    4    4    0    0  0.68167805584E+01  0.29829375485E+02 -0.21420914869E+03  0.24993864772E+03  0.12509000000E+03 0.  0.
<mgrwt>
<rscale>  2 0.46158050E+03</rscale>
<asrwt>0</asrwt>
<pdfrwt beam="1">  1       21 0.16093619E-01 0.46158050E+03</pdfrwt>
<pdfrwt beam="2">  1       21 0.71575332E-01 0.46158050E+03</pdfrwt>
<totfact> 0.55949233E+04</totfact>
</mgrwt>
</event>
<event>
 7    0  0.4831799E-002  0.4446071E+03  0.7546771E-02  0.1029343E+00
         21   -1    0    0  502  501  0.00000000000E+00  0.00000000000E+00  0.12998368371E+03  0.12998368371E+03  0.00000000000E+00 0.  1.
         21   -1    0    0  501  502 -0.00000000000E+00 -0.00000000000E+00 -0.38019279967E+03  0.38019279967E+03  0.00000000000E+00 0.  1.
      99926    2    1    2    0    0  0.00000000000E+00  0.00000000000E+00 -0.25020911596E+03  0.51017648338E+03  0.44460706527E+03 0.  0.
      99925    2    3    3    0    0 -0.21587500773E+02  0.12206530663E+02 -0.44089133039E+02  0.26779666772E+03  0.26297563387E+03 0.  0.
         25    1    4    4    0    0 -0.18809772235E+02  0.20525645021E+01  0.17934596410E+02  0.12777784785E+03  0.12509000000E+03 0.  0.
         25    1    3    3    0    0  0.21587500773E+02 -0.12206530663E+02 -0.20611998292E+03  0.24237981566E+03  0.12509000000E+03 0.  0.
         25    1    4    4    0    0 -0.27777285380E+01  0.10153966160E+02 -0.62023729449E+02  0.14001881988E+03  0.12509000000E+03 0.  0.
<mgrwt>
<rscale>  2 0.44460707E+03</rscale>
<asrwt>0</asrwt>
<pdfrwt beam="1">  1       21 0.19115248E-01 0.44460707E+03</pdfrwt>
<pdfrwt beam="2">  1       21 0.55910705E-01 0.44460707E+03</pdfrwt>
<totfact> 0.70172133E+04</totfact>
</mgrwt>
</event>
<event>
 7    0  0.4831799E-002  0.4540657E+03  0.7546771E-02  0.1026516E+00
         21   -1    0    0  502  501  0.00000000000E+00  0.00000000000E+00  0.12405502004E+04  0.12405502004E+04  0.00000000000E+00 0.  1.
         21   -1    0    0  501  502 -0.00000000000E+00 -0.00000000000E+00 -0.41549242512E+02  0.41549242512E+02  0.00000000000E+00 0.  1.
      99926    2    1    2    0    0  0.00000000000E+00  0.00000000000E+00  0.11990009579E+04  0.12820994429E+04  0.45406572707E+03 0.  0.
      99925    2    3    3    0    0 -0.16557325657E+02  0.11074593560E+03  0.72507493342E+03  0.77931500396E+03  0.26279156957E+03 0.  0.
         25    1    4    4    0    0 -0.11168464800E+02  0.69199573492E+02  0.48039686408E+03  0.50134017463E+03  0.12509000000E+03 0.  0.
         25    1    4    4    0    0 -0.53888608571E+01  0.41546362107E+02  0.24467806934E+03  0.27797482933E+03  0.12509000000E+03 0.  0.
         25    1    3    3    0    0  0.16557325657E+02 -0.11074593560E+03  0.47392602444E+03  0.50278443893E+03  0.12509000000E+03 0.  0.
<mgrwt>
<rscale>  2 0.45406573E+03</rscale>
<asrwt>0</asrwt>
<pdfrwt beam="1">  1       21 0.18243383E+00 0.45406573E+03</pdfrwt>
<pdfrwt beam="2">  1       21 0.61101835E-02 0.45406573E+03</pdfrwt>
<totfact> 0.29855514E+04</totfact>
</mgrwt>
</event>
<event>
 7    0  0.4831799E-002  0.4650049E+03  0.7546771E-02  0.1023340E+00
         21   -1    0    0  502  501  0.00000000000E+00  0.00000000000E+00  0.55587668426E+02  0.55587668426E+02  0.00000000000E+00 0.  1.
         21   -1    0    0  501  502 -0.00000000000E+00 -0.00000000000E+00 -0.97247094993E+03  0.97247094993E+03  0.00000000000E+00 0.  1.
      99926    2    1    2    0    0  0.00000000000E+00  0.00000000000E+00 -0.91688328150E+03  0.10280586184E+04  0.46500491489E+03 0.  0.
      99925    2    3    3    0    0 -0.15691497523E+02  0.12077690053E+03 -0.59594801677E+03  0.66270914860E+03  0.26305150476E+03 0.  0.
         25    1    3    3    0    0  0.15691497523E+02 -0.12077690053E+03 -0.32093526474E+03  0.36534946975E+03  0.12509000000E+03 0.  0.
         25    1    4    4    0    0  0.14228417378E+02  0.75074866859E+02 -0.37940232803E+03  0.40673371892E+03  0.12509000000E+03 0.  0.
         25    1    4    4    0    0 -0.29919914901E+02  0.45702033673E+02 -0.21654568874E+03  0.25597542968E+03  0.12509000000E+03 0.  0.
<mgrwt>
<rscale>  2 0.46500491E+03</rscale>
<asrwt>0</asrwt>
<pdfrwt beam="1">  1       21 0.81746578E-02 0.46500491E+03</pdfrwt>
<pdfrwt beam="2">  1       21 0.14301042E+00 0.46500491E+03</pdfrwt>
<totfact> 0.35257392E+04</totfact>
</mgrwt>
</event>
<event>
 7    0  0.4831799E-002  0.4065802E+03  0.7546771E-02  0.1041525E+00
         21   -1    0    0  502  501  0.00000000000E+00  0.00000000000E+00  0.18574762952E+03  0.18574762952E+03  0.00000000000E+00 0.  1.
         21   -1    0    0  501  502 -0.00000000000E+00 -0.00000000000E+00 -0.22248932393E+03  0.22248932393E+03  0.00000000000E+00 0.  1.
      99926    2    1    2    0    0  0.00000000000E+00  0.00000000000E+00 -0.36741694412E+02  0.40823695345E+03  0.40658019879E+03 0.  0.
      99925    2    3    3    0    0  0.24755047995E+02 -0.46075920351E+02 -0.47997391441E+01  0.26894015002E+03  0.26376118737E+03 0.  0.
         25    1    4    4    0    0 -0.91871784231E+01 -0.44358035159E+02 -0.31212394149E+02  0.13665197100E+03  0.12509000000E+03 0.  0.
         25    1    4    4    0    0  0.33942226418E+02 -0.17178851915E+01  0.26412655005E+02  0.13228817902E+03  0.12509000000E+03 0.  0.
         25    1    3    3    0    0 -0.24755047995E+02  0.46075920351E+02 -0.31941955268E+02  0.13929680342E+03  0.12509000000E+03 0.  0.
<mgrwt>
<rscale>  2 0.40658020E+03</rscale>
<asrwt>0</asrwt>
<pdfrwt beam="1">  1       21 0.27315828E-01 0.40658020E+03</pdfrwt>
<pdfrwt beam="2">  1       21 0.32719018E-01 0.40658020E+03</pdfrwt>
<totfact> 0.10828310E+05</totfact>
</mgrwt>
</event>
<event>
 7    0  0.4831799E-002  0.4741277E+03  0.7546771E-02  0.1020762E+00
         21   -1    0    0  502  501  0.00000000000E+00  0.00000000000E+00  0.49989089107E+03  0.49989089107E+03  0.00000000000E+00 0.  1.
         21   -1    0    0  501  502 -0.00000000000E+00 -0.00000000000E+00 -0.11242306776E+03  0.11242306776E+03  0.00000000000E+00 0.  1.
      99926    2    1    2    0    0  0.00000000000E+00 -0.71054273576E-14  0.38746782331E+03  0.61231395883E+03  0.47412769385E+03 0.  0.
      99925    2    3    3    0    0  0.10656413405E+03  0.45483929439E+02  0.16270529700E+03  0.33019624610E+03  0.26292935318E+03 0.  0.
         25    1    3    3    0    0 -0.10656413405E+03 -0.45483929439E+02  0.22476252631E+03  0.28211771273E+03  0.12509000000E+03 0.  0.
         25    1    4    4    0    0  0.69367699653E+02 -0.22247318611E+01  0.50865329338E+02  0.15182758977E+03  0.12509000000E+03 0.  0.
         25    1    4    4    0    0  0.37196434392E+02  0.47708661301E+02  0.11183996767E+03  0.17836865633E+03  0.12509000000E+03 0.  0.
<mgrwt>
<rscale>  2 0.47412769E+03</rscale>
<asrwt>0</asrwt>
<pdfrwt beam="1">  1       21 0.73513365E-01 0.47412769E+03</pdfrwt>
<pdfrwt beam="2">  1       21 0.16532804E-01 0.47412769E+03</pdfrwt>
<totfact> 0.49941966E+04</totfact>
</mgrwt>
</event>
<event>
 7    0  0.4831799E-002  0.4622576E+03  0.7546771E-02  0.1024128E+00
         21   -1    0    0  502  501  0.00000000000E+00  0.00000000000E+00  0.23662784156E+03  0.23662784156E+03  0.00000000000E+00 0. -1.
         21   -1    0    0  501  502 -0.00000000000E+00 -0.00000000000E+00 -0.22575754098E+03  0.22575754098E+03  0.00000000000E+00 0. -1.
      99926    2    1    2    0    0  0.00000000000E+00  0.14210854715E-13  0.10870300573E+02  0.46238538254E+03  0.46225758896E+03 0.  0.
      99925    2    3    3    0    0 -0.82103682737E+02 -0.85332058547E+02 -0.98928581144E+01  0.28888843215E+03  0.26331745604E+03 0.  0.
         25    1    3    3    0    0  0.82103682737E+02  0.85332058547E+02  0.20763158687E+02  0.17349695039E+03  0.12509000000E+03 0.  0.
         25    1    4    4    0    0 -0.75563498355E+02 -0.71503892142E+02 -0.58791108702E+01  0.16280270550E+03  0.12509000000E+03 0.  0.
         25    1    4    4    0    0 -0.65401843820E+01 -0.13828166406E+02 -0.40137472442E+01  0.12608572665E+03  0.12509000000E+03 0.  0.
<mgrwt>
<rscale>  2 0.46225759E+03</rscale>
<asrwt>0</asrwt>
<pdfrwt beam="1">  1       21 0.34798212E-01 0.46225759E+03</pdfrwt>
<pdfrwt beam="2">  1       21 0.33199638E-01 0.46225759E+03</pdfrwt>
<totfact> 0.64208586E+04</totfact>
</mgrwt>
</event>
<event>
 7    0  0.4831799E-002  0.4579137E+03  0.7546771E-02  0.1025388E+00
         21   -1    0    0  502  501  0.00000000000E+00  0.00000000000E+00  0.50247209603E+03  0.50247209603E+03  0.00000000000E+00 0.  1.
         21   -1    0    0  501  502 -0.00000000000E+00 -0.00000000000E+00 -0.10432666970E+03  0.10432666970E+03  0.00000000000E+00 0.  1.
      99926    2    1    2    0    0 -0.14210854715E-13  0.00000000000E+00  0.39814542633E+03  0.60679876574E+03  0.45791370540E+03 0.  0.
      99925    2    3    3    0    0  0.64840271235E+02 -0.88360024957E+02  0.29930112695E+03  0.41333182178E+03  0.26315447083E+03 0.  0.
         25    1    4    4    0    0  0.27619385204E+02 -0.85632612919E+02  0.17340411761E+03  0.23197472047E+03  0.12509000000E+03 0.  0.
         25    1    3    3    0    0 -0.64840271235E+02  0.88360024957E+02  0.98844299372E+02  0.19346694395E+03  0.12509000000E+03 0.  0.
         25    1    4    4    0    0  0.37220886031E+02 -0.27274120376E+01  0.12589700935E+03  0.18135710131E+03  0.12509000000E+03 0.  0.
<mgrwt>
<rscale>  2 0.45791371E+03</rscale>
<asrwt>0</asrwt>
<pdfrwt beam="1">  1       21 0.73892954E-01 0.45791371E+03</pdfrwt>
<pdfrwt beam="2">  1       21 0.15342158E-01 0.45791371E+03</pdfrwt>
<totfact> 0.56939743E+04</totfact>
</mgrwt>
</event>
<event>
 7    0  0.4831799E-002  0.4523173E+03  0.7546771E-02  0.1027033E+00
         21   -1    0    0  502  501  0.00000000000E+00  0.00000000000E+00  0.54955225093E+02  0.54955225093E+02  0.00000000000E+00 0. -1.
         21   -1    0    0  501  502 -0.00000000000E+00 -0.00000000000E+00 -0.93071661613E+03  0.93071661613E+03  0.00000000000E+00 0. -1.
      99926    2    1    2    0    0  0.00000000000E+00  0.00000000000E+00 -0.87576139104E+03  0.98567184122E+03  0.45231732727E+03 0.  0.
      99925    2    3    3    0    0 -0.71662956898E+01  0.10724719465E+03 -0.61000191791E+03  0.67289568770E+03  0.26293145517E+03 0.  0.
         25    1    4    4    0    0  0.33239657671E+02  0.35918970465E+02 -0.30033393006E+03  0.32900307738E+03  0.12509000000E+03 0.  0.
         25    1    3    3    0    0  0.71662956898E+01 -0.10724719465E+03 -0.26575947313E+03  0.31277615352E+03  0.12509000000E+03 0.  0.
         25    1    4    4    0    0 -0.40405953360E+02  0.71328224189E+02 -0.30966798785E+03  0.34389261032E+03  0.12509000000E+03 0.  0.
<mgrwt>
<rscale>  2 0.45231733E+03</rscale>
<asrwt>0</asrwt>
<pdfrwt beam="1">  1       21 0.80816510E-02 0.45231733E+03</pdfrwt>
<pdfrwt beam="2">  1       21 0.13687009E+00 0.45231733E+03</pdfrwt>
<totfact> 0.40572179E+04</totfact>
</mgrwt>
</event>
<event>
 7    0  0.4831799E-002  0.4405932E+03  0.7546771E-02  0.1030565E+00
         21   -1    0    0  502  501  0.00000000000E+00  0.00000000000E+00  0.75735443711E+02  0.75735443711E+02  0.00000000000E+00 0. -1.
         21   -1    0    0  501  502 -0.00000000000E+00 -0.00000000000E+00 -0.64079116098E+03  0.64079116098E+03  0.00000000000E+00 0. -1.
      99926    2    1    2    0    0  0.00000000000E+00  0.00000000000E+00 -0.56505571727E+03  0.71652660469E+03  0.44059324962E+03 0.  0.
      99925    2    3    3    0    0  0.87788234114E+02  0.39192288055E+02 -0.39798722627E+03  0.48673931549E+03  0.26320812959E+03 0.  0.
         25    1    3    3    0    0 -0.87788234114E+02 -0.39192288055E+02 -0.16706849100E+03  0.22978728920E+03  0.12509000000E+03 0.  0.
         25    1    4    4    0    0  0.43831822609E+02  0.83304605716E+00 -0.25851580369E+03  0.29051652534E+03  0.12509000000E+03 0.  0.
         25    1    4    4    0    0  0.43956411506E+02  0.38359241998E+02 -0.13947142258E+03  0.19622279015E+03  0.12509000000E+03 0.  0.
<mgrwt>
<rscale>  2 0.44059325E+03</rscale>
<asrwt>0</asrwt>
<pdfrwt beam="1">  1       21 0.11137566E-01 0.44059325E+03</pdfrwt>
<pdfrwt beam="2">  1       21 0.94233987E-01 0.44059325E+03</pdfrwt>
<totfact> 0.58351785E+04</totfact>
</mgrwt>
</event>
<event>
 6    0  0.4831799E-002  0.4531525E+03  0.7546771E-02  0.1026786E+00
         21   -1    0    0  502  501  0.00000000000E+00  0.00000000000E+00  0.22491890914E+03  0.22491890914E+03  0.00000000000E+00 0. -1.
         21   -1    0    0  501  502 -0.00000000000E+00 -0.00000000000E+00 -0.22824578718E+03  0.22824578718E+03  0.00000000000E+00 0. -1.
      99926    2    1    2    0    0  0.00000000000E+00  0.00000000000E+00 -0.33268780330E+01  0.45316469632E+03  0.45315248413E+03 0.  0.
         25    1    3    3    0    0  0.38788651937E+02 -0.17014161733E+02 -0.62504799189E+02  0.14611091417E+03  0.12509000000E+03 0.  0.
         25    1    3    3    0    0 -0.26940233775E+02 -0.66087503972E+02 -0.30837081621E+01  0.14404982379E+03  0.12509000000E+03 0.  0.
         25    1    3    3    0    0 -0.11848418162E+02  0.83101665705E+02  0.62261629318E+02  0.16300395836E+03  0.12509000000E+03 0.  0.
<mgrwt>
<rscale>  2 0.45315248E+03</rscale>
<asrwt>0</asrwt>
<pdfrwt beam="1">  1       21 0.33076310E-01 0.45315248E+03</pdfrwt>
<pdfrwt beam="2">  1       21 0.33565557E-01 0.45315248E+03</pdfrwt>
<totfact> 0.69702299E+04</totfact>
</mgrwt>
</event>
<event>
 7    0  0.4831799E-002  0.4520812E+03  0.7546771E-02  0.1027103E+00
         21   -1    0    0  502  501  0.00000000000E+00  0.00000000000E+00  0.24088019834E+03  0.24088019834E+03  0.00000000000E+00 0.  1.
         21   -1    0    0  501  502 -0.00000000000E+00 -0.00000000000E+00 -0.21211519822E+03  0.21211519822E+03  0.00000000000E+00 0.  1.
      99926    2    1    2    0    0  0.00000000000E+00  0.00000000000E+00  0.28765000122E+02  0.45299539657E+03  0.45208119191E+03 0.  0.
      99925    2    3    3    0    0  0.21435015445E+02 -0.84943274248E+02  0.85513803695E+02  0.29007592402E+03  0.26297644638E+03 0.  0.
         25    1    3    3    0    0 -0.21435015445E+02  0.84943274248E+02 -0.56748803573E+02  0.16291947254E+03  0.12509000000E+03 0.  0.
         25    1    4    4    0    0 -0.29264851250E+02 -0.39088008615E+02  0.34183516345E+02  0.13856523672E+03  0.12509000000E+03 0.  0.
         25    1    4    4    0    0  0.50699866695E+02 -0.45855265633E+02  0.51330287350E+02  0.15151068731E+03  0.12509000000E+03 0.  0.
<mgrwt>
<rscale>  2 0.45208119E+03</rscale>
<asrwt>0</asrwt>
<pdfrwt beam="1">  1       21 0.35423558E-01 0.45208119E+03</pdfrwt>
<pdfrwt beam="2">  1       21 0.31193412E-01 0.45208119E+03</pdfrwt>
<totfact> 0.70316287E+04</totfact>
</mgrwt>
</event>
<event>
 7    0  0.4831799E-002  0.4446131E+03  0.7546771E-02  0.1029341E+00
         21   -1    0    0  502  501  0.00000000000E+00  0.00000000000E+00  0.53137596905E+03  0.53137596905E+03  0.00000000000E+00 0. -1.
         21   -1    0    0  501  502 -0.00000000000E+00 -0.00000000000E+00 -0.93004189587E+02  0.93004189587E+02  0.00000000000E+00 0. -1.
      99926    2    1    2    0    0  0.71054273576E-14  0.71054273576E-14  0.43837177946E+03  0.62438015864E+03  0.44461305139E+03 0.  0.
      99925    2    3    3    0    0  0.58961473742E+02  0.49699089270E+02  0.18237864300E+03  0.32920826147E+03  0.26300124551E+03 0.  0.
         25    1    4    4    0    0  0.60504786457E+02  0.28655663643E+02  0.63810767835E+02  0.15556766513E+03  0.12509000000E+03 0.  0.
         25    1    3    3    0    0 -0.58961473742E+02 -0.49699089270E+02  0.25599313646E+03  0.29517189716E+03  0.12509000000E+03 0.  0.
         25    1    4    4    0    0 -0.15433127155E+01  0.21043425627E+02  0.11856787517E+03  0.17364059634E+03  0.12509000000E+03 0.  0.
<mgrwt>
<rscale>  2 0.44461305E+03</rscale>
<asrwt>0</asrwt>
<pdfrwt beam="1">  1       21 0.78143523E-01 0.44461305E+03</pdfrwt>
<pdfrwt beam="2">  1       21 0.13677087E-01 0.44461305E+03</pdfrwt>
<totfact> 0.62143516E+04</totfact>
</mgrwt>
</event>
<event>
 7    0  0.4831799E-002  0.4524442E+03  0.7546771E-02  0.1026996E+00
         21   -1    0    0  502  501  0.00000000000E+00  0.00000000000E+00  0.21547788926E+03  0.21547788926E+03  0.00000000000E+00 0. -1.
         21   -1    0    0  501  502 -0.00000000000E+00 -0.00000000000E+00 -0.23750202329E+03  0.23750202329E+03  0.00000000000E+00 0. -1.
      99926    2    1    2    0    0 -0.66613381478E-15  0.00000000000E+00 -0.22024134033E+02  0.45297991255E+03  0.45244418296E+03 0.  0.
      99925    2    3    3    0    0 -0.13091303698E+01  0.16470826987E+02  0.95783002335E+02  0.28035595290E+03  0.26296782090E+03 0.  0.
         25    1    4    4    0    0 -0.36194312396E+02 -0.94418892795E+01  0.38922137507E+02  0.13624103057E+03  0.12509000000E+03 0.  0.
         25    1    3    3    0    0  0.13091303698E+01 -0.16470826987E+02 -0.11780713637E+03  0.17262395964E+03  0.12509000000E+03 0.  0.
         25    1    4    4    0    0  0.34885182026E+02  0.25912716266E+02  0.56860864828E+02  0.14411492233E+03  0.12509000000E+03 0.  0.
<mgrwt>
<rscale>  2 0.45244418E+03</rscale>
<asrwt>0</asrwt>
<pdfrwt beam="1">  1       21 0.31687925E-01 0.45244418E+03</pdfrwt>
<pdfrwt beam="2">  1       21 0.34926768E-01 0.45244418E+03</pdfrwt>
<totfact> 0.70112971E+04</totfact>
</mgrwt>
</event>
<event>
 7    0  0.4831799E-002  0.4539666E+03  0.7546771E-02  0.1026546E+00
         21   -1    0    0  502  501  0.00000000000E+00  0.00000000000E+00  0.14679997910E+03  0.14679997910E+03  0.00000000000E+00 0. -1.
         21   -1    0    0  501  502 -0.00000000000E+00 -0.00000000000E+00 -0.35096343874E+03  0.35096343874E+03  0.00000000000E+00 0. -1.
      99926    2    1    2    0    0 -0.35527136788E-14  0.00000000000E+00 -0.20416345963E+03  0.49776341784E+03  0.45396663081E+03 0.  0.
      99925    2    3    3    0    0 -0.28447541079E+02  0.96252372270E+02 -0.18335627778E+03  0.33604072717E+03  0.26311606555E+03 0.  0.
         25    1    4    4    0    0 -0.41258044270E+02  0.31048532751E+02 -0.59299387737E+02  0.14775034040E+03  0.12509000000E+03 0.  0.
         25    1    4    4    0    0  0.12810503191E+02  0.65203839519E+02 -0.12405689005E+03  0.18829038677E+03  0.12509000000E+03 0.  0.
         25    1    3    3    0    0  0.28447541079E+02 -0.96252372270E+02 -0.20807181849E+02  0.16172269067E+03  0.12509000000E+03 0.  0.
<mgrwt>
<rscale>  2 0.45396663E+03</rscale>
<asrwt>0</asrwt>
<pdfrwt beam="1">  1       21 0.21588232E-01 0.45396663E+03</pdfrwt>
<pdfrwt beam="2">  1       21 0.51612270E-01 0.45396663E+03</pdfrwt>
<totfact> 0.65967555E+04</totfact>
</mgrwt>
</event>
<event>
 7    0  0.4831799E-002  0.4586539E+03  0.7546771E-02  0.1025172E+00
         21   -1    0    0  502  501  0.00000000000E+00  0.00000000000E+00  0.11087766333E+03  0.11087766333E+03  0.00000000000E+00 0.  1.
         21   -1    0    0  501  502 -0.00000000000E+00 -0.00000000000E+00 -0.47431415940E+03  0.47431415940E+03  0.00000000000E+00 0.  1.
      99926    2    1    2    0    0  0.00000000000E+00  0.00000000000E+00 -0.36343649607E+03  0.58519182274E+03  0.45865388118E+03 0.  0.
      99925    2    3    3    0    0 -0.55731716686E+02 -0.77479779395E+02 -0.14253489568E+03  0.31398311046E+03  0.26298299699E+03 0.  0.
         25    1    3    3    0    0  0.55731716686E+02  0.77479779395E+02 -0.22090160039E+03  0.27120871228E+03  0.12509000000E+03 0.  0.
         25    1    4    4    0    0 -0.42013105682E+02 -0.52184616571E+02 -0.11513391214E+03  0.18273385313E+03  0.12509000000E+03 0.  0.
         25    1    4    4    0    0 -0.13718611005E+02 -0.25295162824E+02 -0.27400983535E+02  0.13124925733E+03  0.12509000000E+03 0.  0.
<mgrwt>
<rscale>  2 0.45865388E+03</rscale>
<asrwt>0</asrwt>
<pdfrwt beam="1">  1       21 0.16305539E-01 0.45865388E+03</pdfrwt>
<pdfrwt beam="2">  1       21 0.69752081E-01 0.45865388E+03</pdfrwt>
<totfact> 0.57908366E+04</totfact>
</mgrwt>
</event>
<event>
 7    0  0.4831799E-002  0.4504042E+03  0.7546771E-02  0.1027602E+00
         21   -1    0    0  502  501  0.00000000000E+00  0.00000000000E+00  0.22285376216E+03  0.22285376216E+03  0.00000000000E+00 0. -1.
         21   -1    0    0  501  502 -0.00000000000E+00 -0.00000000000E+00 -0.22757514139E+03  0.22757514139E+03  0.00000000000E+00 0. -1.
      99926    2    1    2    0    0  0.00000000000E+00 -0.71054273576E-14 -0.47213792263E+01  0.45042890355E+03  0.45040415821E+03 0.  0.
      99925    2    3    3    0    0  0.86273591875E+02  0.63898307306E+02  0.14606083244E+02  0.28445545617E+03  0.26301224790E+03 0.  0.
         25    1    4    4    0    0  0.31771451849E+02  0.62000132943E+02  0.32507368947E+02  0.14682533424E+03  0.12509000000E+03 0.  0.
         25    1    4    4    0    0  0.54502140026E+02  0.18981743635E+01 -0.17901285702E+02  0.13763012193E+03  0.12509000000E+03 0.  0.
         25    1    3    3    0    0 -0.86273591875E+02 -0.63898307306E+02 -0.19327462471E+02  0.16597344739E+03  0.12509000000E+03 0.  0.
<mgrwt>
<rscale>  2 0.45040416E+03</rscale>
<asrwt>0</asrwt>
<pdfrwt beam="1">  1       21 0.32772612E-01 0.45040416E+03</pdfrwt>
<pdfrwt beam="2">  1       21 0.33466932E-01 0.45040416E+03</pdfrwt>
<totfact> 0.71466930E+04</totfact>
</mgrwt>
</event>
<event>
 7    0  0.4831799E-002  0.4562773E+03  0.7546771E-02  0.1025866E+00
         21   -1    0    0  502  501  0.00000000000E+00  0.00000000000E+00  0.10303112619E+03  0.10303112619E+03  0.00000000000E+00 0.  1.
         21   -1    0    0  501  502 -0.00000000000E+00 -0.00000000000E+00 -0.50516044331E+03  0.50516044331E+03  0.00000000000E+00 0.  1.
      99926    2    1    2    0    0 -0.35527136788E-14  0.00000000000E+00 -0.40212931712E+03  0.60819156950E+03  0.45627732523E+03 0.  0.
      99925    2    3    3    0    0  0.31220871507E+02  0.58211056655E+02 -0.12729485984E+03  0.29908842013E+03  0.26246262931E+03 0.  0.
         25    1    4    4    0    0  0.48263693206E+02  0.46399040906E+02 -0.85154355079E+02  0.16547213472E+03  0.12509000000E+03 0.  0.
         25    1    4    4    0    0 -0.17042821699E+02  0.11812015749E+02 -0.42140504760E+02  0.13361628542E+03  0.12509000000E+03 0.  0.
         25    1    3    3    0    0 -0.31220871507E+02 -0.58211056655E+02 -0.27483445729E+03  0.30910314936E+03  0.12509000000E+03 0.  0.
<mgrwt>
<rscale>  2 0.45627733E+03</rscale>
<asrwt>0</asrwt>
<pdfrwt beam="1">  1       21 0.15151636E-01 0.45627733E+03</pdfrwt>
<pdfrwt beam="2">  1       21 0.74288300E-01 0.45627733E+03</pdfrwt>
<totfact> 0.57593540E+04</totfact>
</mgrwt>
</event>
<event>
 7    0  0.4831799E-002  0.4495790E+03  0.7546771E-02  0.1027848E+00
         21   -1    0    0  502  501  0.00000000000E+00  0.00000000000E+00  0.22759925927E+03  0.22759925927E+03  0.00000000000E+00 0. -1.
         21   -1    0    0  501  502 -0.00000000000E+00 -0.00000000000E+00 -0.22201447123E+03  0.22201447123E+03  0.00000000000E+00 0. -1.
      99926    2    1    2    0    0  0.00000000000E+00  0.00000000000E+00  0.55847880388E+01  0.44961373051E+03  0.44957904400E+03 0.  0.
      99925    2    3    3    0    0 -0.95404766486E+02  0.46922973979E+02 -0.15725986052E+02  0.28406768813E+03  0.26295115486E+03 0.  0.
         25    1    3    3    0    0  0.95404766486E+02 -0.46922973979E+02  0.21310774091E+02  0.16554604238E+03  0.12509000000E+03 0.  0.
         25    1    4    4    0    0 -0.26030325919E+02  0.46190380731E+00  0.20412573764E+02  0.12939077436E+03  0.12509000000E+03 0.  0.
         25    1    4    4    0    0 -0.69374440567E+02  0.46461070172E+02 -0.36138559817E+02  0.15467691376E+03  0.12509000000E+03 0.  0.
<mgrwt>
<rscale>  2 0.44957904E+03</rscale>
<asrwt>0</asrwt>
<pdfrwt beam="1">  1       21 0.33470479E-01 0.44957904E+03</pdfrwt>
<pdfrwt beam="2">  1       21 0.32649187E-01 0.44957904E+03</pdfrwt>
<totfact> 0.72006709E+04</totfact>
</mgrwt>
</event>
<event>
 7    0  0.4831799E-002  0.4550462E+03  0.7546771E-02  0.1026228E+00
         21   -1    0    0  502  501  0.00000000000E+00  0.00000000000E+00  0.29212270741E+03  0.29212270741E+03  0.00000000000E+00 0.  1.
         21   -1    0    0  501  502 -0.00000000000E+00 -0.00000000000E+00 -0.17720895289E+03  0.17720895289E+03  0.00000000000E+00 0.  1.
      99926    2    1    2    0    0  0.14210854715E-13  0.00000000000E+00  0.11491375452E+03  0.46933166030E+03  0.45504619149E+03 0.  0.
      99925    2    3    3    0    0 -0.10283951034E+03 -0.28863210035E+02  0.34039739497E+02  0.28603636798E+03  0.26315214262E+03 0.  0.
         25    1    4    4    0    0 -0.86548587506E+02 -0.27295547855E+02  0.40349577993E+02  0.15972257660E+03  0.12509000000E+03 0.  0.
         25    1    3    3    0    0  0.10283951034E+03  0.28863210035E+02  0.80874015020E+02  0.18329529232E+03  0.12509000000E+03 0.  0.
         25    1    4    4    0    0 -0.16290922838E+02 -0.15676621805E+01 -0.63098384956E+01  0.12631379138E+03  0.12509000000E+03 0.  0.
<mgrwt>
<rscale>  2 0.45504619E+03</rscale>
<asrwt>0</asrwt>
<pdfrwt beam="1">  1       21 0.42959222E-01 0.45504619E+03</pdfrwt>
<pdfrwt beam="2">  1       21 0.26060140E-01 0.45504619E+03</pdfrwt>
<totfact> 0.67460755E+04</totfact>
</mgrwt>
</event>
<event>
 7    0  0.4831799E-002  0.4597584E+03  0.7546771E-02  0.1024851E+00
         21   -1    0    0  502  501  0.00000000000E+00  0.00000000000E+00  0.15214458788E+03  0.15214458788E+03  0.00000000000E+00 0. -1.
         21   -1    0    0  501  502 -0.00000000000E+00 -0.00000000000E+00 -0.34733047001E+03  0.34733047001E+03  0.00000000000E+00 0. -1.
      99926    2    1    2    0    0 -0.35527136788E-14  0.00000000000E+00 -0.19518588213E+03  0.49947505789E+03  0.45975842012E+03 0.  0.
      99925    2    3    3    0    0 -0.28844302529E+02  0.10898860864E+03 -0.86090381234E+02  0.29882649194E+03  0.26301180191E+03 0.  0.
         25    1    3    3    0    0  0.28844302529E+02 -0.10898860864E+03 -0.10909550089E+03  0.20064856595E+03  0.12509000000E+03 0.  0.
         25    1    4    4    0    0  0.17060480921E+01  0.33535468416E+02 -0.64902653119E+01  0.12968103133E+03  0.12509000000E+03 0.  0.
         25    1    4    4    0    0 -0.30550350621E+02  0.75453140224E+02 -0.79600115922E+02  0.16914546062E+03  0.12509000000E+03 0.  0.
<mgrwt>
<rscale>  2 0.45975842E+03</rscale>
<asrwt>0</asrwt>
<pdfrwt beam="1">  1       21 0.22374204E-01 0.45975842E+03</pdfrwt>
<pdfrwt beam="2">  1       21 0.51078010E-01 0.45975842E+03</pdfrwt>
<totfact> 0.62897851E+04</totfact>
</mgrwt>
</event>
<event>
 7    0  0.4831799E-002  0.4512002E+03  0.7546771E-02  0.1027365E+00
         21   -1    0    0  502  501  0.00000000000E+00  0.00000000000E+00  0.34107045987E+02  0.34107045987E+02  0.00000000000E+00 0.  1.
         21   -1    0    0  501  502 -0.00000000000E+00 -0.00000000000E+00 -0.14922253212E+04  0.14922253212E+04  0.00000000000E+00 0.  1.
      99926    2    1    2    0    0 -0.22204460493E-14  0.00000000000E+00 -0.14581182753E+04  0.15263323672E+04  0.45120016691E+03 0.  0.
      99925    2    3    3    0    0 -0.95248290103E+00 -0.10945540910E+03 -0.91070707011E+03  0.95424152705E+03  0.26307438222E+03 0.  0.
         25    1    4    4    0    0 -0.29594009238E+02 -0.27200518962E+02 -0.37967894139E+03  0.40177018337E+03  0.12509000000E+03 0.  0.
         25    1    3    3    0    0  0.95248290103E+00  0.10945540910E+03 -0.54741120514E+03  0.57209084018E+03  0.12509000000E+03 0.  0.
         25    1    4    4    0    0  0.28641526337E+02 -0.82254890138E+02 -0.53102812873E+03  0.55247134368E+03  0.12509000000E+03 0.  0.
<mgrwt>
<rscale>  2 0.45120017E+03</rscale>
<asrwt>0</asrwt>
<pdfrwt beam="1">  1       21 0.50157428E-02 0.45120017E+03</pdfrwt>
<pdfrwt beam="2">  1       21 0.21944487E+00 0.45120017E+03</pdfrwt>
<totfact> 0.23836846E+04</totfact>
</mgrwt>
</event>
<event>
 7    0  0.4831799E-002  0.4551845E+03  0.7546771E-02  0.1026187E+00
         21   -1    0    0  502  501  0.00000000000E+00  0.00000000000E+00  0.37298376822E+02  0.37298376822E+02  0.00000000000E+00 0.  1.
         21   -1    0    0  501  502 -0.00000000000E+00 -0.00000000000E+00 -0.13887531341E+04  0.13887531341E+04  0.00000000000E+00 0.  1.
      99926    2    1    2    0    0  0.00000000000E+00  0.00000000000E+00 -0.13514547573E+04  0.14260515110E+04  0.45518452394E+03 0.  0.
      99925    2    3    3    0    0  0.78014304367E+02 -0.68194790021E+02 -0.99412473673E+03  0.10335352530E+04  0.26301020111E+03 0.  0.
         25    1    3    3    0    0 -0.78014304367E+02  0.68194790021E+02 -0.35733002058E+03  0.39251625798E+03  0.12509000000E+03 0.  0.
         25    1    4    4    0    0  0.40305181597E+02 -0.18695762364E+02 -0.34755708696E+03  0.37204499189E+03  0.12509000000E+03 0.  0.
         25    1    4    4    0    0  0.37709122770E+02 -0.49499027658E+02 -0.64656764977E+03  0.66149026109E+03  0.12509000000E+03 0.  0.
<mgrwt>
<rscale>  2 0.45518452E+03</rscale>
<asrwt>0</asrwt>
<pdfrwt beam="1">  1       21 0.54850563E-02 0.45518452E+03</pdfrwt>
<pdfrwt beam="2">  1       21 0.20422837E+00 0.45518452E+03</pdfrwt>
<totfact> 0.25609257E+04</totfact>
</mgrwt>
</event>
<event>
 7    0  0.4831799E-002  0.4522556E+03  0.7546771E-02  0.1027052E+00
         21   -1    0    0  502  501  0.00000000000E+00  0.00000000000E+00  0.12873073759E+03  0.12873073759E+03  0.00000000000E+00 0.  1.
         21   -1    0    0  501  502 -0.00000000000E+00 -0.00000000000E+00 -0.39721494667E+03  0.39721494667E+03  0.00000000000E+00 0.  1.
      99926    2    1    2    0    0  0.00000000000E+00 -0.35527136788E-14 -0.26848420908E+03  0.52594568426E+03  0.45225556080E+03 0.  0.
      99925    2    3    3    0    0  0.61081561319E+02  0.25179957152E+02 -0.27247399443E+03  0.38442390551E+03  0.26301078706E+03 0.  0.
         25    1    4    4    0    0 -0.45382930069E+01 -0.53940936507E+01 -0.14583882362E+03  0.19226586521E+03  0.12509000000E+03 0.  0.
         25    1    4    4    0    0  0.65619854326E+02  0.30574050803E+02 -0.12663517081E+03  0.19215804030E+03  0.12509000000E+03 0.  0.
         25    1    3    3    0    0 -0.61081561319E+02 -0.25179957152E+02  0.39897853549E+01  0.14152177876E+03  0.12509000000E+03 0.  0.
<mgrwt>
<rscale>  2 0.45225556E+03</rscale>
<asrwt>0</asrwt>
<pdfrwt beam="1">  1       21 0.18930991E-01 0.45225556E+03</pdfrwt>
<pdfrwt beam="2">  1       21 0.58413962E-01 0.45225556E+03</pdfrwt>
<totfact> 0.64881821E+04</totfact>
</mgrwt>
</event>
<event>
 7    0  0.4831799E-002  0.4505775E+03  0.7546771E-02  0.1027550E+00
         21   -1    0    0  502  501  0.00000000000E+00  0.00000000000E+00  0.72643449354E+02  0.72643449354E+02  0.00000000000E+00 0. -1.
         21   -1    0    0  501  502 -0.00000000000E+00 -0.00000000000E+00 -0.69868696420E+03  0.69868696420E+03  0.00000000000E+00 0. -1.
      99926    2    1    2    0    0  0.00000000000E+00 -0.94368957093E-15 -0.62604351484E+03  0.77133041355E+03  0.45057754537E+03 0.  0.
      99925    2    3    3    0    0  0.83387467000E+02 -0.28233696833E+00 -0.51552595126E+03  0.58474212526E+03  0.26306424551E+03 0.  0.
         25    1    4    4    0    0  0.36391742752E+02 -0.39980916935E+02 -0.24139293312E+03  0.27720189198E+03  0.12509000000E+03 0.  0.
         25    1    4    4    0    0  0.46995724247E+02  0.39698579967E+02 -0.27413301814E+03  0.30754023328E+03  0.12509000000E+03 0.  0.
         25    1    3    3    0    0 -0.83387467000E+02  0.28233696833E+00 -0.11051756358E+03  0.18658828829E+03  0.12509000000E+03 0.  0.
<mgrwt>
<rscale>  2 0.45057755E+03</rscale>
<asrwt>0</asrwt>
<pdfrwt beam="1">  1       21 0.10682860E-01 0.45057755E+03</pdfrwt>
<pdfrwt beam="2">  1       21 0.10274809E+00 0.45057755E+03</pdfrwt>
<totfact> 0.50927911E+04</totfact>
</mgrwt>
</event>
<event>
 7    0  0.4831799E-002  0.4507420E+03  0.7546771E-02  0.1027501E+00
         21   -1    0    0  502  501  0.00000000000E+00  0.00000000000E+00  0.13096931339E+03  0.13096931339E+03  0.00000000000E+00 0.  1.
         21   -1    0    0  501  502 -0.00000000000E+00 -0.00000000000E+00 -0.38781673293E+03  0.38781673293E+03  0.00000000000E+00 0.  1.
      99926    2    1    2    0    0  0.71054273576E-14  0.71054273576E-14 -0.25684741954E+03  0.51878604633E+03  0.45074201594E+03 0.  0.
      99925    2    3    3    0    0 -0.36400184896E+02 -0.61913307275E+02 -0.25684168638E+03  0.37454409954E+03  0.26297794501E+03 0.  0.
         25    1    3    3    0    0  0.36400184896E+02  0.61913307275E+02 -0.57331596629E-02  0.14424194678E+03  0.12509000000E+03 0.  0.
         25    1    4    4    0    0 -0.33209590557E+02 -0.12453127392E+02 -0.81218685156E+02  0.15330342529E+03  0.12509000000E+03 0.  0.
         25    1    4    4    0    0 -0.31905943392E+01 -0.49460179882E+02 -0.17562300122E+03  0.22124067426E+03  0.12509000000E+03 0.  0.
<mgrwt>
<rscale>  2 0.45074202E+03</rscale>
<asrwt>0</asrwt>
<pdfrwt beam="1">  1       21 0.19260193E-01 0.45074202E+03</pdfrwt>
<pdfrwt beam="2">  1       21 0.57031872E-01 0.45074202E+03</pdfrwt>
<totfact> 0.66177440E+04</totfact>
</mgrwt>
</event>
<event>
 7    0  0.4831799E-002  0.4639727E+03  0.7546771E-02  0.1023635E+00
         21   -1    0    0  502  501  0.00000000000E+00  0.00000000000E+00  0.10436290363E+03  0.10436290363E+03  0.00000000000E+00 0.  1.
         21   -1    0    0  501  502 -0.00000000000E+00 -0.00000000000E+00 -0.51567813752E+03  0.51567813752E+03  0.00000000000E+00 0.  1.
      99926    2    1    2    0    0  0.35527136788E-14  0.00000000000E+00 -0.41131523389E+03  0.62004104116E+03  0.46397270511E+03 0.  0.
      99925    2    3    3    0    0 -0.18269343128E+02  0.58242339507E+02 -0.39701411937E+03  0.48011974547E+03  0.26299965780E+03 0.  0.
         25    1    4    4    0    0 -0.37041993100E+02  0.40015802333E+01 -0.22128332807E+03  0.25690842976E+03  0.12509000000E+03 0.  0.
         25    1    4    4    0    0  0.18772649973E+02  0.54240759274E+02 -0.17573079129E+03  0.22321131571E+03  0.12509000000E+03 0.  0.
         25    1    3    3    0    0  0.18269343128E+02 -0.58242339507E+02 -0.14301114518E+02  0.13992129568E+03  0.12509000000E+03 0.  0.
<mgrwt>
<rscale>  2 0.46397271E+03</rscale>
<asrwt>0</asrwt>
<pdfrwt beam="1">  1       21 0.15347486E-01 0.46397271E+03</pdfrwt>
<pdfrwt beam="2">  1       21 0.75835021E-01 0.46397271E+03</pdfrwt>
<totfact> 0.53563856E+04</totfact>
</mgrwt>
</event>
<event>
 7    0  0.4831799E-002  0.4540795E+03  0.7546771E-02  0.1026512E+00
         21   -1    0    0  502  501  0.00000000000E+00  0.00000000000E+00  0.25163373810E+03  0.25163373810E+03  0.00000000000E+00 0.  1.
         21   -1    0    0  501  502 -0.00000000000E+00 -0.00000000000E+00 -0.20484950158E+03  0.20484950158E+03  0.00000000000E+00 0.  1.
      99926    2    1    2    0    0  0.00000000000E+00  0.00000000000E+00  0.46784236519E+02  0.45648323969E+03  0.45407949010E+03 0.  0.
      99925    2    3    3    0    0 -0.78757988485E+02 -0.80002493429E+02  0.26346867917E+02  0.28716574549E+03  0.26299579508E+03 0.  0.
         25    1    4    4    0    0 -0.31367868843E+01 -0.38533937837E+02 -0.87661257090E+01  0.13122140396E+03  0.12509000000E+03 0.  0.
         25    1    3    3    0    0  0.78757988485E+02  0.80002493429E+02  0.20437368602E+02  0.16931749419E+03  0.12509000000E+03 0.  0.
         25    1    4    4    0    0 -0.75621201600E+02 -0.41468555592E+02  0.35112993626E+02  0.15594434153E+03  0.12509000000E+03 0.  0.
<mgrwt>
<rscale>  2 0.45407949E+03</rscale>
<asrwt>0</asrwt>
<pdfrwt beam="1">  1       21 0.37004962E-01 0.45407949E+03</pdfrwt>
<pdfrwt beam="2">  1       21 0.30124927E-01 0.45407949E+03</pdfrwt>
<totfact> 0.68942191E+04</totfact>
</mgrwt>
</event>
<event>
 7    0  0.4831799E-002  0.4582252E+03  0.7546771E-02  0.1025297E+00
         21   -1    0    0  502  501  0.00000000000E+00  0.00000000000E+00  0.30039966710E+03  0.30039966710E+03  0.00000000000E+00 0. -1.
         21   -1    0    0  501  502 -0.00000000000E+00 -0.00000000000E+00 -0.17474245007E+03  0.17474245007E+03  0.00000000000E+00 0. -1.
      99926    2    1    2    0    0  0.71054273576E-14 -0.14210854715E-13  0.12565721703E+03  0.47514211716E+03  0.45822515787E+03 0.  0.
      99925    2    3    3    0    0  0.34740992430E+02 -0.10574023894E+03  0.44387622523E+02  0.28902336534E+03  0.26301389696E+03 0.  0.
         25    1    4    4    0    0  0.38417077354E+02 -0.45335882150E+02 -0.12114313317E+02  0.13901610961E+03  0.12509000000E+03 0.  0.
         25    1    4    4    0    0 -0.36760849239E+01 -0.60404356795E+02  0.56501935840E+02  0.15000725574E+03  0.12509000000E+03 0.  0.
         25    1    3    3    0    0 -0.34740992430E+02  0.10574023894E+03  0.81269594508E+02  0.18611875182E+03  0.12509000000E+03 0.  0.
<mgrwt>
<rscale>  2 0.45822516E+03</rscale>
<asrwt>0</asrwt>
<pdfrwt beam="1">  1       21 0.44176422E-01 0.45822516E+03</pdfrwt>
<pdfrwt beam="2">  1       21 0.25697419E-01 0.45822516E+03</pdfrwt>
<totfact> 0.65366557E+04</totfact>
</mgrwt>
</event>
<event>
 7    0  0.4831799E-002  0.4543120E+03  0.7546771E-02  0.1026444E+00
         21   -1    0    0  502  501  0.00000000000E+00  0.00000000000E+00  0.48032349220E+03  0.48032349220E+03  0.00000000000E+00 0.  1.
         21   -1    0    0  501  502 -0.00000000000E+00 -0.00000000000E+00 -0.10742726081E+03  0.10742726081E+03  0.00000000000E+00 0.  1.
      99926    2    1    2    0    0  0.71054273576E-14 -0.14210854715E-13  0.37289623139E+03  0.58775075302E+03  0.45431195041E+03 0.  0.
      99925    2    3    3    0    0  0.46712844633E+02 -0.91922904561E+02  0.17652638440E+03  0.33311270569E+03  0.26300304194E+03 0.  0.
         25    1    4    4    0    0  0.37901267277E+02 -0.83833753608E+01  0.94932374563E+02  0.16176047380E+03  0.12509000000E+03 0.  0.
         25    1    4    4    0    0  0.88115773556E+01 -0.83539529200E+02  0.81594009834E+02  0.17135223189E+03  0.12509000000E+03 0.  0.
         25    1    3    3    0    0 -0.46712844633E+02  0.91922904561E+02  0.19636984699E+03  0.25463804732E+03  0.12509000000E+03 0.  0.
<mgrwt>
<rscale>  2 0.45431195E+03</rscale>
<asrwt>0</asrwt>
<pdfrwt beam="1">  1       21 0.70635807E-01 0.45431195E+03</pdfrwt>
<pdfrwt beam="2">  1       21 0.15798127E-01 0.45431195E+03</pdfrwt>
<totfact> 0.59762994E+04</totfact>
</mgrwt>
</event>
<event>
 7    0  0.4831799E-002  0.4531241E+03  0.7546771E-02  0.1026794E+00
         21   -1    0    0  502  501  0.00000000000E+00  0.00000000000E+00  0.60965706351E+03  0.60965706351E+03  0.00000000000E+00 0. -1.
         21   -1    0    0  501  502 -0.00000000000E+00 -0.00000000000E+00 -0.84195464307E+02  0.84195464307E+02  0.00000000000E+00 0. -1.
      99926    2    1    2    0    0  0.00000000000E+00  0.00000000000E+00  0.52546159920E+03  0.69385252781E+03  0.45312408689E+03 0.  0.
      99925    2    3    3    0    0  0.18601802055E+02 -0.59009558345E+02  0.47305318024E+03  0.54478105001E+03  0.26301887024E+03 0.  0.
         25    1    4    4    0    0 -0.89060118719E+01 -0.39563231732E+02  0.30847030974E+03  0.33532969812E+03  0.12509000000E+03 0.  0.
         25    1    3    3    0    0 -0.18601802055E+02  0.59009558345E+02  0.52408418954E+02  0.14907147780E+03  0.12509000000E+03 0.  0.
         25    1    4    4    0    0  0.27507813927E+02 -0.19446326612E+02  0.16458287050E+03  0.20945135189E+03  0.12509000000E+03 0.  0.
<mgrwt>
<rscale>  2 0.45312409E+03</rscale>
<asrwt>0</asrwt>
<pdfrwt beam="1">  1       21 0.89655449E-01 0.45312409E+03</pdfrwt>
<pdfrwt beam="2">  1       21 0.12381686E-01 0.45312409E+03</pdfrwt>
<totfact> 0.54031432E+04</totfact>
</mgrwt>
</event>
<event>
 7    0  0.4831799E-002  0.4520467E+03  0.7546771E-02  0.1027113E+00
         21   -1    0    0  502  501  0.00000000000E+00  0.00000000000E+00  0.13743871838E+03  0.13743871838E+03  0.00000000000E+00 0.  1.
         21   -1    0    0  501  502 -0.00000000000E+00 -0.00000000000E+00 -0.37170417962E+03  0.37170417962E+03  0.00000000000E+00 0.  1.
      99926    2    1    2    0    0  0.00000000000E+00  0.00000000000E+00 -0.23426546124E+03  0.50914289800E+03  0.45204666159E+03 0.  0.
      99925    2    3    3    0    0  0.87301922113E+02 -0.67698234286E+02 -0.14557731978E+03  0.32015144035E+03  0.26286786070E+03 0.  0.
         25    1    4    4    0    0  0.50228941887E+02 -0.95090544320E+01 -0.10647573788E+03  0.17204057538E+03  0.12509000000E+03 0.  0.
         25    1    3    3    0    0 -0.87301922113E+02  0.67698234286E+02 -0.88688141460E+02  0.18899145765E+03  0.12509000000E+03 0.  0.
         25    1    4    4    0    0  0.37072980227E+02 -0.58189179854E+02 -0.39101581905E+02  0.14811086497E+03  0.12509000000E+03 0.  0.
<mgrwt>
<rscale>  2 0.45204666E+03</rscale>
<asrwt>0</asrwt>
<pdfrwt beam="1">  1       21 0.20211577E-01 0.45204666E+03</pdfrwt>
<pdfrwt beam="2">  1       21 0.54662378E-01 0.45204666E+03</pdfrwt>
<totfact> 0.66170352E+04</totfact>
</mgrwt>
</event>
<event>
 7    0  0.4831799E-002  0.4608045E+03  0.7546771E-02  0.1024548E+00
         21   -1    0    0  502  501  0.00000000000E+00  0.00000000000E+00  0.96276836644E+02  0.96276836644E+02  0.00000000000E+00 0. -1.
         21   -1    0    0  501  502 -0.00000000000E+00 -0.00000000000E+00 -0.55138066122E+03  0.55138066122E+03  0.00000000000E+00 0. -1.
      99926    2    1    2    0    0  0.00000000000E+00  0.00000000000E+00 -0.45510382457E+03  0.64765749786E+03  0.46080445245E+03 0.  0.
      99925    2    3    3    0    0  0.40549044702E+02  0.48656829430E+02 -0.42561104488E+03  0.50437789628E+03  0.26313606490E+03 0.  0.
         25    1    3    3    0    0 -0.40549044702E+02 -0.48656829430E+02 -0.29492779692E+02  0.14327960159E+03  0.12509000000E+03 0.  0.
         25    1    4    4    0    0  0.23639653229E+02 -0.15526636908E+02 -0.22163107682E+03  0.25606200806E+03  0.12509000000E+03 0.  0.
         25    1    4    4    0    0  0.16909391473E+02  0.64183466338E+02 -0.20397996806E+03  0.24831588822E+03  0.12509000000E+03 0.  0.
<mgrwt>
<rscale>  2 0.46080445E+03</rscale>
<asrwt>0</asrwt>
<pdfrwt beam="1">  1       21 0.14158358E-01 0.46080445E+03</pdfrwt>
<pdfrwt beam="2">  1       21 0.81085391E-01 0.46080445E+03</pdfrwt>
<totfact> 0.53351028E+04</totfact>
</mgrwt>
</event>
<event>
 7    0  0.4831799E-002  0.4742335E+03  0.7546771E-02  0.1020732E+00
         21   -1    0    0  502  501  0.00000000000E+00  0.00000000000E+00  0.35439724171E+03  0.35439724171E+03  0.00000000000E+00 0.  1.
         21   -1    0    0  501  502 -0.00000000000E+00 -0.00000000000E+00 -0.15864783487E+03  0.15864783487E+03  0.00000000000E+00 0.  1.
      99926    2    1    2    0    0  0.00000000000E+00 -0.14210854715E-13  0.19574940684E+03  0.51304507658E+03  0.47423350823E+03 0.  0.
      99925    2    3    3    0    0  0.37945586391E+02  0.75886021031E+02  0.14065295558E+02  0.27670807121E+03  0.26300374222E+03 0.  0.
         25    1    4    4    0    0 -0.16496702250E+02  0.15828135166E+02  0.10703933694E+02  0.12761172887E+03  0.12509000000E+03 0.  0.
         25    1    3    3    0    0 -0.37945586391E+02 -0.75886021031E+02  0.18168411129E+03  0.23633700537E+03  0.12509000000E+03 0.  0.
         25    1    4    4    0    0  0.54442288641E+02  0.60057885866E+02  0.33613618647E+01  0.14909634235E+03  0.12509000000E+03 0.  0.
<mgrwt>
<rscale>  2 0.47423351E+03</rscale>
<asrwt>0</asrwt>
<pdfrwt beam="1">  1       21 0.52117241E-01 0.47423351E+03</pdfrwt>
<pdfrwt beam="2">  1       21 0.23330564E-01 0.47423351E+03</pdfrwt>
<totfact> 0.55408807E+04</totfact>
</mgrwt>
</event>
<event>
 7    0  0.4831799E-002  0.4460071E+03  0.7546771E-02  0.1028919E+00
         21   -1    0    0  502  501  0.00000000000E+00  0.00000000000E+00  0.28456763010E+03  0.28456763010E+03  0.00000000000E+00 0. -1.
         21   -1    0    0  501  502 -0.00000000000E+00 -0.00000000000E+00 -0.17475840995E+03  0.17475840995E+03  0.00000000000E+00 0. -1.
      99926    2    1    2    0    0  0.00000000000E+00  0.00000000000E+00  0.10980922014E+03  0.45932604005E+03  0.44600711456E+03 0.  0.
      99925    2    3    3    0    0  0.51419562591E+02  0.49191443841E+02 -0.89455901969E+01  0.27274098533E+03  0.26314226557E+03 0.  0.
         25    1    4    4    0    0 -0.69656024722E+01  0.21425234659E+02  0.20883313721E+02  0.12880675910E+03  0.12509000000E+03 0.  0.
         25    1    3    3    0    0 -0.51419562591E+02 -0.49191443841E+02  0.11875481034E+03  0.18658505472E+03  0.12509000000E+03 0.  0.
         25    1    4    4    0    0  0.58385165063E+02  0.27766209181E+02 -0.29828903918E+02  0.14393422623E+03  0.12509000000E+03 0.  0.
<mgrwt>
<rscale>  2 0.44600711E+03</rscale>
<asrwt>0</asrwt>
<pdfrwt beam="1">  1       21 0.41848181E-01 0.44600711E+03</pdfrwt>
<pdfrwt beam="2">  1       21 0.25699766E-01 0.44600711E+03</pdfrwt>
<totfact> 0.73330976E+04</totfact>
</mgrwt>
</event>
<event>
 7    0  0.4831799E-002  0.4540154E+03  0.7546771E-02  0.1026531E+00
         21   -1    0    0  502  501  0.00000000000E+00  0.00000000000E+00  0.11063390899E+03  0.11063390899E+03  0.00000000000E+00 0. -1.
         21   -1    0    0  501  502 -0.00000000000E+00 -0.00000000000E+00 -0.46579298164E+03  0.46579298164E+03  0.00000000000E+00 0. -1.
      99926    2    1    2    0    0  0.00000000000E+00  0.00000000000E+00 -0.35515907266E+03  0.57642689063E+03  0.45401541092E+03 0.  0.
      99925    2    3    3    0    0 -0.97202629330E+02 -0.55761385401E+02 -0.21529314465E+03  0.35786873094E+03  0.26298518437E+03 0.  0.
         25    1    3    3    0    0  0.97202629330E+02  0.55761385401E+02 -0.13986592801E+03  0.21855815969E+03  0.12509000000E+03 0.  0.
         25    1    4    4    0    0 -0.79958712370E+02 -0.42397457398E+02 -0.14925278230E+03  0.21474366394E+03  0.12509000000E+03 0.  0.
         25    1    4    4    0    0 -0.17243916960E+02 -0.13363928003E+02 -0.66040362345E+02  0.14312506700E+03  0.12509000000E+03 0.  0.
<mgrwt>
<rscale>  2 0.45401541E+03</rscale>
<asrwt>0</asrwt>
<pdfrwt beam="1">  1       21 0.16269692E-01 0.45401541E+03</pdfrwt>
<pdfrwt beam="2">  1       21 0.68498968E-01 0.45401541E+03</pdfrwt>
<totfact> 0.60623788E+04</totfact>
</mgrwt>
</event>
<event>
 7    0  0.4831799E-002  0.4555149E+03  0.7546771E-02  0.1026090E+00
         21   -1    0    0  502  501  0.00000000000E+00  0.00000000000E+00  0.17301907141E+03  0.17301907141E+03  0.00000000000E+00 0.  1.
         21   -1    0    0  501  502 -0.00000000000E+00 -0.00000000000E+00 -0.29981345043E+03  0.29981345043E+03  0.00000000000E+00 0.  1.
      99926    2    1    2    0    0  0.00000000000E+00  0.00000000000E+00 -0.12679437903E+03  0.47283252184E+03  0.45551485064E+03 0.  0.
      99925    2    3    3    0    0 -0.97074962952E+02 -0.55118060618E+02 -0.10161636750E+03  0.30329494664E+03  0.26305966904E+03 0.  0.
         25    1    4    4    0    0 -0.50502556011E+02 -0.23522129189E+02 -0.78867407539E+01  0.13716233997E+03  0.12509000000E+03 0.  0.
         25    1    3    3    0    0  0.97074962952E+02  0.55118060618E+02 -0.25178011527E+02  0.16953757520E+03  0.12509000000E+03 0.  0.
         25    1    4    4    0    0 -0.46572406942E+02 -0.31595931430E+02 -0.93729626746E+02  0.16613260668E+03  0.12509000000E+03 0.  0.
<mgrwt>
<rscale>  2 0.45551485E+03</rscale>
<asrwt>0</asrwt>
<pdfrwt beam="1">  1       21 0.25443981E-01 0.45551485E+03</pdfrwt>
<pdfrwt beam="2">  1       21 0.44090213E-01 0.45551485E+03</pdfrwt>
<totfact> 0.66951779E+04</totfact>
</mgrwt>
</event>
<event>
 7    0  0.4831799E-002  0.4516290E+03  0.7546771E-02  0.1027237E+00
         21   -1    0    0  502  501  0.00000000000E+00  0.00000000000E+00  0.59792316990E+02  0.59792316990E+02  0.00000000000E+00 0.  1.
         21   -1    0    0  501  502 -0.00000000000E+00 -0.00000000000E+00 -0.85282188380E+03  0.85282188380E+03  0.00000000000E+00 0.  1.
      99926    2    1    2    0    0  0.00000000000E+00  0.00000000000E+00 -0.79302956681E+03  0.91261420079E+03  0.45162903543E+03 0.  0.
      99925    2    3    3    0    0 -0.10081005331E+02 -0.10908385786E+03 -0.52091651867E+03  0.59371933758E+03  0.26295953619E+03 0.  0.
         25    1    4    4    0    0 -0.26808996922E+02 -0.53649443343E+02 -0.19010549191E+03  0.23533931087E+03  0.12509000000E+03 0.  0.
         25    1    4    4    0    0  0.16727991591E+02 -0.55434414522E+02 -0.33081102676E+03  0.35838002670E+03  0.12509000000E+03 0.  0.
         25    1    3    3    0    0  0.10081005331E+02  0.10908385786E+03 -0.27211304813E+03  0.31889486321E+03  0.12509000000E+03 0.  0.
<mgrwt>
<rscale>  2 0.45162904E+03</rscale>
<asrwt>0</asrwt>
<pdfrwt beam="1">  1       21 0.87929886E-02 0.45162904E+03</pdfrwt>
<pdfrwt beam="2">  1       21 0.12541497E+00 0.45162904E+03</pdfrwt>
<totfact> 0.43837712E+04</totfact>
</mgrwt>
</event>
<event>
 7    0  0.4831799E-002  0.4628153E+03  0.7546771E-02  0.1023968E+00
         21   -1    0    0  502  501  0.00000000000E+00  0.00000000000E+00  0.16190575297E+03  0.16190575297E+03  0.00000000000E+00 0.  1.
         21   -1    0    0  501  502 -0.00000000000E+00 -0.00000000000E+00 -0.33074495352E+03  0.33074495352E+03  0.00000000000E+00 0.  1.
      99926    2    1    2    0    0  0.00000000000E+00 -0.14210854715E-13 -0.16883920054E+03  0.49265070649E+03  0.46281534435E+03 0.  0.
      99925    2    3    3    0    0 -0.51064069180E+02  0.10805990838E+03 -0.90370515527E+02  0.30267879913E+03  0.26298886365E+03 0.  0.
         25    1    3    3    0    0  0.51064069180E+02 -0.10805990838E+03 -0.78468685017E+02  0.18997190736E+03  0.12509000000E+03 0.  0.
         25    1    4    4    0    0  0.12085989731E+02  0.34466161942E+02 -0.34145272240E+02  0.13471226812E+03  0.12509000000E+03 0.  0.
         25    1    4    4    0    0 -0.63150058912E+02  0.73593746434E+02 -0.56225243287E+02  0.16796653100E+03  0.12509000000E+03 0.  0.
<mgrwt>
<rscale>  2 0.46281534E+03</rscale>
<asrwt>0</asrwt>
<pdfrwt beam="1">  1       21 0.23809670E-01 0.46281534E+03</pdfrwt>
<pdfrwt beam="2">  1       21 0.48638963E-01 0.46281534E+03</pdfrwt>
<totfact> 0.61862020E+04</totfact>
</mgrwt>
</event>
<event>
 7    0  0.4831799E-002  0.4644489E+03  0.7546771E-02  0.1023499E+00
         21   -1    0    0  502  501  0.00000000000E+00  0.00000000000E+00  0.17343929317E+03  0.17343929317E+03  0.00000000000E+00 0.  1.
         21   -1    0    0  501  502 -0.00000000000E+00 -0.00000000000E+00 -0.31093407827E+03  0.31093407827E+03  0.00000000000E+00 0.  1.
      99926    2    1    2    0    0  0.17763568394E-14  0.00000000000E+00 -0.13749478511E+03  0.48437337144E+03  0.46444886374E+03 0.  0.
      99925    2    3    3    0    0  0.13614346134E+02 -0.26581450862E+02 -0.20930700421E+03  0.33707630133E+03  0.26252445021E+03 0.  0.
         25    1    4    4    0    0  0.22345161086E+02  0.16296588267E+02 -0.13059209935E+03  0.18293903227E+03  0.12509000000E+03 0.  0.
         25    1    4    4    0    0 -0.87308149525E+01 -0.42878039129E+02 -0.78714904851E+02  0.15413726907E+03  0.12509000000E+03 0.  0.
         25    1    3    3    0    0 -0.13614346134E+02  0.26581450862E+02  0.71812219100E+02  0.14729707011E+03  0.12509000000E+03 0.  0.
<mgrwt>
<rscale>  2 0.46444886E+03</rscale>
<asrwt>0</asrwt>
<pdfrwt beam="1">  1       21 0.25505779E-01 0.46444886E+03</pdfrwt>
<pdfrwt beam="2">  1       21 0.45725599E-01 0.46444886E+03</pdfrwt>
<totfact> 0.61629777E+04</totfact>
</mgrwt>
</event>
<event>
 7    0  0.4831799E-002  0.4361845E+03  0.7546771E-02  0.1031924E+00
         21   -1    0    0  502  501  0.00000000000E+00  0.00000000000E+00  0.42741343150E+02  0.42741343150E+02  0.00000000000E+00 0.  1.
         21   -1    0    0  501  502 -0.00000000000E+00 -0.00000000000E+00 -0.11128389279E+04  0.11128389279E+04  0.00000000000E+00 0.  1.
      99926    2    1    2    0    0 -0.14210854715E-13  0.00000000000E+00 -0.10700975848E+04  0.11555802711E+04  0.43618450449E+03 0.  0.
      99925    2    3    3    0    0  0.94308837435E+02  0.65891798692E+01 -0.66193593156E+03  0.71833775557E+03  0.26251167494E+03 0.  0.
         25    1    3    3    0    0 -0.94308837435E+02 -0.65891798692E+01 -0.40816165324E+03  0.43724251553E+03  0.12509000000E+03 0.  0.
         25    1    4    4    0    0  0.11772506872E+02  0.83678118453E+01 -0.24868362847E+03  0.27874660063E+03  0.12509000000E+03 0.  0.
         25    1    4    4    0    0  0.82536330563E+02 -0.17786319760E+01 -0.41325230308E+03  0.43959115494E+03  0.12509000000E+03 0.  0.
<mgrwt>
<rscale>  2 0.43618450E+03</rscale>
<asrwt>0</asrwt>
<pdfrwt beam="1">  1       21 0.62854928E-02 0.43618450E+03</pdfrwt>
<pdfrwt beam="2">  1       21 0.16365275E+00 0.43618450E+03</pdfrwt>
<totfact> 0.39010563E+04</totfact>
</mgrwt>
</event>
<event>
 7    0  0.4831799E-002  0.4462845E+03  0.7546771E-02  0.1028836E+00
         21   -1    0    0  502  501  0.00000000000E+00  0.00000000000E+00  0.28571621330E+03  0.28571621330E+03  0.00000000000E+00 0.  1.
         21   -1    0    0  501  502 -0.00000000000E+00 -0.00000000000E+00 -0.17427248298E+03  0.17427248298E+03  0.00000000000E+00 0.  1.
      99926    2    1    2    0    0  0.88817841970E-15  0.14210854715E-13  0.11144373032E+03  0.45998869628E+03  0.44628454564E+03 0.  0.
      99925    2    3    3    0    0 -0.73161130263E+01 -0.10380222675E+03  0.57273658852E+02  0.28849428666E+03  0.26290730999E+03 0.  0.
         25    1    4    4    0    0  0.50717989241E+00 -0.15405785489E+02  0.38827526866E+01  0.12609591320E+03  0.12509000000E+03 0.  0.
         25    1    4    4    0    0 -0.78232929187E+01 -0.88396441263E+02  0.53390906165E+02  0.16239837346E+03  0.12509000000E+03 0.  0.
         25    1    3    3    0    0  0.73161130263E+01  0.10380222675E+03  0.54170071473E+02  0.17149440962E+03  0.12509000000E+03 0.  0.
<mgrwt>
<rscale>  2 0.44628455E+03</rscale>
<asrwt>0</asrwt>
<pdfrwt beam="1">  1       21 0.42017090E-01 0.44628455E+03</pdfrwt>
<pdfrwt beam="2">  1       21 0.25628306E-01 0.44628455E+03</pdfrwt>
<totfact> 0.73112986E+04</totfact>
</mgrwt>
</event>
<event>
 7    0  0.4831799E-002  0.4553037E+03  0.7546771E-02  0.1026152E+00
         21   -1    0    0  502  501  0.00000000000E+00  0.00000000000E+00  0.14279845770E+03  0.14279845770E+03  0.00000000000E+00 0.  1.
         21   -1    0    0  501  502 -0.00000000000E+00 -0.00000000000E+00 -0.36292665286E+03  0.36292665286E+03  0.00000000000E+00 0.  1.
      99926    2    1    2    0    0  0.00000000000E+00 -0.14210854715E-13 -0.22012819516E+03  0.50572511055E+03  0.45530370648E+03 0.  0.
      99925    2    3    3    0    0  0.10098517024E+02 -0.98224614366E+02 -0.20057931849E+03  0.34516446284E+03  0.26297602265E+03 0.  0.
         25    1    4    4    0    0  0.33491053745E+01 -0.29446967345E+02 -0.13964146918E+03  0.18980407901E+03  0.12509000000E+03 0.  0.
         25    1    3    3    0    0 -0.10098517024E+02  0.98224614366E+02 -0.19548876669E+02  0.16056064771E+03  0.12509000000E+03 0.  0.
         25    1    4    4    0    0  0.67494116490E+01 -0.68777647021E+02 -0.60937849309E+02  0.15536038384E+03  0.12509000000E+03 0.  0.
<mgrwt>
<rscale>  2 0.45530371E+03</rscale>
<asrwt>0</asrwt>
<pdfrwt beam="1">  1       21 0.20999774E-01 0.45530371E+03</pdfrwt>
<pdfrwt beam="2">  1       21 0.53371566E-01 0.45530371E+03</pdfrwt>
<totfact> 0.64714160E+04</totfact>
</mgrwt>
</event>
<event>
 7    0  0.4831799E-002  0.4507644E+03  0.7546771E-02  0.1027494E+00
         21   -1    0    0  502  501  0.00000000000E+00  0.00000000000E+00  0.63338873655E+03  0.63338873655E+03  0.00000000000E+00 0. -1.
         21   -1    0    0  501  502 -0.00000000000E+00 -0.00000000000E+00 -0.80198971073E+02  0.80198971073E+02  0.00000000000E+00 0. -1.
      99926    2    1    2    0    0  0.14210854715E-13  0.71054273576E-14  0.55318976548E+03  0.71358770763E+03  0.45076435068E+03 0.  0.
      99925    2    3    3    0    0 -0.76460553889E+02 -0.34524617998E+02  0.23893390539E+03  0.36510181229E+03  0.26300524071E+03 0.  0.
         25    1    3    3    0    0  0.76460553889E+02  0.34524617998E+02  0.31425586009E+03  0.34848589534E+03  0.12509000000E+03 0.  0.
         25    1    4    4    0    0 -0.69108672217E+02  0.94064736340E+01  0.12025337100E+03  0.18701035174E+03  0.12509000000E+03 0.  0.
         25    1    4    4    0    0 -0.73518816720E+01 -0.43931091632E+02  0.11868053440E+03  0.17809146055E+03  0.12509000000E+03 0.  0.
<mgrwt>
<rscale>  2 0.45076435E+03</rscale>
<asrwt>0</asrwt>
<pdfrwt beam="1">  1       21 0.93145400E-01 0.45076435E+03</pdfrwt>
<pdfrwt beam="2">  1       21 0.11793967E-01 0.45076435E+03</pdfrwt>
<totfact> 0.53946679E+04</totfact>
</mgrwt>
</event>
<event>
 7    0  0.4831799E-002  0.4549388E+03  0.7546771E-02  0.1026259E+00
         21   -1    0    0  502  501  0.00000000000E+00  0.00000000000E+00  0.14080462205E+03  0.14080462205E+03  0.00000000000E+00 0.  1.
         21   -1    0    0  501  502 -0.00000000000E+00 -0.00000000000E+00 -0.36747606678E+03  0.36747606678E+03  0.00000000000E+00 0.  1.
      99926    2    1    2    0    0 -0.71054273576E-14  0.00000000000E+00 -0.22667144473E+03  0.50828068884E+03  0.45493880334E+03 0.  0.
      99925    2    3    3    0    0  0.54476537708E+02  0.97471379670E+02 -0.11854035014E+03  0.30876075316E+03  0.26232236859E+03 0.  0.
         25    1    4    4    0    0  0.89146361726E+01  0.35980161608E+02 -0.92230615999E+02  0.15977495860E+03  0.12509000000E+03 0.  0.
         25    1    4    4    0    0  0.45561901536E+02  0.61491218062E+02 -0.26309734140E+02  0.14898579456E+03  0.12509000000E+03 0.  0.
         25    1    3    3    0    0 -0.54476537708E+02 -0.97471379670E+02 -0.10813109459E+03  0.19951993568E+03  0.12509000000E+03 0.  0.
<mgrwt>
<rscale>  2 0.45493880E+03</rscale>
<asrwt>0</asrwt>
<pdfrwt beam="1">  1       21 0.20706562E-01 0.45493880E+03</pdfrwt>
<pdfrwt beam="2">  1       21 0.54040598E-01 0.45493880E+03</pdfrwt>
<totfact> 0.64724176E+04</totfact>
</mgrwt>
</event>
<event>
 7    0  0.4831799E-002  0.4590300E+03  0.7546771E-02  0.1025063E+00
         21   -1    0    0  502  501  0.00000000000E+00  0.00000000000E+00  0.59623238565E+03  0.59623238565E+03  0.00000000000E+00 0.  1.
         21   -1    0    0  501  502 -0.00000000000E+00 -0.00000000000E+00 -0.88350022344E+02  0.88350022344E+02  0.00000000000E+00 0.  1.
      99926    2    1    2    0    0  0.00000000000E+00  0.35527136788E-14  0.50788236331E+03  0.68458240799E+03  0.45903004082E+03 0.  0.
      99925    2    3    3    0    0  0.11477067169E+03  0.20800039187E+02  0.32794311594E+03  0.43632731831E+03  0.26311574013E+03 0.  0.
         25    1    4    4    0    0  0.47280984708E+02  0.27698215541E+02  0.21475404093E+03  0.25449850462E+03  0.12509000000E+03 0.  0.
         25    1    4    4    0    0  0.67489686985E+02 -0.68981763547E+01  0.11318907501E+03  0.18182881369E+03  0.12509000000E+03 0.  0.
         25    1    3    3    0    0 -0.11477067169E+03 -0.20800039187E+02  0.17993924737E+03  0.24825508968E+03  0.12509000000E+03 0.  0.
<mgrwt>
<rscale>  2 0.45903004E+03</rscale>
<asrwt>0</asrwt>
<pdfrwt beam="1">  1       21 0.87681231E-01 0.45903004E+03</pdfrwt>
<pdfrwt beam="2">  1       21 0.12992651E-01 0.45903004E+03</pdfrwt>
<totfact> 0.52075775E+04</totfact>
</mgrwt>
</event>
<event>
 7    0  0.4831799E-002  0.4766003E+03  0.7546771E-02  0.1020074E+00
         21   -1    0    0  502  501  0.00000000000E+00  0.00000000000E+00  0.99940746931E+02  0.99940746931E+02  0.00000000000E+00 0. -1.
         21   -1    0    0  501  502 -0.00000000000E+00 -0.00000000000E+00 -0.56820623754E+03  0.56820623754E+03  0.00000000000E+00 0. -1.
      99926    2    1    2    0    0  0.00000000000E+00  0.14210854715E-13 -0.46826549061E+03  0.66814698448E+03  0.47660027609E+03 0.  0.
      99925    2    3    3    0    0 -0.10460159405E+03 -0.72460861137E+02 -0.23776935563E+03  0.37665419517E+03  0.26294875240E+03 0.  0.
         25    1    3    3    0    0  0.10460159405E+03  0.72460861137E+02 -0.23049613498E+03  0.29149278931E+03  0.12509000000E+03 0.  0.
         25    1    4    4    0    0 -0.55407707018E+02 -0.72033887043E+02 -0.15425924664E+03  0.21840860366E+03  0.12509000000E+03 0.  0.
         25    1    4    4    0    0 -0.49193887034E+02 -0.42697409372E+00 -0.83510108988E+02  0.15824559151E+03  0.12509000000E+03 0.  0.
<mgrwt>
<rscale>  2 0.47660028E+03</rscale>
<asrwt>0</asrwt>
<pdfrwt beam="1">  1       21 0.14697169E-01 0.47660028E+03</pdfrwt>
<pdfrwt beam="2">  1       21 0.83559742E-01 0.47660028E+03</pdfrwt>
<totfact> 0.46268282E+04</totfact>
</mgrwt>
</event>
<event>
 7    0  0.4831799E-002  0.4539045E+03  0.7546771E-02  0.1026564E+00
         21   -1    0    0  502  501  0.00000000000E+00  0.00000000000E+00  0.36079334671E+02  0.36079334671E+02  0.00000000000E+00 0. -1.
         21   -1    0    0  501  502 -0.00000000000E+00 -0.00000000000E+00 -0.14276126491E+04  0.14276126491E+04  0.00000000000E+00 0. -1.
      99926    2    1    2    0    0 -0.17763568394E-14 -0.71054273576E-14 -0.13915333144E+04  0.14636919838E+04  0.45390445932E+03 0.  0.
      99925    2    3    3    0    0 -0.11306067478E+02  0.61807404579E+02 -0.11759143217E+04  0.12066179856E+04  0.26306746037E+03 0.  0.
         25    1    4    4    0    0 -0.11212243085E+02  0.64664433615E+02 -0.72676241636E+03  0.74036364126E+03  0.12509000000E+03 0.  0.
         25    1    3    3    0    0  0.11306067478E+02 -0.61807404579E+02 -0.21561899270E+03  0.25707399817E+03  0.12509000000E+03 0.  0.
         25    1    4    4    0    0 -0.93824392495E-01 -0.28570290365E+01 -0.44915190535E+03  0.46625434432E+03  0.12509000000E+03 0.  0.
<mgrwt>
<rscale>  2 0.45390446E+03</rscale>
<asrwt>0</asrwt>
<pdfrwt beam="1">  1       21 0.53057848E-02 0.45390446E+03</pdfrwt>
<pdfrwt beam="2">  1       21 0.20994302E+00 0.45390446E+03</pdfrwt>
<totfact> 0.24894096E+04</totfact>
</mgrwt>
</event>
<event>
 7    0  0.4831799E-002  0.4520182E+03  0.7546771E-02  0.1027122E+00
         21   -1    0    0  502  501  0.00000000000E+00  0.00000000000E+00  0.12793981900E+03  0.12793981900E+03  0.00000000000E+00 0. -1.
         21   -1    0    0  501  502 -0.00000000000E+00 -0.00000000000E+00 -0.39925106980E+03  0.39925106980E+03  0.00000000000E+00 0. -1.
      99926    2    1    2    0    0  0.00000000000E+00  0.00000000000E+00 -0.27131125080E+03  0.52719088880E+03  0.45201818373E+03 0.  0.
      99925    2    3    3    0    0 -0.10589770157E+03 -0.18851910379E+02 -0.14258073939E+03  0.31793322372E+03  0.26302575878E+03 0.  0.
         25    1    4    4    0    0 -0.92889091064E+02  0.61319512417E+01 -0.80090068251E+02  0.17529378539E+03  0.12509000000E+03 0.  0.
         25    1    4    4    0    0 -0.13008610504E+02 -0.24983861620E+02 -0.62490671136E+02  0.14263943833E+03  0.12509000000E+03 0.  0.
         25    1    3    3    0    0  0.10589770157E+03  0.18851910379E+02 -0.12873051142E+03  0.20925766507E+03  0.12509000000E+03 0.  0.
<mgrwt>
<rscale>  2 0.45201818E+03</rscale>
<asrwt>0</asrwt>
<pdfrwt beam="1">  1       21 0.18814679E-01 0.45201818E+03</pdfrwt>
<pdfrwt beam="2">  1       21 0.58713392E-01 0.45201818E+03</pdfrwt>
<totfact> 0.64917891E+04</totfact>
</mgrwt>
</event>
<event>
 7    0  0.4831799E-002  0.4426542E+03  0.7546771E-02  0.1029936E+00
         21   -1    0    0  502  501  0.00000000000E+00  0.00000000000E+00  0.38670932442E+03  0.38670932442E+03  0.00000000000E+00 0.  1.
         21   -1    0    0  501  502 -0.00000000000E+00 -0.00000000000E+00 -0.12667315274E+03  0.12667315274E+03  0.00000000000E+00 0.  1.
      99926    2    1    2    0    0 -0.14210854715E-13  0.17763568394E-14  0.26003617168E+03  0.51338247716E+03  0.44265421864E+03 0.  0.
      99925    2    3    3    0    0 -0.68383654568E+02  0.11667286970E+02  0.80175328947E+02  0.28357847231E+03  0.26301371977E+03 0.  0.
         25    1    3    3    0    0  0.68383654568E+02 -0.11667286970E+02  0.17986084273E+03  0.22980400485E+03  0.12509000000E+03 0.  0.
         25    1    4    4    0    0 -0.58136070925E+02 -0.18152169024E+02  0.65396289743E+02  0.15373186656E+03  0.12509000000E+03 0.  0.
         25    1    4    4    0    0 -0.10247583643E+02  0.29819455994E+02  0.14779039204E+02  0.12984660575E+03  0.12509000000E+03 0.  0.
<mgrwt>
<rscale>  2 0.44265422E+03</rscale>
<asrwt>0</asrwt>
<pdfrwt beam="1">  1       21 0.56869018E-01 0.44265422E+03</pdfrwt>
<pdfrwt beam="2">  1       21 0.18628405E-01 0.44265422E+03</pdfrwt>
<totfact> 0.71047714E+04</totfact>
</mgrwt>
</event>
<event>
 7    0  0.4831799E-002  0.4516090E+03  0.7546771E-02  0.1027243E+00
         21   -1    0    0  502  501  0.00000000000E+00  0.00000000000E+00  0.30084969453E+03  0.30084969453E+03  0.00000000000E+00 0. -1.
         21   -1    0    0  501  502 -0.00000000000E+00 -0.00000000000E+00 -0.16947886622E+03  0.16947886622E+03  0.00000000000E+00 0. -1.
      99926    2    1    2    0    0  0.00000000000E+00 -0.17763568394E-14  0.13137082831E+03  0.47032856076E+03  0.45160896861E+03 0.  0.
      99925    2    3    3    0    0 -0.94532518896E+02 -0.13055809416E+02  0.26243878198E+02  0.28110373408E+03  0.26310400393E+03 0.  0.
         25    1    4    4    0    0 -0.70231429500E+02 -0.31722052108E+02 -0.10147031582E+02  0.14727257935E+03  0.12509000000E+03 0.  0.
         25    1    3    3    0    0  0.94532518896E+02  0.13055809416E+02  0.10512695011E+03  0.18922482667E+03  0.12509000000E+03 0.  0.
         25    1    4    4    0    0 -0.24301089396E+02  0.18666242692E+02  0.36390909780E+02  0.13383115473E+03  0.12509000000E+03 0.  0.
<mgrwt>
<rscale>  2 0.45160897E+03</rscale>
<asrwt>0</asrwt>
<pdfrwt beam="1">  1       21 0.44242602E-01 0.45160897E+03</pdfrwt>
<pdfrwt beam="2">  1       21 0.24923363E-01 0.45160897E+03</pdfrwt>
<totfact> 0.69255962E+04</totfact>
</mgrwt>
</event>
<event>
 7    0  0.4831799E-002  0.4555143E+03  0.7546771E-02  0.1026090E+00
         21   -1    0    0  502  501  0.00000000000E+00  0.00000000000E+00  0.38650300872E+03  0.38650300872E+03  0.00000000000E+00 0. -1.
         21   -1    0    0  501  502 -0.00000000000E+00 -0.00000000000E+00 -0.13421194315E+03  0.13421194315E+03  0.00000000000E+00 0. -1.
      99926    2    1    2    0    0  0.35527136788E-14  0.00000000000E+00  0.25229106557E+03  0.52071495187E+03  0.45551430201E+03 0.  0.
      99925    2    3    3    0    0 -0.18752907735E+02  0.11144566020E+03  0.17251021947E+03  0.33420946072E+03  0.26299121864E+03 0.  0.
         25    1    4    4    0    0  0.23697856479E+02  0.48501834384E+02  0.10993872480E+03  0.17506583805E+03  0.12509000000E+03 0.  0.
         25    1    4    4    0    0 -0.42450764214E+02  0.62943825820E+02  0.62571494670E+02  0.15914362267E+03  0.12509000000E+03 0.  0.
         25    1    3    3    0    0  0.18752907735E+02 -0.11144566020E+03  0.79780846091E+02  0.18650549115E+03  0.12509000000E+03 0.  0.
<mgrwt>
<rscale>  2 0.45551430E+03</rscale>
<asrwt>0</asrwt>
<pdfrwt beam="1">  1       21 0.56838677E-01 0.45551430E+03</pdfrwt>
<pdfrwt beam="2">  1       21 0.19737051E-01 0.45551430E+03</pdfrwt>
<totfact> 0.63578761E+04</totfact>
</mgrwt>
</event>
<event>
 7    0  0.4831799E-002  0.4555237E+03  0.7546771E-02  0.1026088E+00
         21   -1    0    0  502  501  0.00000000000E+00  0.00000000000E+00  0.23703310031E+04  0.23703310031E+04  0.00000000000E+00 0. -1.
         21   -1    0    0  501  502 -0.00000000000E+00 -0.00000000000E+00 -0.21885320338E+02  0.21885320338E+02  0.00000000000E+00 0. -1.
      99926    2    1    2    0    0  0.00000000000E+00  0.00000000000E+00  0.23484456828E+04  0.23922163235E+04  0.45552366925E+03 0.  0.
      99925    2    3    3    0    0  0.73356156446E+02 -0.36465146783E+02  0.10637239913E+04  0.10988222747E+04  0.26304149703E+03 0.  0.
         25    1    4    4    0    0  0.51225629604E+02 -0.29344624594E+01  0.40037933534E+03  0.42259176100E+03  0.12509000000E+03 0.  0.
         25    1    4    4    0    0  0.22130526842E+02 -0.33530684324E+02  0.66334465597E+03  0.67623051374E+03  0.12509000000E+03 0.  0.
         25    1    3    3    0    0 -0.73356156446E+02  0.36465146783E+02  0.12847216915E+04  0.12933940487E+04  0.12509000000E+03 0.  0.
<mgrwt>
<rscale>  2 0.45552367E+03</rscale>
<asrwt>0</asrwt>
<pdfrwt beam="1">  1       21 0.34857791E+00 0.45552367E+03</pdfrwt>
<pdfrwt beam="2">  1       21 0.32184311E-02 0.45552367E+03</pdfrwt>
<totfact> 0.82646431E+03</totfact>
</mgrwt>
</event>
<event>
 7    0  0.4831799E-002  0.4599317E+03  0.7546771E-02  0.1024801E+00
         21   -1    0    0  502  501  0.00000000000E+00  0.00000000000E+00  0.22600450942E+03  0.22600450942E+03  0.00000000000E+00 0.  1.
         21   -1    0    0  501  502 -0.00000000000E+00 -0.00000000000E+00 -0.23399664765E+03  0.23399664765E+03  0.00000000000E+00 0.  1.
      99926    2    1    2    0    0 -0.71054273576E-14  0.00000000000E+00 -0.79921382311E+01  0.46000115706E+03  0.45993172344E+03 0.  0.
      99925    2    3    3    0    0 -0.52014634813E+02 -0.88748006750E+02  0.52182993143E+02  0.28722880548E+03  0.26305054835E+03 0.  0.
         25    1    4    4    0    0 -0.57173885372E+02 -0.56149672624E+02  0.23013115750E+01  0.14857470525E+03  0.12509000000E+03 0.  0.
         25    1    4    4    0    0  0.51592505593E+01 -0.32598334126E+02  0.49881681568E+02  0.13865410023E+03  0.12509000000E+03 0.  0.
         25    1    3    3    0    0  0.52014634813E+02  0.88748006750E+02 -0.60175131374E+02  0.17277235159E+03  0.12509000000E+03 0.  0.
<mgrwt>
<rscale>  2 0.45993172E+03</rscale>
<asrwt>0</asrwt>
<pdfrwt beam="1">  1       21 0.33235957E-01 0.45993172E+03</pdfrwt>
<pdfrwt beam="2">  1       21 0.34411272E-01 0.45993172E+03</pdfrwt>
<totfact> 0.65562830E+04</totfact>
</mgrwt>
</event>
<event>
 7    0  0.4831799E-002  0.4458627E+03  0.7546771E-02  0.1028963E+00
         21   -1    0    0  502  501  0.00000000000E+00  0.00000000000E+00  0.60840007547E+02  0.60840007547E+02  0.00000000000E+00 0. -1.
         21   -1    0    0  501  502 -0.00000000000E+00 -0.00000000000E+00 -0.81687010520E+03  0.81687010520E+03  0.00000000000E+00 0. -1.
      99926    2    1    2    0    0  0.00000000000E+00  0.35527136788E-14 -0.75603009766E+03  0.87771011275E+03  0.44586268453E+03 0.  0.
      99925    2    3    3    0    0 -0.92939587836E+02  0.25547238041E+02 -0.55858911286E+03  0.62488432503E+03  0.26299846825E+03 0.  0.
         25    1    3    3    0    0  0.92939587836E+02 -0.25547238041E+02 -0.19744098480E+03  0.25282578772E+03  0.12509000000E+03 0.  0.
         25    1    4    4    0    0 -0.48661988342E+02 -0.21645861712E+02 -0.32237637130E+03  0.34987221283E+03  0.12509000000E+03 0.  0.
         25    1    4    4    0    0 -0.44277599493E+02  0.47193099753E+02 -0.23621274156E+03  0.27501211220E+03  0.12509000000E+03 0.  0.
<mgrwt>
<rscale>  2 0.44586268E+03</rscale>
<asrwt>0</asrwt>
<pdfrwt beam="1">  1       21 0.89470603E-02 0.44586268E+03</pdfrwt>
<pdfrwt beam="2">  1       21 0.12012795E+00 0.44586268E+03</pdfrwt>
<totfact> 0.47522220E+04</totfact>
</mgrwt>
</event>
<event>
 7    0  0.4831799E-002  0.4464943E+03  0.7546771E-02  0.1028773E+00
         21   -1    0    0  502  501  0.00000000000E+00  0.00000000000E+00  0.82329020501E+02  0.82329020501E+02  0.00000000000E+00 0. -1.
         21   -1    0    0  501  502 -0.00000000000E+00 -0.00000000000E+00 -0.60536727725E+03  0.60536727725E+03  0.00000000000E+00 0. -1.
      99926    2    1    2    0    0  0.00000000000E+00 -0.35527136788E-14 -0.52303825675E+03  0.68769629775E+03  0.44649432238E+03 0.  0.
      99925    2    3    3    0    0  0.86484605432E+02  0.31823185227E+02 -0.25411243213E+03  0.37711473143E+03  0.26296404773E+03 0.  0.
         25    1    3    3    0    0 -0.86484605432E+02 -0.31823185227E+02 -0.26892582462E+03  0.31058156632E+03  0.12509000000E+03 0.  0.
         25    1    4    4    0    0  0.43537036585E+02  0.73565824619E+01 -0.17983211557E+03  0.22346518913E+03  0.12509000000E+03 0.  0.
         25    1    4    4    0    0  0.42947568847E+02  0.24466602765E+02 -0.74280316561E+02  0.15364954230E+03  0.12509000000E+03 0.  0.
<mgrwt>
<rscale>  2 0.44649432E+03</rscale>
<asrwt>0</asrwt>
<pdfrwt beam="1">  1       21 0.12107209E-01 0.44649432E+03</pdfrwt>
<pdfrwt beam="2">  1       21 0.89024597E-01 0.44649432E+03</pdfrwt>
<totfact> 0.57318909E+04</totfact>
</mgrwt>
</event>
<event>
 7    0  0.4831799E-002  0.4630878E+03  0.7546771E-02  0.1023889E+00
         21   -1    0    0  502  501  0.00000000000E+00  0.00000000000E+00  0.47600156732E+02  0.47600156732E+02  0.00000000000E+00 0. -1.
         21   -1    0    0  501  502 -0.00000000000E+00 -0.00000000000E+00 -0.11263108999E+04  0.11263108999E+04  0.00000000000E+00 0. -1.
      99926    2    1    2    0    0  0.00000000000E+00  0.00000000000E+00 -0.10787107432E+04  0.11739110567E+04  0.46308779023E+03 0.  0.
      99925    2    3    3    0    0  0.29230605360E+02 -0.87423653434E+02 -0.47715435731E+03  0.55261006924E+03  0.26306707216E+03 0.  0.
         25    1    4    4    0    0  0.65309612763E+01 -0.38723605985E+02 -0.31297797102E+03  0.33933005991E+03  0.12509000000E+03 0.  0.
         25    1    4    4    0    0  0.22699644084E+02 -0.48700047449E+02 -0.16417638629E+03  0.21328000932E+03  0.12509000000E+03 0.  0.
         25    1    3    3    0    0 -0.29230605360E+02  0.87423653434E+02 -0.60155638589E+03  0.62130098742E+03  0.12509000000E+03 0.  0.
<mgrwt>
<rscale>  2 0.46308779E+03</rscale>
<asrwt>0</asrwt>
<pdfrwt beam="1">  1       21 0.70000224E-02 0.46308779E+03</pdfrwt>
<pdfrwt beam="2">  1       21 0.16563397E+00 0.46308779E+03</pdfrwt>
<totfact> 0.30994190E+04</totfact>
</mgrwt>
</event>
<event>
 7    0  0.4831799E-002  0.4544770E+03  0.7546771E-02  0.1026395E+00
         21   -1    0    0  502  501  0.00000000000E+00  0.00000000000E+00  0.48290801014E+03  0.48290801014E+03  0.00000000000E+00 0. -1.
         21   -1    0    0  501  502 -0.00000000000E+00 -0.00000000000E+00 -0.10692995557E+03  0.10692995557E+03  0.00000000000E+00 0. -1.
      99926    2    1    2    0    0 -0.35527136788E-14  0.00000000000E+00  0.37597805458E+03  0.58983796571E+03  0.45447698321E+03 0.  0.
      99925    2    3    3    0    0  0.27196627799E+02  0.18932882574E+02  0.96886885699E+02  0.28220588147E+03  0.26297334525E+03 0.  0.
         25    1    3    3    0    0 -0.27196627799E+02 -0.18932882574E+02  0.27909116888E+03  0.30763208424E+03  0.12509000000E+03 0.  0.
         25    1    4    4    0    0  0.48991459104E+02  0.29815609902E+02  0.50916359924E+02  0.14672803913E+03  0.12509000000E+03 0.  0.
         25    1    4    4    0    0 -0.21794831304E+02 -0.10882727329E+02  0.45970525775E+02  0.13547784234E+03  0.12509000000E+03 0.  0.
<mgrwt>
<rscale>  2 0.45447698E+03</rscale>
<asrwt>0</asrwt>
<pdfrwt beam="1">  1       21 0.71015883E-01 0.45447698E+03</pdfrwt>
<pdfrwt beam="2">  1       21 0.15724994E-01 0.45447698E+03</pdfrwt>
<totfact> 0.59553961E+04</totfact>
</mgrwt>
</event>
<event>
 7    0  0.4831799E-002  0.4576191E+03  0.7546771E-02  0.1025474E+00
         21   -1    0    0  502  501  0.00000000000E+00  0.00000000000E+00  0.20556481566E+03  0.20556481566E+03  0.00000000000E+00 0. -1.
         21   -1    0    0  501  502 -0.00000000000E+00 -0.00000000000E+00 -0.25468272360E+03  0.25468272360E+03  0.00000000000E+00 0. -1.
      99926    2    1    2    0    0  0.14210854715E-13  0.00000000000E+00 -0.49117907933E+02  0.46024753926E+03  0.45761908670E+03 0.  0.
      99925    2    3    3    0    0 -0.92099474207E+02  0.68248859430E+02 -0.45561705551E+02  0.29054080799E+03  0.26305488426E+03 0.  0.
         25    1    4    4    0    0 -0.11371238505E+02  0.14472889104E+02 -0.38183776725E+02  0.13207679012E+03  0.12509000000E+03 0.  0.
         25    1    3    3    0    0  0.92099474207E+02 -0.68248859430E+02 -0.35562023824E+01  0.16970673127E+03  0.12509000000E+03 0.  0.
         25    1    4    4    0    0 -0.80728235702E+02  0.53775970327E+02 -0.73779288261E+01  0.15846401786E+03  0.12509000000E+03 0.  0.
<mgrwt>
<rscale>  2 0.45761909E+03</rscale>
<asrwt>0</asrwt>
<pdfrwt beam="1">  1       21 0.30230120E-01 0.45761909E+03</pdfrwt>
<pdfrwt beam="2">  1       21 0.37453342E-01 0.45761909E+03</pdfrwt>
<totfact> 0.66757092E+04</totfact>
</mgrwt>
</event>
<event>
 7    0  0.4831799E-002  0.4582827E+03  0.7546771E-02  0.1025280E+00
         21   -1    0    0  502  501  0.00000000000E+00  0.00000000000E+00  0.79524860332E+03  0.79524860332E+03  0.00000000000E+00 0. -1.
         21   -1    0    0  501  502 -0.00000000000E+00 -0.00000000000E+00 -0.66024339699E+02  0.66024339699E+02  0.00000000000E+00 0. -1.
      99926    2    1    2    0    0  0.00000000000E+00  0.00000000000E+00  0.72922426362E+03  0.86127294302E+03  0.45828272466E+03 0.  0.
      99925    2    3    3    0    0 -0.75774037642E+02 -0.53377813328E+02  0.32579423626E+03  0.42884469369E+03  0.26301138986E+03 0.  0.
         25    1    4    4    0    0 -0.42271515474E+01 -0.45547172677E+02  0.13532819925E+03  0.18987796966E+03  0.12509000000E+03 0.  0.
         25    1    4    4    0    0 -0.71546886095E+02 -0.78306406514E+01  0.19046603700E+03  0.23896672403E+03  0.12509000000E+03 0.  0.
         25    1    3    3    0    0  0.75774037642E+02  0.53377813328E+02  0.40343002736E+03  0.43242824932E+03  0.12509000000E+03 0.  0.
<mgrwt>
<rscale>  2 0.45828272E+03</rscale>
<asrwt>0</asrwt>
<pdfrwt beam="1">  1       21 0.11694832E+00 0.45828272E+03</pdfrwt>
<pdfrwt beam="2">  1       21 0.97094622E-02 0.45828272E+03</pdfrwt>
<totfact> 0.43800482E+04</totfact>
</mgrwt>
</event>
<event>
 6    0  0.4831799E-002  0.4549231E+03  0.7546771E-02  0.1026264E+00
         21   -1    0    0  502  501  0.00000000000E+00  0.00000000000E+00  0.45157353594E+03  0.45157353594E+03  0.00000000000E+00 0. -1.
         21   -1    0    0  501  502 -0.00000000000E+00 -0.00000000000E+00 -0.11457439770E+03  0.11457439770E+03  0.00000000000E+00 0. -1.
      99926    2    1    2    0    0 -0.71054273576E-14  0.14210854715E-13  0.33699913825E+03  0.56614793364E+03  0.45492314030E+03 0.  0.
         25    1    3    3    0    0  0.50738740629E+02  0.70830061722E+02  0.18817715542E+03  0.24217652109E+03  0.12509000000E+03 0.  0.
         25    1    3    3    0    0  0.79451911896E+01  0.22296369826E+01  0.99582552678E+02  0.16010087521E+03  0.12509000000E+03 0.  0.
         25    1    3    3    0    0 -0.58683931819E+02 -0.73059698704E+02  0.49239430150E+02  0.16387053735E+03  0.12509000000E+03 0.  0.
<mgrwt>
<rscale>  2 0.45492314E+03</rscale>
<asrwt>0</asrwt>
<pdfrwt beam="1">  1       21 0.66407872E-01 0.45492314E+03</pdfrwt>
<pdfrwt beam="2">  1       21 0.16849176E-01 0.45492314E+03</pdfrwt>
<totfact> 0.60848866E+04</totfact>
</mgrwt>
</event>
<event>
 7    0  0.4831799E-002  0.4581030E+03  0.7546771E-02  0.1025333E+00
         21   -1    0    0  502  501  0.00000000000E+00  0.00000000000E+00  0.21482216284E+03  0.21482216284E+03  0.00000000000E+00 0.  1.
         21   -1    0    0  501  502 -0.00000000000E+00 -0.00000000000E+00 -0.24422331250E+03  0.24422331250E+03  0.00000000000E+00 0.  1.
      99926    2    1    2    0    0  0.00000000000E+00 -0.14210854715E-13 -0.29401149653E+02  0.45904547534E+03  0.45810295876E+03 0.  0.
      99925    2    3    3    0    0 -0.73303664954E+02 -0.89484136187E+02 -0.88647039719E+01  0.28743518536E+03  0.26298206190E+03 0.  0.
         25    1    4    4    0    0 -0.47121516321E+02 -0.86725308065E+02 -0.91826276797E+01  0.15960433926E+03  0.12509000000E+03 0.  0.
         25    1    3    3    0    0  0.73303664954E+02  0.89484136187E+02 -0.20536445681E+02  0.17161028998E+03  0.12509000000E+03 0.  0.
         25    1    4    4    0    0 -0.26182148634E+02 -0.27588281220E+01  0.31792370778E+00  0.12783084610E+03  0.12509000000E+03 0.  0.
<mgrwt>
<rscale>  2 0.45810296E+03</rscale>
<asrwt>0</asrwt>
<pdfrwt beam="1">  1       21 0.31591495E-01 0.45810296E+03</pdfrwt>
<pdfrwt beam="2">  1       21 0.35915193E-01 0.45810296E+03</pdfrwt>
<totfact> 0.66586595E+04</totfact>
</mgrwt>
</event>
<event>
 7    0  0.4831799E-002  0.4571388E+03  0.7546771E-02  0.1025614E+00
         21   -1    0    0  502  501  0.00000000000E+00  0.00000000000E+00  0.10197839432E+03  0.10197839432E+03  0.00000000000E+00 0.  1.
         21   -1    0    0  501  502 -0.00000000000E+00 -0.00000000000E+00 -0.51230436896E+03  0.51230436896E+03  0.00000000000E+00 0.  1.
      99926    2    1    2    0    0  0.00000000000E+00  0.00000000000E+00 -0.41032597465E+03  0.61428276328E+03  0.45713882771E+03 0.  0.
      99925    2    3    3    0    0 -0.96064980896E+02 -0.21492695506E+02 -0.33807849098E+03  0.43947537353E+03  0.26296600801E+03 0.  0.
         25    1    4    4    0    0 -0.31478252073E+02  0.22479600906E+02 -0.13074179240E+03  0.18503280031E+03  0.12509000000E+03 0.  0.
         25    1    4    4    0    0 -0.64586728823E+02 -0.43972296413E+02 -0.20733669858E+03  0.25444257322E+03  0.12509000000E+03 0.  0.
         25    1    3    3    0    0  0.96064980896E+02  0.21492695506E+02 -0.72247483666E+02  0.17480738975E+03  0.12509000000E+03 0.  0.
<mgrwt>
<rscale>  2 0.45713883E+03</rscale>
<asrwt>0</asrwt>
<pdfrwt beam="1">  1       21 0.14996823E-01 0.45713883E+03</pdfrwt>
<pdfrwt beam="2">  1       21 0.75338877E-01 0.45713883E+03</pdfrwt>
<totfact> 0.56841337E+04</totfact>
</mgrwt>
</event>
<event>
 7    0  0.4831799E-002  0.4279921E+03  0.7546771E-02  0.1034496E+00
         21   -1    0    0  502  501  0.00000000000E+00  0.00000000000E+00  0.12006019800E+03  0.12006019800E+03  0.00000000000E+00 0.  1.
         21   -1    0    0  501  502 -0.00000000000E+00 -0.00000000000E+00 -0.38142797787E+03  0.38142797787E+03  0.00000000000E+00 0.  1.
      99926    2    1    2    0    0  0.14210854715E-13 -0.88817841970E-15 -0.26136777987E+03  0.50148817587E+03  0.42799214266E+03 0.  0.
      99925    2    3    3    0    0  0.69031633004E+02  0.25624669568E+01 -0.11002031339E+03  0.29334040071E+03  0.26300606217E+03 0.  0.
         25    1    4    4    0    0  0.72707828145E+02  0.90199308694E+01 -0.42873375959E+02  0.15117348277E+03  0.12509000000E+03 0.  0.
         25    1    4    4    0    0 -0.36761951414E+01 -0.64574639125E+01 -0.67146937436E+02  0.14216691794E+03  0.12509000000E+03 0.  0.
         25    1    3    3    0    0 -0.69031633004E+02 -0.25624669568E+01 -0.15134746648E+03  0.20814777515E+03  0.12509000000E+03 0.  0.
<mgrwt>
<rscale>  2 0.42799214E+03</rscale>
<asrwt>0</asrwt>
<pdfrwt beam="1">  1       21 0.17655912E-01 0.42799214E+03</pdfrwt>
<pdfrwt beam="2">  1       21 0.56092349E-01 0.42799214E+03</pdfrwt>
<totfact> 0.81218874E+04</totfact>
</mgrwt>
</event>
<event>
 7    0  0.4831799E-002  0.4587689E+03  0.7546771E-02  0.1025139E+00
         21   -1    0    0  502  501  0.00000000000E+00  0.00000000000E+00  0.36555352357E+02  0.36555352357E+02  0.00000000000E+00 0.  1.
         21   -1    0    0  501  502 -0.00000000000E+00 -0.00000000000E+00 -0.14393848229E+04  0.14393848229E+04  0.00000000000E+00 0.  1.
      99926    2    1    2    0    0  0.71054273576E-14  0.00000000000E+00 -0.14028294706E+04  0.14759401753E+04  0.45876887157E+03 0.  0.
      99925    2    3    3    0    0 -0.39578342449E+02  0.86695494799E+02 -0.66533778946E+03  0.72186853292E+03  0.26331967403E+03 0.  0.
         25    1    3    3    0    0  0.39578342449E+02 -0.86695494799E+02 -0.73749168111E+03  0.75407164236E+03  0.12509000000E+03 0.  0.
         25    1    4    4    0    0 -0.45798420019E+01  0.79801873544E+02 -0.31701584905E+03  0.35005124000E+03  0.12509000000E+03 0.  0.
         25    1    4    4    0    0 -0.34998500447E+02  0.68936212544E+01 -0.34832194040E+03  0.37181729292E+03  0.12509000000E+03 0.  0.
<mgrwt>
<rscale>  2 0.45876887E+03</rscale>
<asrwt>0</asrwt>
<pdfrwt beam="1">  1       21 0.53757866E-02 0.45876887E+03</pdfrwt>
<pdfrwt beam="2">  1       21 0.21167426E+00 0.45876887E+03</pdfrwt>
<totfact> 0.23674276E+04</totfact>
</mgrwt>
</event>
<event>
 7    0  0.4831799E-002  0.4596577E+03  0.7546771E-02  0.1024881E+00
         21   -1    0    0  502  501  0.00000000000E+00  0.00000000000E+00  0.12534299248E+04  0.12534299248E+04  0.00000000000E+00 0.  1.
         21   -1    0    0  501  502 -0.00000000000E+00 -0.00000000000E+00 -0.42141402648E+02  0.42141402648E+02  0.00000000000E+00 0.  1.
      99926    2    1    2    0    0 -0.71054273576E-14  0.00000000000E+00  0.12112885221E+04  0.12955713274E+04  0.45965767763E+03 0.  0.
      99925    2    3    3    0    0 -0.54575757611E+02  0.47464971421E+02  0.49794509884E+03  0.56774045114E+03  0.26296095065E+03 0.  0.
         25    1    4    4    0    0 -0.25360739628E+01  0.39710208267E+02  0.18700177860E+03  0.22847429967E+03  0.12509000000E+03 0.  0.
         25    1    4    4    0    0 -0.52039683648E+02  0.77547631539E+01  0.31094332025E+03  0.33926615147E+03  0.12509000000E+03 0.  0.
         25    1    3    3    0    0  0.54575757611E+02 -0.47464971421E+02  0.71334342329E+03  0.72783087629E+03  0.12509000000E+03 0.  0.
<mgrwt>
<rscale>  2 0.45965768E+03</rscale>
<asrwt>0</asrwt>
<pdfrwt beam="1">  1       21 0.18432791E+00 0.45965768E+03</pdfrwt>
<pdfrwt beam="2">  1       21 0.61972659E-02 0.45965768E+03</pdfrwt>
<totfact> 0.28207602E+04</totfact>
</mgrwt>
</event>
<event>
 7    0  0.4831799E-002  0.4641703E+03  0.7546771E-02  0.1023579E+00
         21   -1    0    0  502  501  0.00000000000E+00  0.00000000000E+00  0.58563750414E+02  0.58563750414E+02  0.00000000000E+00 0.  1.
         21   -1    0    0  501  502 -0.00000000000E+00 -0.00000000000E+00 -0.91974171879E+03  0.91974171879E+03  0.00000000000E+00 0.  1.
      99926    2    1    2    0    0  0.00000000000E+00  0.00000000000E+00 -0.86117796837E+03  0.97830546920E+03  0.46417033281E+03 0.  0.
      99925    2    3    3    0    0  0.64755255650E+02  0.62248132956E+02 -0.71023510739E+03  0.76266843952E+03  0.26298510922E+03 0.  0.
         25    1    4    4    0    0  0.40318779933E+02  0.42162725231E+02 -0.47162160123E+03  0.49140384844E+03  0.12509000000E+03 0.  0.
         25    1    3    3    0    0 -0.64755255650E+02 -0.62248132956E+02 -0.15094286098E+03  0.21563702969E+03  0.12509000000E+03 0.  0.
         25    1    4    4    0    0  0.24436475717E+02  0.20085407725E+02 -0.23861350617E+03  0.27126459108E+03  0.12509000000E+03 0.  0.
<mgrwt>
<rscale>  2 0.46417033E+03</rscale>
<asrwt>0</asrwt>
<pdfrwt beam="1">  1       21 0.86123158E-02 0.46417033E+03</pdfrwt>
<pdfrwt beam="2">  1       21 0.13525614E+00 0.46417033E+03</pdfrwt>
<totfact> 0.37270855E+04</totfact>
</mgrwt>
</event>
<event>
 7    0  0.4831799E-002  0.4471399E+03  0.7546771E-02  0.1028578E+00
         21   -1    0    0  502  501  0.00000000000E+00  0.00000000000E+00  0.18193689810E+03  0.18193689810E+03  0.00000000000E+00 0.  1.
         21   -1    0    0  501  502 -0.00000000000E+00 -0.00000000000E+00 -0.27472993273E+03  0.27472993273E+03  0.00000000000E+00 0.  1.
      99926    2    1    2    0    0  0.14210854715E-13 -0.71054273576E-14 -0.92793034629E+02  0.45666683084E+03  0.44713985185E+03 0.  0.
      99925    2    3    3    0    0  0.10163377335E+03 -0.27896770281E+02 -0.66436208202E+02  0.29098688614E+03  0.26296757303E+03 0.  0.
         25    1    4    4    0    0  0.81003432659E+02  0.13457538025E+02 -0.28290426596E+02  0.15228433199E+03  0.12509000000E+03 0.  0.
         25    1    4    4    0    0  0.20630340690E+02 -0.41354308306E+02 -0.38145781606E+02  0.13870255415E+03  0.12509000000E+03 0.  0.
         25    1    3    3    0    0 -0.10163377335E+03  0.27896770281E+02 -0.26356826427E+02  0.16567994470E+03  0.12509000000E+03 0.  0.
<mgrwt>
<rscale>  2 0.44713985E+03</rscale>
<asrwt>0</asrwt>
<pdfrwt beam="1">  1       21 0.26755426E-01 0.44713985E+03</pdfrwt>
<pdfrwt beam="2">  1       21 0.40401461E-01 0.44713985E+03</pdfrwt>
<totfact> 0.72879834E+04</totfact>
</mgrwt>
</event>
<event>
 7    0  0.4831799E-002  0.4638970E+03  0.7546771E-02  0.1023657E+00
         21   -1    0    0  502  501  0.00000000000E+00  0.00000000000E+00  0.11675991574E+03  0.11675991574E+03  0.00000000000E+00 0. -1.
         21   -1    0    0  501  502 -0.00000000000E+00 -0.00000000000E+00 -0.46077545083E+03  0.46077545083E+03  0.00000000000E+00 0. -1.
      99926    2    1    2    0    0  0.00000000000E+00 -0.14210854715E-13 -0.34401553509E+03  0.57753536657E+03  0.46389698346E+03 0.  0.
      99925    2    3    3    0    0 -0.57906026353E+02 -0.79754481699E+02 -0.30290693662E+03  0.41306254144E+03  0.26297179630E+03 0.  0.
         25    1    4    4    0    0 -0.51619912531E+02 -0.65074338274E+02 -0.20119747311E+03  0.25105221799E+03  0.12509000000E+03 0.  0.
         25    1    4    4    0    0 -0.62861138221E+01 -0.14680143425E+02 -0.10170946351E+03  0.16201032345E+03  0.12509000000E+03 0.  0.
         25    1    3    3    0    0  0.57906026353E+02  0.79754481699E+02 -0.41108598465E+02  0.16447282513E+03  0.12509000000E+03 0.  0.
<mgrwt>
<rscale>  2 0.46389698E+03</rscale>
<asrwt>0</asrwt>
<pdfrwt beam="1">  1       21 0.17170576E-01 0.46389698E+03</pdfrwt>
<pdfrwt beam="2">  1       21 0.67761096E-01 0.46389698E+03</pdfrwt>
<totfact> 0.56035752E+04</totfact>
</mgrwt>
</event>
<event>
 7    0  0.4831799E-002  0.4579951E+03  0.7546771E-02  0.1025364E+00
         21   -1    0    0  502  501  0.00000000000E+00  0.00000000000E+00  0.15654926670E+03  0.15654926670E+03  0.00000000000E+00 0.  1.
         21   -1    0    0  501  502 -0.00000000000E+00 -0.00000000000E+00 -0.33497365967E+03  0.33497365967E+03  0.00000000000E+00 0.  1.
      99926    2    1    2    0    0 -0.35527136788E-14  0.00000000000E+00 -0.17842439297E+03  0.49152292637E+03  0.45799511257E+03 0.  0.
      99925    2    3    3    0    0 -0.14382084759E+02 -0.95151364682E+02 -0.18123692934E+03  0.33367475557E+03  0.26311858807E+03 0.  0.
         25    1    4    4    0    0  0.14779891935E+02 -0.40970677321E+02 -0.12874474888E+03  0.18471534876E+03  0.12509000000E+03 0.  0.
         25    1    3    3    0    0  0.14382084759E+02  0.95151364682E+02  0.28125363648E+01  0.15784817080E+03  0.12509000000E+03 0.  0.
         25    1    4    4    0    0 -0.29161976695E+02 -0.54180687361E+02 -0.52492180464E+02  0.14895940681E+03  0.12509000000E+03 0.  0.
<mgrwt>
<rscale>  2 0.45799511E+03</rscale>
<asrwt>0</asrwt>
<pdfrwt beam="1">  1       21 0.23021951E-01 0.45799511E+03</pdfrwt>
<pdfrwt beam="2">  1       21 0.49260831E-01 0.45799511E+03</pdfrwt>
<totfact> 0.64327218E+04</totfact>
</mgrwt>
</event>
<event>
 7    0  0.4831799E-002  0.4527005E+03  0.7546771E-02  0.1026920E+00
         21   -1    0    0  502  501  0.00000000000E+00  0.00000000000E+00  0.57303774914E+03  0.57303774914E+03  0.00000000000E+00 0.  1.
         21   -1    0    0  501  502 -0.00000000000E+00 -0.00000000000E+00 -0.89408500569E+02  0.89408500569E+02  0.00000000000E+00 0.  1.
      99926    2    1    2    0    0 -0.14210854715E-13  0.00000000000E+00  0.48362924857E+03  0.66244624971E+03  0.45270054526E+03 0.  0.
      99925    2    3    3    0    0 -0.71308616919E+02 -0.41730047075E+02  0.41348184507E+03  0.49693346472E+03  0.26296257621E+03 0.  0.
         25    1    3    3    0    0  0.71308616919E+02  0.41730047075E+02  0.70147403506E+02  0.16551278499E+03  0.12509000000E+03 0.  0.
         25    1    4    4    0    0 -0.54553574926E+02 -0.56696755883E+02  0.24069614582E+03  0.28244071480E+03  0.12509000000E+03 0.  0.
         25    1    4    4    0    0 -0.16755041993E+02  0.14966708808E+02  0.17278569924E+03  0.21449274992E+03  0.12509000000E+03 0.  0.
<mgrwt>
<rscale>  2 0.45270055E+03</rscale>
<asrwt>0</asrwt>
<pdfrwt beam="1">  1       21 0.84270255E-01 0.45270055E+03</pdfrwt>
<pdfrwt beam="2">  1       21 0.13148309E-01 0.45270055E+03</pdfrwt>
<totfact> 0.55997802E+04</totfact>
</mgrwt>
</event>
<event>
 7    0  0.4831799E-002  0.4480700E+03  0.7546771E-02  0.1028299E+00
         21   -1    0    0  502  501  0.00000000000E+00  0.00000000000E+00  0.10186580912E+04  0.10186580912E+04  0.00000000000E+00 0.  1.
         21   -1    0    0  501  502 -0.00000000000E+00 -0.00000000000E+00 -0.49272354648E+02  0.49272354648E+02  0.00000000000E+00 0.  1.
      99926    2    1    2    0    0 -0.35527136788E-14 -0.14210854715E-13  0.96938573652E+03  0.10679304458E+04  0.44807000673E+03 0.  0.
      99925    2    3    3    0    0 -0.25498421011E+02 -0.93992320046E+02  0.51120464173E+03  0.58309836207E+03  0.26303761789E+03 0.  0.
         25    1    4    4    0    0 -0.33670883758E+02 -0.82992956789E+02  0.30297668907E+03  0.33979985507E+03  0.12509000000E+03 0.  0.
         25    1    4    4    0    0  0.81724627475E+01 -0.10999363257E+02  0.20822795266E+03  0.24329850700E+03  0.12509000000E+03 0.  0.
         25    1    3    3    0    0  0.25498421011E+02  0.93992320046E+02  0.45818109479E+03  0.48483208375E+03  0.12509000000E+03 0.  0.
<mgrwt>
<rscale>  2 0.44807001E+03</rscale>
<asrwt>0</asrwt>
<pdfrwt beam="1">  1       21 0.14980265E+00 0.44807001E+03</pdfrwt>
<pdfrwt beam="2">  1       21 0.72459351E-02 0.44807001E+03</pdfrwt>
<totfact> 0.38675905E+04</totfact>
</mgrwt>
</event>
<event>
 7    0  0.4831799E-002  0.4374965E+03  0.7546771E-02  0.1031518E+00
         21   -1    0    0  502  501  0.00000000000E+00  0.00000000000E+00  0.16391490382E+03  0.16391490382E+03  0.00000000000E+00 0. -1.
         21   -1    0    0  501  502 -0.00000000000E+00 -0.00000000000E+00 -0.29192464567E+03  0.29192464567E+03  0.00000000000E+00 0. -1.
      99926    2    1    2    0    0  0.00000000000E+00  0.00000000000E+00 -0.12800974185E+03  0.45583954949E+03  0.43749651526E+03 0.  0.
      99925    2    3    3    0    0 -0.81941767416E+02 -0.97599078285E+01 -0.30075965480E+02  0.27681932241E+03  0.26251602715E+03 0.  0.
         25    1    4    4    0    0 -0.38176104023E+02  0.20896699663E+02  0.15531427765E+02  0.13335224154E+03  0.12509000000E+03 0.  0.
         25    1    4    4    0    0 -0.43765663393E+02 -0.30656607491E+02 -0.45607393245E+02  0.14346708087E+03  0.12509000000E+03 0.  0.
         25    1    3    3    0    0  0.81941767416E+02  0.97599078285E+01 -0.97933776374E+02  0.17902022708E+03  0.12509000000E+03 0.  0.
<mgrwt>
<rscale>  2 0.43749652E+03</rscale>
<asrwt>0</asrwt>
<pdfrwt beam="1">  1       21 0.24105133E-01 0.43749652E+03</pdfrwt>
<pdfrwt beam="2">  1       21 0.42930095E-01 0.43749652E+03</pdfrwt>
<totfact> 0.78903505E+04</totfact>
</mgrwt>
</event>
<event>
 7    0  0.4831799E-002  0.4371858E+03  0.7546771E-02  0.1031614E+00
         21   -1    0    0  502  501  0.00000000000E+00  0.00000000000E+00  0.30014722347E+03  0.30014722347E+03  0.00000000000E+00 0. -1.
         21   -1    0    0  501  502 -0.00000000000E+00 -0.00000000000E+00 -0.15919808687E+03  0.15919808687E+03  0.00000000000E+00 0. -1.
      99926    2    1    2    0    0  0.00000000000E+00  0.00000000000E+00  0.14094913660E+03  0.45934531034E+03  0.43718583580E+03 0.  0.
      99925    2    3    3    0    0  0.33161401863E+02  0.83929564128E+02  0.12341563481E+03  0.30410748604E+03  0.26288037934E+03 0.  0.
         25    1    4    4    0    0  0.39594754446E+02  0.20489778336E+02  0.87989685090E+02  0.15930244310E+03  0.12509000000E+03 0.  0.
         25    1    3    3    0    0 -0.33161401863E+02 -0.83929564128E+02  0.17533501799E+02  0.15523782430E+03  0.12509000000E+03 0.  0.
         25    1    4    4    0    0 -0.64333525823E+01  0.63439785792E+02  0.35425949716E+02  0.14480504294E+03  0.12509000000E+03 0.  0.
<mgrwt>
<rscale>  2 0.43718584E+03</rscale>
<asrwt>0</asrwt>
<pdfrwt beam="1">  1       21 0.44139298E-01 0.43718584E+03</pdfrwt>
<pdfrwt beam="2">  1       21 0.23411483E-01 0.43718584E+03</pdfrwt>
<totfact> 0.78798393E+04</totfact>
</mgrwt>
</event>
<event>
 7    0  0.4831799E-002  0.4526945E+03  0.7546771E-02  0.1026922E+00
         21   -1    0    0  502  501  0.00000000000E+00  0.00000000000E+00  0.12277552154E+03  0.12277552154E+03  0.00000000000E+00 0.  1.
         21   -1    0    0  501  502 -0.00000000000E+00 -0.00000000000E+00 -0.41729059620E+03  0.41729059620E+03  0.00000000000E+00 0.  1.
      99926    2    1    2    0    0  0.00000000000E+00  0.00000000000E+00 -0.29451507465E+03  0.54006611774E+03  0.45269446908E+03 0.  0.
      99925    2    3    3    0    0  0.81258616303E+01 -0.10737385842E+03 -0.15271623834E+03  0.32246650106E+03  0.26280643020E+03 0.  0.
         25    1    4    4    0    0 -0.14743190157E+02 -0.74937364346E+02 -0.46894750795E+02  0.15388175975E+03  0.12509000000E+03 0.  0.
         25    1    4    4    0    0  0.22869051788E+02 -0.32436494075E+02 -0.10582148754E+03  0.16858474131E+03  0.12509000000E+03 0.  0.
         25    1    3    3    0    0 -0.81258616303E+01  0.10737385842E+03 -0.14179883631E+03  0.21759961668E+03  0.12509000000E+03 0.  0.
<mgrwt>
<rscale>  2 0.45269447E+03</rscale>
<asrwt>0</asrwt>
<pdfrwt beam="1">  1       21 0.18055224E-01 0.45269447E+03</pdfrwt>
<pdfrwt beam="2">  1       21 0.61366264E-01 0.45269447E+03</pdfrwt>
<totfact> 0.63681750E+04</totfact>
</mgrwt>
</event>
<event>
 7    0  0.4831799E-002  0.4572876E+03  0.7546771E-02  0.1025571E+00
         21   -1    0    0  502  501  0.00000000000E+00  0.00000000000E+00  0.41560376339E+03  0.41560376339E+03  0.00000000000E+00 0.  1.
         21   -1    0    0  501  502 -0.00000000000E+00 -0.00000000000E+00 -0.12578805427E+03  0.12578805427E+03  0.00000000000E+00 0.  1.
      99926    2    1    2    0    0 -0.17763568394E-14  0.00000000000E+00  0.28981570912E+03  0.54139181766E+03  0.45728760640E+03 0.  0.
      99925    2    3    3    0    0  0.86468497748E+01  0.70470190918E+02  0.28996474877E+03  0.39755737765E+03  0.26254808546E+03 0.  0.
         25    1    4    4    0    0 -0.29495329823E+02  0.14030897193E+02  0.14665041686E+03  0.19550113407E+03  0.12509000000E+03 0.  0.
         25    1    4    4    0    0  0.38142179598E+02  0.56439293726E+02  0.14331433190E+03  0.20205624358E+03  0.12509000000E+03 0.  0.
         25    1    3    3    0    0 -0.86468497748E+01 -0.70470190918E+02 -0.14903964114E+00  0.14383444001E+03  0.12509000000E+03 0.  0.
<mgrwt>
<rscale>  2 0.45728761E+03</rscale>
<asrwt>0</asrwt>
<pdfrwt beam="1">  1       21 0.61118200E-01 0.45728761E+03</pdfrwt>
<pdfrwt beam="2">  1       21 0.18498243E-01 0.45728761E+03</pdfrwt>
<totfact> 0.61321271E+04</totfact>
</mgrwt>
</event>
<event>
 7    0  0.4831799E-002  0.4549851E+03  0.7546771E-02  0.1026246E+00
         21   -1    0    0  502  501  0.00000000000E+00  0.00000000000E+00  0.53728598607E+02  0.53728598607E+02  0.00000000000E+00 0. -1.
         21   -1    0    0  501  502 -0.00000000000E+00 -0.00000000000E+00 -0.96322739212E+03  0.96322739212E+03  0.00000000000E+00 0. -1.
      99926    2    1    2    0    0  0.00000000000E+00  0.00000000000E+00 -0.90949879352E+03  0.10169559907E+04  0.45498508951E+03 0.  0.
      99925    2    3    3    0    0 -0.10830155909E+03 -0.30740114543E+02 -0.54675949065E+03  0.61707914433E+03  0.26299533724E+03 0.  0.
         25    1    3    3    0    0  0.10830155909E+03  0.30740114543E+02 -0.36273930287E+03  0.39987684640E+03  0.12509000000E+03 0.  0.
         25    1    4    4    0    0 -0.47937266016E+02  0.24543415313E+02 -0.27690647546E+03  0.30858558774E+03  0.12509000000E+03 0.  0.
         25    1    4    4    0    0 -0.60364293070E+02 -0.55283529856E+02 -0.26985301519E+03  0.30849355659E+03  0.12509000000E+03 0.  0.
<mgrwt>
<rscale>  2 0.45498509E+03</rscale>
<asrwt>0</asrwt>
<pdfrwt beam="1">  1       21 0.79012652E-02 0.45498509E+03</pdfrwt>
<pdfrwt beam="2">  1       21 0.14165107E+00 0.45498509E+03</pdfrwt>
<totfact> 0.38518163E+04</totfact>
</mgrwt>
</event>
<event>
 7    0  0.4831799E-002  0.4104409E+03  0.7546771E-02  0.1040223E+00
         21   -1    0    0  502  501  0.00000000000E+00  0.00000000000E+00  0.79319640122E+03  0.79319640122E+03  0.00000000000E+00 0. -1.
         21   -1    0    0  501  502 -0.00000000000E+00 -0.00000000000E+00 -0.53095832568E+02  0.53095832568E+02  0.00000000000E+00 0. -1.
      99926    2    1    2    0    0  0.00000000000E+00  0.00000000000E+00  0.74010056866E+03  0.84629223379E+03  0.41044085232E+03 0.  0.
      99925    2    3    3    0    0 -0.13351768263E+02  0.58873310573E+02  0.44992850941E+03  0.52459102384E+03  0.26289873013E+03 0.  0.
         25    1    4    4    0    0 -0.75889337704E+01  0.65261236425E+02  0.27741478480E+03  0.31132473692E+03  0.12509000000E+03 0.  0.
         25    1    3    3    0    0  0.13351768263E+02 -0.58873310573E+02  0.29017205925E+03  0.32170120995E+03  0.12509000000E+03 0.  0.
         25    1    4    4    0    0 -0.57628344928E+01 -0.63879258514E+01  0.17251372461E+03  0.21326628692E+03  0.12509000000E+03 0.  0.
<mgrwt>
<rscale>  2 0.41044085E+03</rscale>
<asrwt>0</asrwt>
<pdfrwt beam="1">  1       21 0.11664652E+00 0.41044085E+03</pdfrwt>
<pdfrwt beam="2">  1       21 0.78082111E-02 0.41044085E+03</pdfrwt>
<totfact> 0.65738850E+04</totfact>
</mgrwt>
</event>
<event>
 7    0  0.4831799E-002  0.4603081E+03  0.7546771E-02  0.1024692E+00
         21   -1    0    0  502  501  0.00000000000E+00  0.00000000000E+00  0.33151713654E+03  0.33151713654E+03  0.00000000000E+00 0. -1.
         21   -1    0    0  501  502 -0.00000000000E+00 -0.00000000000E+00 -0.15978328783E+03  0.15978328783E+03  0.00000000000E+00 0. -1.
      99926    2    1    2    0    0  0.14210854715E-13 -0.71054273576E-14  0.17173384871E+03  0.49130042437E+03  0.46030814917E+03 0.  0.
      99925    2    3    3    0    0 -0.92925850332E+02  0.43484562262E+02  0.45192075688E+02  0.28590702322E+03  0.26301023062E+03 0.  0.
         25    1    4    4    0    0 -0.57845270258E+02  0.49490813281E+02 -0.49585205286E+01  0.14651795425E+03  0.12509000000E+03 0.  0.
         25    1    3    3    0    0  0.92925850332E+02 -0.43484562262E+02  0.12654177302E+03  0.20539340114E+03  0.12509000000E+03 0.  0.
         25    1    4    4    0    0 -0.35080580074E+02 -0.60062510187E+01  0.50150596217E+02  0.13938906898E+03  0.12509000000E+03 0.  0.
<mgrwt>
<rscale>  2 0.46030815E+03</rscale>
<asrwt>0</asrwt>
<pdfrwt beam="1">  1       21 0.48752520E-01 0.46030815E+03</pdfrwt>
<pdfrwt beam="2">  1       21 0.23497542E-01 0.46030815E+03</pdfrwt>
<totfact> 0.63181564E+04</totfact>
</mgrwt>
</event>
<event>
 7    0  0.4831799E-002  0.4564028E+03  0.7546771E-02  0.1025830E+00
         21   -1    0    0  502  501  0.00000000000E+00  0.00000000000E+00  0.91512846243E+02  0.91512846243E+02  0.00000000000E+00 0. -1.
         21   -1    0    0  501  502 -0.00000000000E+00 -0.00000000000E+00 -0.56905534385E+03  0.56905534385E+03  0.00000000000E+00 0. -1.
      99926    2    1    2    0    0  0.35527136788E-14 -0.14210854715E-13 -0.47754249761E+03  0.66056819010E+03  0.45640277907E+03 0.  0.
      99925    2    3    3    0    0  0.15768845723E+02 -0.92028793468E+02 -0.39601169932E+03  0.48446386167E+03  0.26298671437E+03 0.  0.
         25    1    4    4    0    0  0.25202870695E+02 -0.34429799166E+02 -0.25453297434E+03  0.28680156710E+03  0.12509000000E+03 0.  0.
         25    1    3    3    0    0 -0.15768845723E+02  0.92028793468E+02 -0.81530798288E+02  0.17610432843E+03  0.12509000000E+03 0.  0.
         25    1    4    4    0    0 -0.94340249723E+01 -0.57598994303E+02 -0.14147872498E+03  0.19766229457E+03  0.12509000000E+03 0.  0.
<mgrwt>
<rscale>  2 0.45640278E+03</rscale>
<asrwt>0</asrwt>
<pdfrwt beam="1">  1       21 0.13457771E-01 0.45640278E+03</pdfrwt>
<pdfrwt beam="2">  1       21 0.83684612E-01 0.45640278E+03</pdfrwt>
<totfact> 0.54490980E+04</totfact>
</mgrwt>
</event>
<event>
 7    0  0.4831799E-002  0.4141714E+03  0.7546771E-02  0.1038980E+00
         21   -1    0    0  502  501  0.00000000000E+00  0.00000000000E+00  0.65484447744E+02  0.65484447744E+02  0.00000000000E+00 0. -1.
         21   -1    0    0  501  502 -0.00000000000E+00 -0.00000000000E+00 -0.65488059492E+03  0.65488059492E+03  0.00000000000E+00 0. -1.
      99926    2    1    2    0    0  0.00000000000E+00  0.00000000000E+00 -0.58939614718E+03  0.72036504266E+03  0.41417143357E+03 0.  0.
      99925    2    3    3    0    0 -0.51452382107E+02 -0.39300763546E+02 -0.34935609321E+03  0.44205113132E+03  0.26299738629E+03 0.  0.
         25    1    4    4    0    0 -0.21122472439E+02  0.14113239638E+02 -0.13013680840E+03  0.18228669556E+03  0.12509000000E+03 0.  0.
         25    1    4    4    0    0 -0.30329909668E+02 -0.53414003184E+02 -0.21921928480E+03  0.25976443576E+03  0.12509000000E+03 0.  0.
         25    1    3    3    0    0  0.51452382107E+02  0.39300763546E+02 -0.24004005397E+03  0.27831391135E+03  0.12509000000E+03 0.  0.
<mgrwt>
<rscale>  2 0.41417143E+03</rscale>
<asrwt>0</asrwt>
<pdfrwt beam="1">  1       21 0.96300662E-02 0.41417143E+03</pdfrwt>
<pdfrwt beam="2">  1       21 0.96305966E-01 0.41417143E+03</pdfrwt>
<totfact> 0.72411588E+04</totfact>
</mgrwt>
</event>
<event>
 7    0  0.4831799E-002  0.4419263E+03  0.7546771E-02  0.1030157E+00
         21   -1    0    0  502  501  0.00000000000E+00  0.00000000000E+00  0.49659153902E+03  0.49659153902E+03  0.00000000000E+00 0. -1.
         21   -1    0    0  501  502 -0.00000000000E+00 -0.00000000000E+00 -0.98319659547E+02  0.98319659547E+02  0.00000000000E+00 0. -1.
      99926    2    1    2    0    0  0.00000000000E+00  0.00000000000E+00  0.39827187948E+03  0.59491119857E+03  0.44192628820E+03 0.  0.
      99925    2    3    3    0    0 -0.88155977356E+02  0.46284103364E+02  0.27223020402E+03  0.39132410021E+03  0.26289080025E+03 0.  0.
         25    1    4    4    0    0 -0.77586836324E+02  0.53332466742E+01  0.12153925933E+03  0.19096455260E+03  0.12509000000E+03 0.  0.
         25    1    4    4    0    0 -0.10569141032E+02  0.40950856690E+02  0.15069094469E+03  0.20035954761E+03  0.12509000000E+03 0.  0.
         25    1    3    3    0    0  0.88155977356E+02 -0.46284103364E+02  0.12604167546E+03  0.20358709836E+03  0.12509000000E+03 0.  0.
<mgrwt>
<rscale>  2 0.44192629E+03</rscale>
<asrwt>0</asrwt>
<pdfrwt beam="1">  1       21 0.73028167E-01 0.44192629E+03</pdfrwt>
<pdfrwt beam="2">  1       21 0.14458774E-01 0.44192629E+03</pdfrwt>
<totfact> 0.65501675E+04</totfact>
</mgrwt>
</event>
<event>
 7    0  0.4831799E-002  0.4540772E+03  0.7546771E-02  0.1026513E+00
         21   -1    0    0  502  501  0.00000000000E+00  0.00000000000E+00  0.87146995925E+02  0.87146995925E+02  0.00000000000E+00 0.  1.
         21   -1    0    0  501  502 -0.00000000000E+00 -0.00000000000E+00 -0.59148951901E+03  0.59148951901E+03  0.00000000000E+00 0.  1.
      99926    2    1    2    0    0  0.00000000000E+00  0.00000000000E+00 -0.50434252308E+03  0.67863651493E+03  0.45407723882E+03 0.  0.
      99925    2    3    3    0    0 -0.38395032389E+02  0.98098246681E+02 -0.37610011128E+03  0.47081190427E+03  0.26289752943E+03 0.  0.
         25    1    4    4    0    0 -0.36667652486E+02  0.49225102543E+02 -0.25194520778E+03  0.28790888017E+03  0.12509000000E+03 0.  0.
         25    1    4    4    0    0 -0.17273799030E+01  0.48873144138E+02 -0.12415490351E+03  0.18290302410E+03  0.12509000000E+03 0.  0.
         25    1    3    3    0    0  0.38395032389E+02 -0.98098246681E+02 -0.12824241180E+03  0.20782461066E+03  0.12509000000E+03 0.  0.
<mgrwt>
<rscale>  2 0.45407724E+03</rscale>
<asrwt>0</asrwt>
<pdfrwt beam="1">  1       21 0.12815735E-01 0.45407724E+03</pdfrwt>
<pdfrwt beam="2">  1       21 0.86983748E-01 0.45407724E+03</pdfrwt>
<totfact> 0.54473505E+04</totfact>
</mgrwt>
</event>
<event>
 7    0  0.4831799E-002  0.4545261E+03  0.7546771E-02  0.1026381E+00
         21   -1    0    0  502  501  0.00000000000E+00  0.00000000000E+00  0.29230977859E+03  0.29230977859E+03  0.00000000000E+00 0.  1.
         21   -1    0    0  501  502 -0.00000000000E+00 -0.00000000000E+00 -0.17669092582E+03  0.17669092582E+03  0.00000000000E+00 0.  1.
      99926    2    1    2    0    0  0.00000000000E+00  0.00000000000E+00  0.11561885278E+03  0.46900070441E+03  0.45452606264E+03 0.  0.
      99925    2    3    3    0    0 -0.10265983011E+03  0.40921267997E+02  0.50540979481E+02  0.28984650104E+03  0.26314067087E+03 0.  0.
         25    1    3    3    0    0  0.10265983011E+03 -0.40921267997E+02  0.65077873296E+02  0.17915420337E+03  0.12509000000E+03 0.  0.
         25    1    4    4    0    0 -0.35825818481E+02  0.35207257778E+02 -0.10776670895E+02  0.13522826999E+03  0.12509000000E+03 0.  0.
         25    1    4    4    0    0 -0.66834011629E+02  0.57140102188E+01  0.61317650376E+02  0.15461823104E+03  0.12509000000E+03 0.  0.
<mgrwt>
<rscale>  2 0.45452606E+03</rscale>
<asrwt>0</asrwt>
<pdfrwt beam="1">  1       21 0.42986732E-01 0.45452606E+03</pdfrwt>
<pdfrwt beam="2">  1       21 0.25983960E-01 0.45452606E+03</pdfrwt>
<totfact> 0.67764542E+04</totfact>
</mgrwt>
</event>
<event>
 7    0  0.4831799E-002  0.4440458E+03  0.7546771E-02  0.1029513E+00
         21   -1    0    0  502  501  0.00000000000E+00  0.00000000000E+00  0.49108107515E+03  0.49108107515E+03  0.00000000000E+00 0. -1.
         21   -1    0    0  501  502 -0.00000000000E+00 -0.00000000000E+00 -0.10037886217E+03  0.10037886217E+03  0.00000000000E+00 0. -1.
      99926    2    1    2    0    0  0.00000000000E+00  0.00000000000E+00  0.39070221298E+03  0.59145993733E+03  0.44404576142E+03 0.  0.
      99925    2    3    3    0    0  0.61464997047E+02  0.82176117920E+02  0.24820884289E+03  0.37586140106E+03  0.26293212604E+03 0.  0.
         25    1    4    4    0    0  0.24940706362E+02  0.46014516224E+02  0.71356781445E+02  0.15322752003E+03  0.12509000000E+03 0.  0.
         25    1    4    4    0    0  0.36524290684E+02  0.36161601696E+02  0.17685206144E+03  0.22263388103E+03  0.12509000000E+03 0.  0.
         25    1    3    3    0    0 -0.61464997047E+02 -0.82176117920E+02  0.14249337009E+03  0.21559853626E+03  0.12509000000E+03 0.  0.
<mgrwt>
<rscale>  2 0.44404576E+03</rscale>
<asrwt>0</asrwt>
<pdfrwt beam="1">  1       21 0.72217804E-01 0.44404576E+03</pdfrwt>
<pdfrwt beam="2">  1       21 0.14761598E-01 0.44404576E+03</pdfrwt>
<totfact> 0.64622279E+04</totfact>
</mgrwt>
</event>
<event>
 7    0  0.4831799E-002  0.4560546E+03  0.7546771E-02  0.1025932E+00
         21   -1    0    0  502  501  0.00000000000E+00  0.00000000000E+00  0.93541304567E+02  0.93541304567E+02  0.00000000000E+00 0.  1.
         21   -1    0    0  501  502 -0.00000000000E+00 -0.00000000000E+00 -0.55586623529E+03  0.55586623529E+03  0.00000000000E+00 0.  1.
      99926    2    1    2    0    0 -0.14210854715E-13 -0.17763568394E-14 -0.46232493072E+03  0.64940753985E+03  0.45605461433E+03 0.  0.
      99925    2    3    3    0    0 -0.11367987242E+03  0.82153927022E+01 -0.27644026893E+03  0.39802889785E+03  0.26271120106E+03 0.  0.
         25    1    4    4    0    0 -0.39654590850E+02 -0.32579127057E+02 -0.13791199894E+03  0.19313496226E+03  0.12509000000E+03 0.  0.
         25    1    3    3    0    0  0.11367987242E+03 -0.82153927022E+01 -0.18588466179E+03  0.25137864201E+03  0.12509000000E+03 0.  0.
         25    1    4    4    0    0 -0.74025281565E+02  0.40794519759E+02 -0.13852827000E+03  0.20489393559E+03  0.12509000000E+03 0.  0.
<mgrwt>
<rscale>  2 0.45605461E+03</rscale>
<asrwt>0</asrwt>
<pdfrwt beam="1">  1       21 0.13756075E-01 0.45605461E+03</pdfrwt>
<pdfrwt beam="2">  1       21 0.81745030E-01 0.45605461E+03</pdfrwt>
<totfact> 0.55274313E+04</totfact>
</mgrwt>
</event>
<event>
 7    0  0.4831799E-002  0.4533795E+03  0.7546771E-02  0.1026719E+00
         21   -1    0    0  502  501  0.00000000000E+00  0.00000000000E+00  0.13787649184E+03  0.13787649184E+03  0.00000000000E+00 0.  1.
         21   -1    0    0  501  502 -0.00000000000E+00 -0.00000000000E+00 -0.37271217463E+03  0.37271217463E+03  0.00000000000E+00 0.  1.
      99926    2    1    2    0    0  0.71054273576E-14 -0.14210854715E-13 -0.23483568278E+03  0.51058866647E+03  0.45337951919E+03 0.  0.
      99925    2    3    3    0    0  0.48060811431E+02 -0.77062765785E+02 -0.22035288252E+03  0.35532833326E+03  0.26354187545E+03 0.  0.
         25    1    4    4    0    0  0.35099339375E+02 -0.93817945231E+00 -0.12371644784E+03  0.17940488113E+03  0.12509000000E+03 0.  0.
         25    1    3    3    0    0 -0.48060811431E+02  0.77062765785E+02 -0.14482800260E+02  0.15526033321E+03  0.12509000000E+03 0.  0.
         25    1    4    4    0    0  0.12961472056E+02 -0.76124586333E+02 -0.96636434679E+02  0.17592345213E+03  0.12509000000E+03 0.  0.
<mgrwt>
<rscale>  2 0.45337952E+03</rscale>
<asrwt>0</asrwt>
<pdfrwt beam="1">  1       21 0.20275955E-01 0.45337952E+03</pdfrwt>
<pdfrwt beam="2">  1       21 0.54810613E-01 0.45337952E+03</pdfrwt>
<totfact> 0.65369614E+04</totfact>
</mgrwt>
</event>
<event>
 7    0  0.4831799E-002  0.4584539E+03  0.7546771E-02  0.1025231E+00
         21   -1    0    0  502  501  0.00000000000E+00  0.00000000000E+00  0.47145408461E+02  0.47145408461E+02  0.00000000000E+00 0.  1.
         21   -1    0    0  501  502 -0.00000000000E+00 -0.00000000000E+00 -0.11145305916E+04  0.11145305916E+04  0.00000000000E+00 0.  1.
      99926    2    1    2    0    0  0.00000000000E+00  0.00000000000E+00 -0.10673851831E+04  0.11616760000E+04  0.45845392345E+03 0.  0.
      99925    2    3    3    0    0 -0.69034539956E+02  0.37658253211E+02 -0.88703971604E+03  0.92853246627E+03  0.26296230024E+03 0.  0.
         25    1    4    4    0    0 -0.15238766274E+02 -0.49934179402E+01 -0.51094697453E+03  0.52628079302E+03  0.12509000000E+03 0.  0.
         25    1    4    4    0    0 -0.53795773683E+02  0.42651671151E+02 -0.37609274151E+03  0.40225167325E+03  0.12509000000E+03 0.  0.
         25    1    3    3    0    0  0.69034539956E+02 -0.37658253211E+02 -0.18034546708E+03  0.23314353377E+03  0.12509000000E+03 0.  0.
<mgrwt>
<rscale>  2 0.45845392E+03</rscale>
<asrwt>0</asrwt>
<pdfrwt beam="1">  1       21 0.69331475E-02 0.45845392E+03</pdfrwt>
<pdfrwt beam="2">  1       21 0.16390158E+00 0.45845392E+03</pdfrwt>
<totfact> 0.32510997E+04</totfact>
</mgrwt>
</event>
<event>
 7    0  0.4831799E-002  0.4448922E+03  0.7546771E-02  0.1029256E+00
         21   -1    0    0  502  501  0.00000000000E+00  0.00000000000E+00  0.11242649880E+03  0.11242649880E+03  0.00000000000E+00 0. -1.
         21   -1    0    0  501  502 -0.00000000000E+00 -0.00000000000E+00 -0.44013002686E+03  0.44013002686E+03  0.00000000000E+00 0. -1.
      99926    2    1    2    0    0  0.14210854715E-13  0.00000000000E+00 -0.32770352806E+03  0.55255652566E+03  0.44489224734E+03 0.  0.
      99925    2    3    3    0    0 -0.77960954723E+02 -0.21252402554E+02 -0.12801644161E+03  0.30345410561E+03  0.26299545589E+03 0.  0.
         25    1    3    3    0    0  0.77960954723E+02  0.21252402554E+02 -0.19968708646E+03  0.24910242005E+03  0.12509000000E+03 0.  0.
         25    1    4    4    0    0 -0.18980787799E+02 -0.40475551664E+02 -0.83500767418E+02  0.15690260306E+03  0.12509000000E+03 0.  0.
         25    1    4    4    0    0 -0.58980166923E+02  0.19223149109E+02 -0.44515674187E+02  0.14655150255E+03  0.12509000000E+03 0.  0.
<mgrwt>
<rscale>  2 0.44489225E+03</rscale>
<asrwt>0</asrwt>
<pdfrwt beam="1">  1       21 0.16533309E-01 0.44489225E+03</pdfrwt>
<pdfrwt beam="2">  1       21 0.64725003E-01 0.44489225E+03</pdfrwt>
<totfact> 0.66888294E+04</totfact>
</mgrwt>
</event>
<event>
 7    0  0.4831799E-002  0.4537025E+03  0.7546771E-02  0.1026624E+00
         21   -1    0    0  502  501  0.00000000000E+00  0.00000000000E+00  0.49042251487E+03  0.49042251487E+03  0.00000000000E+00 0.  1.
         21   -1    0    0  501  502 -0.00000000000E+00 -0.00000000000E+00 -0.10493294929E+03  0.10493294929E+03  0.00000000000E+00 0.  1.
      99926    2    1    2    0    0  0.00000000000E+00 -0.71054273576E-14  0.38548956559E+03  0.59535546416E+03  0.45370246145E+03 0.  0.
      99925    2    3    3    0    0 -0.74966219437E+02  0.50882385987E+02  0.15622239573E+03  0.31891397933E+03  0.26285307307E+03 0.  0.
         25    1    4    4    0    0 -0.48044877761E+02  0.44916605758E+02  0.12104456546E+03  0.18607822731E+03  0.12509000000E+03 0.  0.
         25    1    3    3    0    0  0.74966219437E+02 -0.50882385987E+02  0.22926716986E+03  0.27644148483E+03  0.12509000000E+03 0.  0.
         25    1    4    4    0    0 -0.26921341676E+02  0.59657802292E+01  0.35177830267E+02  0.13283575202E+03  0.12509000000E+03 0.  0.
<mgrwt>
<rscale>  2 0.45370246E+03</rscale>
<asrwt>0</asrwt>
<pdfrwt beam="1">  1       21 0.72120957E-01 0.45370246E+03</pdfrwt>
<pdfrwt beam="2">  1       21 0.15431316E-01 0.45370246E+03</pdfrwt>
<totfact> 0.59573556E+04</totfact>
</mgrwt>
</event>
<event>
 7    0  0.4831799E-002  0.4567946E+03  0.7546771E-02  0.1025715E+00
         21   -1    0    0  502  501  0.00000000000E+00  0.00000000000E+00  0.22777983807E+03  0.22777983807E+03  0.00000000000E+00 0.  1.
         21   -1    0    0  501  502 -0.00000000000E+00 -0.00000000000E+00 -0.22901642192E+03  0.22901642192E+03  0.00000000000E+00 0.  1.
      99926    2    1    2    0    0 -0.17763568394E-14  0.00000000000E+00 -0.12365838487E+01  0.45679625999E+03  0.45679458622E+03 0.  0.
      99925    2    3    3    0    0 -0.92479773210E+01  0.11263540426E+03  0.19329153880E+02  0.28696482284E+03  0.26306450535E+03 0.  0.
         25    1    4    4    0    0 -0.17649151367E+02  0.59725116180E+02  0.48277432560E+02  0.14784045671E+03  0.12509000000E+03 0.  0.
         25    1    4    4    0    0  0.84011740455E+01  0.52910288081E+02 -0.28948278680E+02  0.13912436612E+03  0.12509000000E+03 0.  0.
         25    1    3    3    0    0  0.92479773210E+01 -0.11263540426E+03 -0.20565737729E+02  0.16983143715E+03  0.12509000000E+03 0.  0.
<mgrwt>
<rscale>  2 0.45679459E+03</rscale>
<asrwt>0</asrwt>
<pdfrwt beam="1">  1       21 0.33497035E-01 0.45679459E+03</pdfrwt>
<pdfrwt beam="2">  1       21 0.33678885E-01 0.45679459E+03</pdfrwt>
<totfact> 0.67443492E+04</totfact>
</mgrwt>
</event>
<event>
 7    0  0.4831799E-002  0.4505993E+03  0.7546771E-02  0.1027543E+00
         21   -1    0    0  502  501  0.00000000000E+00  0.00000000000E+00  0.12213587186E+03  0.12213587186E+03  0.00000000000E+00 0.  1.
         21   -1    0    0  501  502 -0.00000000000E+00 -0.00000000000E+00 -0.41560216050E+03  0.41560216050E+03  0.00000000000E+00 0.  1.
      99926    2    1    2    0    0 -0.13322676296E-14  0.00000000000E+00 -0.29346628864E+03  0.53773803236E+03  0.45059929968E+03 0.  0.
      99925    2    3    3    0    0  0.24218545685E+01 -0.31889764497E+02 -0.30975382388E+03  0.40760112613E+03  0.26299890523E+03 0.  0.
         25    1    3    3    0    0 -0.24218545685E+01  0.31889764497E+02  0.16287535238E+02  0.13013690623E+03  0.12509000000E+03 0.  0.
         25    1    4    4    0    0 -0.12520076373E+02  0.10687986736E+02 -0.10862913820E+03  0.16648958868E+03  0.12509000000E+03 0.  0.
         25    1    4    4    0    0  0.14941930941E+02 -0.42577751234E+02 -0.20112468568E+03  0.24111153745E+03  0.12509000000E+03 0.  0.
<mgrwt>
<rscale>  2 0.45059930E+03</rscale>
<asrwt>0</asrwt>
<pdfrwt beam="1">  1       21 0.17961158E-01 0.45059930E+03</pdfrwt>
<pdfrwt beam="2">  1       21 0.61117963E-01 0.45059930E+03</pdfrwt>
<totfact> 0.64915683E+04</totfact>
</mgrwt>
</event>
<event>
 7    0  0.4831799E-002  0.4506732E+03  0.7546771E-02  0.1027521E+00
         21   -1    0    0  502  501  0.00000000000E+00  0.00000000000E+00  0.66491311020E+02  0.66491311020E+02  0.00000000000E+00 0. -1.
         21   -1    0    0  501  502 -0.00000000000E+00 -0.00000000000E+00 -0.76365753251E+03  0.76365753251E+03  0.00000000000E+00 0. -1.
      99926    2    1    2    0    0  0.00000000000E+00  0.00000000000E+00 -0.69716622149E+03  0.83014884353E+03  0.45067323199E+03 0.  0.
      99925    2    3    3    0    0  0.61669034906E+02 -0.81593865672E+02 -0.50923653645E+03  0.58230674985E+03  0.26324640944E+03 0.  0.
         25    1    4    4    0    0  0.61311756853E+02 -0.51539048065E+02 -0.32785179736E+03  0.35993015175E+03  0.12509000000E+03 0.  0.
         25    1    3    3    0    0 -0.61669034906E+02  0.81593865672E+02 -0.18792968504E+03  0.24784209368E+03  0.12509000000E+03 0.  0.
         25    1    4    4    0    0  0.35727805354E+00 -0.30054817606E+02 -0.18138473909E+03  0.22237659811E+03  0.12509000000E+03 0.  0.
<mgrwt>
<rscale>  2 0.45067323E+03</rscale>
<asrwt>0</asrwt>
<pdfrwt beam="1">  1       21 0.97781351E-02 0.45067323E+03</pdfrwt>
<pdfrwt beam="2">  1       21 0.11230257E+00 0.45067323E+03</pdfrwt>
<totfact> 0.47947996E+04</totfact>
</mgrwt>
</event>
<event>
 7    0  0.4831799E-002  0.4549303E+03  0.7546771E-02  0.1026262E+00
         21   -1    0    0  502  501  0.00000000000E+00  0.00000000000E+00  0.17145973419E+03  0.17145973419E+03  0.00000000000E+00 0.  1.
         21   -1    0    0  501  502 -0.00000000000E+00 -0.00000000000E+00 -0.30176408256E+03  0.30176408256E+03  0.00000000000E+00 0.  1.
      99926    2    1    2    0    0  0.00000000000E+00  0.00000000000E+00 -0.13030434836E+03  0.47322381675E+03  0.45493027766E+03 0.  0.
      99925    2    3    3    0    0 -0.17956595698E+02 -0.61972974416E+02 -0.17752545046E+03  0.32476362184E+03  0.26418371567E+03 0.  0.
         25    1    3    3    0    0  0.17956595698E+02  0.61972974416E+02  0.47221102102E+02  0.14846019490E+03  0.12509000000E+03 0.  0.
         25    1    4    4    0    0 -0.27615154897E+02 -0.46068196998E+02 -0.49626033077E+02  0.14489695240E+03  0.12509000000E+03 0.  0.
         25    1    4    4    0    0  0.96585591983E+01 -0.15904777418E+02 -0.12789941739E+03  0.17986666945E+03  0.12509000000E+03 0.  0.
<mgrwt>
<rscale>  2 0.45493028E+03</rscale>
<asrwt>0</asrwt>
<pdfrwt beam="1">  1       21 0.25214667E-01 0.45493028E+03</pdfrwt>
<pdfrwt beam="2">  1       21 0.44377070E-01 0.45493028E+03</pdfrwt>
<totfact> 0.67233985E+04</totfact>
</mgrwt>
</event>
<event>
 7    0  0.4831799E-002  0.4721411E+03  0.7546771E-02  0.1021318E+00
         21   -1    0    0  502  501  0.00000000000E+00  0.00000000000E+00  0.17069041757E+03  0.17069041757E+03  0.00000000000E+00 0. -1.
         21   -1    0    0  501  502 -0.00000000000E+00 -0.00000000000E+00 -0.32649346487E+03  0.32649346487E+03  0.00000000000E+00 0. -1.
      99926    2    1    2    0    0  0.00000000000E+00  0.00000000000E+00 -0.15580304729E+03  0.49718388244E+03  0.47214110540E+03 0.  0.
      99925    2    3    3    0    0  0.12501256504E+03 -0.70740965123E+01 -0.12766580501E+03  0.31797061072E+03  0.26292312042E+03 0.  0.
         25    1    4    4    0    0  0.31848858366E+02  0.16742445198E+01 -0.89731441254E+02  0.15721447937E+03  0.12509000000E+03 0.  0.
         25    1    4    4    0    0  0.93163706671E+02 -0.87483410321E+01 -0.37934363761E+02  0.16075613135E+03  0.12509000000E+03 0.  0.
         25    1    3    3    0    0 -0.12501256504E+03  0.70740965123E+01 -0.28137242278E+02  0.17921327172E+03  0.12509000000E+03 0.  0.
<mgrwt>
<rscale>  2 0.47214111E+03</rscale>
<asrwt>0</asrwt>
<pdfrwt beam="1">  1       21 0.25101532E-01 0.47214111E+03</pdfrwt>
<pdfrwt beam="2">  1       21 0.48013744E-01 0.47214111E+03</pdfrwt>
<totfact> 0.57270269E+04</totfact>
</mgrwt>
</event>
<event>
 7    0  0.4831799E-002  0.4529234E+03  0.7546771E-02  0.1026854E+00
         21   -1    0    0  502  501  0.00000000000E+00  0.00000000000E+00  0.12675644995E+04  0.12675644995E+04  0.00000000000E+00 0. -1.
         21   -1    0    0  501  502 -0.00000000000E+00 -0.00000000000E+00 -0.40459403565E+02  0.40459403565E+02  0.00000000000E+00 0. -1.
      99926    2    1    2    0    0  0.17763568394E-14 -0.14210854715E-13  0.12271050960E+04  0.13080239031E+04  0.45292340911E+03 0.  0.
      99925    2    3    3    0    0 -0.98386048158E+01  0.10358321428E+03  0.88674801798E+03  0.93077500772E+03  0.26304711970E+03 0.  0.
         25    1    3    3    0    0  0.98386048158E+01 -0.10358321428E+03  0.34035707799E+03  0.37724889538E+03  0.12509000000E+03 0.  0.
         25    1    4    4    0    0 -0.26787467622E+02  0.26795727130E+02  0.49888749236E+03  0.51572455589E+03  0.12509000000E+03 0.  0.
         25    1    4    4    0    0  0.16948862806E+02  0.76787487147E+02  0.38786052561E+03  0.41505045183E+03  0.12509000000E+03 0.  0.
<mgrwt>
<rscale>  2 0.45292341E+03</rscale>
<asrwt>0</asrwt>
<pdfrwt beam="1">  1       21 0.18640652E+00 0.45292341E+03</pdfrwt>
<pdfrwt beam="2">  1       21 0.59499131E-02 0.45292341E+03</pdfrwt>
<totfact> 0.29353718E+04</totfact>
</mgrwt>
</event>
<event>
 7    0  0.4831799E-002  0.4422079E+03  0.7546771E-02  0.1030072E+00
         21   -1    0    0  502  501  0.00000000000E+00  0.00000000000E+00  0.39447303533E+02  0.39447303533E+02  0.00000000000E+00 0. -1.
         21   -1    0    0  501  502 -0.00000000000E+00 -0.00000000000E+00 -0.12392978193E+04  0.12392978193E+04  0.00000000000E+00 0. -1.
      99926    2    1    2    0    0  0.00000000000E+00  0.00000000000E+00 -0.11998505158E+04  0.12787451229E+04  0.44220790245E+03 0.  0.
      99925    2    3    3    0    0 -0.87235709880E+02  0.22683662192E+02 -0.63477175888E+03  0.69300957910E+03  0.26306362965E+03 0.  0.
         25    1    4    4    0    0 -0.60520691102E+01  0.44381383716E+01 -0.33560469559E+03  0.35823783220E+03  0.12509000000E+03 0.  0.
         25    1    4    4    0    0 -0.81183640770E+02  0.18245523821E+02 -0.29916706328E+03  0.33477174690E+03  0.12509000000E+03 0.  0.
         25    1    3    3    0    0  0.87235709880E+02 -0.22683662192E+02 -0.56507875692E+03  0.58573554377E+03  0.12509000000E+03 0.  0.
<mgrwt>
<rscale>  2 0.44220790E+03</rscale>
<asrwt>0</asrwt>
<pdfrwt beam="1">  1       21 0.58010747E-02 0.44220790E+03</pdfrwt>
<pdfrwt beam="2">  1       21 0.18224966E+00 0.44220790E+03</pdfrwt>
<totfact> 0.32891397E+04</totfact>
</mgrwt>
</event>
<event>
 7    0  0.4831799E-002  0.4539141E+03  0.7546771E-02  0.1026561E+00
         21   -1    0    0  502  501  0.00000000000E+00  0.00000000000E+00  0.93082339877E+02  0.93082339877E+02  0.00000000000E+00 0.  1.
         21   -1    0    0  501  502 -0.00000000000E+00 -0.00000000000E+00 -0.55337570112E+03  0.55337570112E+03  0.00000000000E+00 0.  1.
      99926    2    1    2    0    0 -0.71054273576E-14  0.00000000000E+00 -0.46029336125E+03  0.64645804100E+03  0.45391411122E+03 0.  0.
      99925    2    3    3    0    0  0.57198212627E+02 -0.92375702261E+02 -0.25074851811E+03  0.37932239141E+03  0.26306986030E+03 0.  0.
         25    1    4    4    0    0  0.51590109282E+02 -0.28076254454E+02 -0.16193493602E+03  0.21288552568E+03  0.12509000000E+03 0.  0.
         25    1    4    4    0    0  0.56081033450E+01 -0.64299447807E+02 -0.88813582092E+02  0.16643686573E+03  0.12509000000E+03 0.  0.
         25    1    3    3    0    0 -0.57198212627E+02  0.92375702261E+02 -0.20954484314E+03  0.26713564959E+03  0.12509000000E+03 0.  0.
<mgrwt>
<rscale>  2 0.45391411E+03</rscale>
<asrwt>0</asrwt>
<pdfrwt beam="1">  1       21 0.13688580E-01 0.45391411E+03</pdfrwt>
<pdfrwt beam="2">  1       21 0.81378779E-01 0.45391411E+03</pdfrwt>
<totfact> 0.56387550E+04</totfact>
</mgrwt>
</event>
<event>
 7    0  0.4831799E-002  0.4469679E+03  0.7546771E-02  0.1028630E+00
         21   -1    0    0  502  501  0.00000000000E+00  0.00000000000E+00  0.51229462078E+03  0.51229462078E+03  0.00000000000E+00 0. -1.
         21   -1    0    0  501  502 -0.00000000000E+00 -0.00000000000E+00 -0.97492884872E+02  0.97492884872E+02  0.00000000000E+00 0. -1.
      99926    2    1    2    0    0  0.00000000000E+00 -0.14210854715E-13  0.41480173590E+03  0.60978750565E+03  0.44696792048E+03 0.  0.
      99925    2    3    3    0    0  0.77209355957E+02  0.71769626100E+02  0.26706468004E+03  0.38936538867E+03  0.26300132831E+03 0.  0.
         25    1    4    4    0    0  0.38424986943E+02  0.67503371208E+01  0.86436551469E+02  0.15697398575E+03  0.12509000000E+03 0.  0.
         25    1    4    4    0    0  0.38784369015E+02  0.65019288979E+02  0.18062812857E+03  0.23239140292E+03  0.12509000000E+03 0.  0.
         25    1    3    3    0    0 -0.77209355957E+02 -0.71769626100E+02  0.14773705586E+03  0.22042211698E+03  0.12509000000E+03 0.  0.
<mgrwt>
<rscale>  2 0.44696792E+03</rscale>
<asrwt>0</asrwt>
<pdfrwt beam="1">  1       21 0.75337443E-01 0.44696792E+03</pdfrwt>
<pdfrwt beam="2">  1       21 0.14337189E-01 0.44696792E+03</pdfrwt>
<totfact> 0.61915382E+04</totfact>
</mgrwt>
</event>
<event>
 7    0  0.4831799E-002  0.4588891E+03  0.7546771E-02  0.1025104E+00
         21   -1    0    0  502  501  0.00000000000E+00  0.00000000000E+00  0.37658595686E+03  0.37658595686E+03  0.00000000000E+00 0.  1.
         21   -1    0    0  501  502 -0.00000000000E+00 -0.00000000000E+00 -0.13979489810E+03  0.13979489810E+03  0.00000000000E+00 0.  1.
      99926    2    1    2    0    0  0.71054273576E-14  0.14210854715E-13  0.23679105876E+03  0.51638085496E+03  0.45888907359E+03 0.  0.
      99925    2    3    3    0    0  0.24109277754E+02  0.11213224188E+03  0.12289686448E+03  0.31199325129E+03  0.26283312693E+03 0.  0.
         25    1    4    4    0    0  0.38023300814E+02  0.77902713382E+02  0.39694123434E+02  0.15728234387E+03  0.12509000000E+03 0.  0.
         25    1    4    4    0    0 -0.13914023061E+02  0.34229528493E+02  0.83202741051E+02  0.15471090743E+03  0.12509000000E+03 0.  0.
         25    1    3    3    0    0 -0.24109277754E+02 -0.11213224188E+03  0.11389419427E+03  0.20438760366E+03  0.12509000000E+03 0.  0.
<mgrwt>
<rscale>  2 0.45888907E+03</rscale>
<asrwt>0</asrwt>
<pdfrwt beam="1">  1       21 0.55380288E-01 0.45888907E+03</pdfrwt>
<pdfrwt beam="2">  1       21 0.20558073E-01 0.45888907E+03</pdfrwt>
<totfact> 0.62192906E+04</totfact>
</mgrwt>
</event>
<event>
 7    0  0.4831799E-002  0.4693730E+03  0.7546771E-02  0.1022097E+00
         21   -1    0    0  502  501  0.00000000000E+00  0.00000000000E+00  0.12127163231E+04  0.12127163231E+04  0.00000000000E+00 0. -1.
         21   -1    0    0  501  502 -0.00000000000E+00 -0.00000000000E+00 -0.45416851537E+02  0.45416851537E+02  0.00000000000E+00 0. -1.
      99926    2    1    2    0    0  0.17763568394E-14  0.00000000000E+00  0.11672994716E+04  0.12581331746E+04  0.46937301670E+03 0.  0.
      99925    2    3    3    0    0  0.10604091938E+02  0.11330492841E+03  0.87157614622E+03  0.91747169043E+03  0.26298074172E+03 0.  0.
         25    1    4    4    0    0  0.28003217176E+02  0.85973991312E+02  0.40785637033E+03  0.43608489343E+03  0.12509000000E+03 0.  0.
         25    1    3    3    0    0 -0.10604091938E+02 -0.11330492841E+03  0.29572332534E+03  0.34066148420E+03  0.12509000000E+03 0.  0.
         25    1    4    4    0    0 -0.17399125238E+02  0.27330937101E+02  0.46371977589E+03  0.48138679700E+03  0.12509000000E+03 0.  0.
<mgrwt>
<rscale>  2 0.46937302E+03</rscale>
<asrwt>0</asrwt>
<pdfrwt beam="1">  1       21 0.17834062E+00 0.46937302E+03</pdfrwt>
<pdfrwt beam="2">  1       21 0.66789495E-02 0.46937302E+03</pdfrwt>
<totfact> 0.27184186E+04</totfact>
</mgrwt>
</event>
<event>
 7    0  0.4831799E-002  0.4557081E+03  0.7546771E-02  0.1026033E+00
         21   -1    0    0  502  501  0.00000000000E+00  0.00000000000E+00  0.32154695597E+03  0.32154695597E+03  0.00000000000E+00 0. -1.
         21   -1    0    0  501  502 -0.00000000000E+00 -0.00000000000E+00 -0.16146152085E+03  0.16146152085E+03  0.00000000000E+00 0. -1.
      99926    2    1    2    0    0  0.00000000000E+00  0.00000000000E+00  0.16008543512E+03  0.48300847681E+03  0.45570806679E+03 0.  0.
      99925    2    3    3    0    0 -0.37304011509E+02 -0.27356319827E+02 -0.95274926673E+01  0.26724005725E+03  0.26303330126E+03 0.  0.
         25    1    3    3    0    0  0.37304011509E+02  0.27356319827E+02  0.16961292779E+03  0.21576841957E+03  0.12509000000E+03 0.  0.
         25    1    4    4    0    0 -0.18183324833E+02 -0.46841959003E+02  0.18800227305E+02  0.13610936438E+03  0.12509000000E+03 0.  0.
         25    1    4    4    0    0 -0.19120686676E+02  0.19485639176E+02 -0.28327719973E+02  0.13113069287E+03  0.12509000000E+03 0.  0.
<mgrwt>
<rscale>  2 0.45570807E+03</rscale>
<asrwt>0</asrwt>
<pdfrwt beam="1">  1       21 0.47286317E-01 0.45570807E+03</pdfrwt>
<pdfrwt beam="2">  1       21 0.23744341E-01 0.45570807E+03</pdfrwt>
<totfact> 0.66109392E+04</totfact>
</mgrwt>
</event>
<event>
 6    0  0.4831799E-002  0.4600191E+03  0.7546771E-02  0.1024776E+00
         21   -1    0    0  502  501  0.00000000000E+00  0.00000000000E+00  0.33460313823E+03  0.33460313823E+03  0.00000000000E+00 0. -1.
         21   -1    0    0  501  502 -0.00000000000E+00 -0.00000000000E+00 -0.15811087888E+03  0.15811087888E+03  0.00000000000E+00 0. -1.
      99926    2    1    2    0    0  0.71054273576E-14  0.00000000000E+00  0.17649225935E+03  0.49271401710E+03  0.46001911378E+03 0.  0.
         25    1    3    3    0    0  0.42241567612E+02 -0.10351117462E+02  0.16544944183E+03  0.21192574542E+03  0.12509000000E+03 0.  0.
         25    1    3    3    0    0  0.22671683096E+02  0.20724682545E+02  0.43212710429E+02  0.13586156235E+03  0.12509000000E+03 0.  0.
         25    1    3    3    0    0 -0.64913250708E+02 -0.10373565082E+02 -0.32169892912E+02  0.14492670934E+03  0.12509000000E+03 0.  0.
<mgrwt>
<rscale>  2 0.46001911E+03</rscale>
<asrwt>0</asrwt>
<pdfrwt beam="1">  1       21 0.49206344E-01 0.46001911E+03</pdfrwt>
<pdfrwt beam="2">  1       21 0.23251600E-01 0.46001911E+03</pdfrwt>
<totfact> 0.63228469E+04</totfact>
</mgrwt>
</event>
<event>
 7    0  0.4831799E-002  0.4550429E+03  0.7546771E-02  0.1026229E+00
         21   -1    0    0  502  501  0.00000000000E+00  0.00000000000E+00  0.21686334496E+03  0.21686334496E+03  0.00000000000E+00 0. -1.
         21   -1    0    0  501  502 -0.00000000000E+00 -0.00000000000E+00 -0.23870332213E+03  0.23870332213E+03  0.00000000000E+00 0. -1.
      99926    2    1    2    0    0  0.00000000000E+00  0.00000000000E+00 -0.21839977165E+02  0.45556666709E+03  0.45504285903E+03 0.  0.
      99925    2    3    3    0    0 -0.93163810361E+02 -0.62236227448E+02 -0.29654517104E+02  0.28745533879E+03  0.26305576946E+03 0.  0.
         25    1    3    3    0    0  0.93163810361E+02  0.62236227448E+02  0.78145399381E+01  0.16811132830E+03  0.12509000000E+03 0.  0.
         25    1    4    4    0    0 -0.73187507699E+02 -0.38063180013E+02  0.15903405861E+02  0.15068391876E+03  0.12509000000E+03 0.  0.
         25    1    4    4    0    0 -0.19976302662E+02 -0.24173047434E+02 -0.45557922964E+02  0.13677142002E+03  0.12509000000E+03 0.  0.
<mgrwt>
<rscale>  2 0.45504286E+03</rscale>
<asrwt>0</asrwt>
<pdfrwt beam="1">  1       21 0.31891669E-01 0.45504286E+03</pdfrwt>
<pdfrwt beam="2">  1       21 0.35103429E-01 0.45504286E+03</pdfrwt>
<totfact> 0.68480903E+04</totfact>
</mgrwt>
</event>
<event>
 7    0  0.4831799E-002  0.4550820E+03  0.7546771E-02  0.1026217E+00
         21   -1    0    0  502  501  0.00000000000E+00  0.00000000000E+00  0.23933056244E+03  0.23933056244E+03  0.00000000000E+00 0.  1.
         21   -1    0    0  501  502 -0.00000000000E+00 -0.00000000000E+00 -0.21633223150E+03  0.21633223150E+03  0.00000000000E+00 0.  1.
      99926    2    1    2    0    0  0.17763568394E-14  0.00000000000E+00  0.22998330939E+02  0.45566279394E+03  0.45508203497E+03 0.  0.
      99925    2    3    3    0    0  0.11467048997E+02  0.48366495077E+02  0.11630506522E+03  0.29188103115E+03  0.26305295492E+03 0.  0.
         25    1    3    3    0    0 -0.11467048997E+02 -0.48366495077E+02 -0.93306734281E+02  0.16378176279E+03  0.12509000000E+03 0.  0.
         25    1    4    4    0    0 -0.23282753096E+02 -0.25691977354E+01  0.67991211037E+02  0.14428790749E+03  0.12509000000E+03 0.  0.
         25    1    4    4    0    0  0.34749802093E+02  0.50935692813E+02  0.48313854183E+02  0.14759312367E+03  0.12509000000E+03 0.  0.
<mgrwt>
<rscale>  2 0.45508203E+03</rscale>
<asrwt>0</asrwt>
<pdfrwt beam="1">  1       21 0.35195671E-01 0.45508203E+03</pdfrwt>
<pdfrwt beam="2">  1       21 0.31813563E-01 0.45508203E+03</pdfrwt>
<totfact> 0.68452476E+04</totfact>
</mgrwt>
</event>
<event>
 7    0  0.4831799E-002  0.4673355E+03  0.7546771E-02  0.1022675E+00
         21   -1    0    0  502  501  0.00000000000E+00  0.00000000000E+00  0.63320279441E+02  0.63320279441E+02  0.00000000000E+00 0. -1.
         21   -1    0    0  501  502 -0.00000000000E+00 -0.00000000000E+00 -0.86229266855E+03  0.86229266855E+03  0.00000000000E+00 0. -1.
      99926    2    1    2    0    0  0.00000000000E+00  0.00000000000E+00 -0.79897238911E+03  0.92561294799E+03  0.46733548007E+03 0.  0.
      99925    2    3    3    0    0  0.10184081079E+03  0.31242713426E+02 -0.36925215694E+03  0.46555355626E+03  0.26276472452E+03 0.  0.
         25    1    4    4    0    0  0.77917946768E+02  0.33247504332E+02 -0.15604075407E+03  0.21719306619E+03  0.12509000000E+03 0.  0.
         25    1    3    3    0    0 -0.10184081079E+03 -0.31242713426E+02 -0.42972023217E+03  0.46005939173E+03  0.12509000000E+03 0.  0.
         25    1    4    4    0    0  0.23922864027E+02 -0.20047909060E+01 -0.21321140288E+03  0.24836049007E+03  0.12509000000E+03 0.  0.
<mgrwt>
<rscale>  2 0.46733548E+03</rscale>
<asrwt>0</asrwt>
<pdfrwt beam="1">  1       21 0.93118056E-02 0.46733548E+03</pdfrwt>
<pdfrwt beam="2">  1       21 0.12680775E+00 0.46733548E+03</pdfrwt>
<totfact> 0.38310065E+04</totfact>
</mgrwt>
</event>
<event>
 7    0  0.4831799E-002  0.4576445E+03  0.7546771E-02  0.1025467E+00
         21   -1    0    0  502  501  0.00000000000E+00  0.00000000000E+00  0.10680578429E+04  0.10680578429E+04  0.00000000000E+00 0.  1.
         21   -1    0    0  501  502 -0.00000000000E+00 -0.00000000000E+00 -0.49023207689E+02  0.49023207689E+02  0.00000000000E+00 0.  1.
      99926    2    1    2    0    0  0.00000000000E+00 -0.71054273576E-14  0.10190346352E+04  0.11170810506E+04  0.45764449720E+03 0.  0.
      99925    2    3    3    0    0 -0.10370089345E+03 -0.50467202863E+02  0.65594255536E+03  0.71610202318E+03  0.26313619630E+03 0.  0.
         25    1    3    3    0    0  0.10370089345E+03  0.50467202863E+02  0.36309207982E+03  0.40097902737E+03  0.12509000000E+03 0.  0.
         25    1    4    4    0    0 -0.77872964828E+02 -0.34903878860E+02  0.43270361572E+03  0.45843473534E+03  0.12509000000E+03 0.  0.
         25    1    4    4    0    0 -0.25827928624E+02 -0.15563324002E+02  0.22323893964E+03  0.25766728784E+03  0.12509000000E+03 0.  0.
<mgrwt>
<rscale>  2 0.45764450E+03</rscale>
<asrwt>0</asrwt>
<pdfrwt beam="1">  1       21 0.15706731E+00 0.45764450E+03</pdfrwt>
<pdfrwt beam="2">  1       21 0.72092959E-02 0.45764450E+03</pdfrwt>
<totfact> 0.34190249E+04</totfact>
</mgrwt>
</event>
<event>
 7    0  0.4831799E-002  0.4504010E+03  0.7546771E-02  0.1027603E+00
         21   -1    0    0  502  501  0.00000000000E+00  0.00000000000E+00  0.25805455550E+03  0.25805455550E+03  0.00000000000E+00 0. -1.
         21   -1    0    0  501  502 -0.00000000000E+00 -0.00000000000E+00 -0.19652924608E+03  0.19652924608E+03  0.00000000000E+00 0. -1.
      99926    2    1    2    0    0  0.00000000000E+00  0.00000000000E+00  0.61525309426E+02  0.45458380158E+03  0.45040100906E+03 0.  0.
      99925    2    3    3    0    0  0.53007931004E+02 -0.91645587361E+02  0.64160621687E+02  0.29068380950E+03  0.26300520394E+03 0.  0.
         25    1    4    4    0    0  0.44762308782E+02 -0.53185242082E+02  0.70236482708E+02  0.15941457231E+03  0.12509000000E+03 0.  0.
         25    1    4    4    0    0  0.82456222217E+01 -0.38460345279E+02 -0.60758610216E+01  0.13126923719E+03  0.12509000000E+03 0.  0.
         25    1    3    3    0    0 -0.53007931004E+02  0.91645587361E+02 -0.26353122607E+01  0.16389999208E+03  0.12509000000E+03 0.  0.
<mgrwt>
<rscale>  2 0.45040101E+03</rscale>
<asrwt>0</asrwt>
<pdfrwt beam="1">  1       21 0.37949199E-01 0.45040101E+03</pdfrwt>
<pdfrwt beam="2">  1       21 0.28901360E-01 0.45040101E+03</pdfrwt>
<totfact> 0.71151044E+04</totfact>
</mgrwt>
</event>
<event>
 7    0  0.4831799E-002  0.4529751E+03  0.7546771E-02  0.1026839E+00
         21   -1    0    0  502  501  0.00000000000E+00  0.00000000000E+00  0.13972378570E+03  0.13972378570E+03  0.00000000000E+00 0.  1.
         21   -1    0    0  501  502 -0.00000000000E+00 -0.00000000000E+00 -0.36712866715E+03  0.36712866715E+03  0.00000000000E+00 0.  1.
      99926    2    1    2    0    0  0.00000000000E+00  0.00000000000E+00 -0.22740488145E+03  0.50685245285E+03  0.45297508635E+03 0.  0.
      99925    2    3    3    0    0  0.24430406401E+02  0.10246653291E+03 -0.10494206962E+03  0.30254659511E+03  0.26348694297E+03 0.  0.
         25    1    3    3    0    0 -0.24430406401E+02 -0.10246653291E+03 -0.12246281183E+03  0.20430585773E+03  0.12509000000E+03 0.  0.
         25    1    4    4    0    0 -0.20729188533E+01  0.94169689529E+01 -0.51517023303E+02  0.13562628096E+03  0.12509000000E+03 0.  0.
         25    1    4    4    0    0  0.26503325254E+02  0.93049563960E+02 -0.53425046318E+02  0.16692031415E+03  0.12509000000E+03 0.  0.
<mgrwt>
<rscale>  2 0.45297509E+03</rscale>
<asrwt>0</asrwt>
<pdfrwt beam="1">  1       21 0.20547616E-01 0.45297509E+03</pdfrwt>
<pdfrwt beam="2">  1       21 0.53989510E-01 0.45297509E+03</pdfrwt>
<totfact> 0.65843726E+04</totfact>
</mgrwt>
</event>
<event>
 7    0  0.4831799E-002  0.4507879E+03  0.7546771E-02  0.1027487E+00
         21   -1    0    0  502  501  0.00000000000E+00  0.00000000000E+00  0.38831053318E+03  0.38831053318E+03  0.00000000000E+00 0.  1.
         21   -1    0    0  501  502 -0.00000000000E+00 -0.00000000000E+00 -0.13082941717E+03  0.13082941717E+03  0.00000000000E+00 0.  1.
      99926    2    1    2    0    0 -0.14210854715E-13  0.00000000000E+00  0.25748111600E+03  0.51913995035E+03  0.45078793567E+03 0.  0.
      99925    2    3    3    0    0 -0.73194871955E+02  0.38272816548E+02  0.24549695146E+03  0.36876233876E+03  0.26247783057E+03 0.  0.
         25    1    4    4    0    0 -0.26807413970E+01  0.13978593133E+02  0.84271625478E+02  0.15149852277E+03  0.12509000000E+03 0.  0.
         25    1    3    3    0    0  0.73194871955E+02 -0.38272816548E+02  0.11984164541E+02  0.15037761159E+03  0.12509000000E+03 0.  0.
         25    1    4    4    0    0 -0.70514130558E+02  0.24294223415E+02  0.16122532599E+03  0.21726381599E+03  0.12509000000E+03 0.  0.
<mgrwt>
<rscale>  2 0.45078794E+03</rscale>
<asrwt>0</asrwt>
<pdfrwt beam="1">  1       21 0.57104490E-01 0.45078794E+03</pdfrwt>
<pdfrwt beam="2">  1       21 0.19239620E-01 0.45078794E+03</pdfrwt>
<totfact> 0.66128129E+04</totfact>
</mgrwt>
</event>
<event>
 7    0  0.4831799E-002  0.4490562E+03  0.7546771E-02  0.1028004E+00
         21   -1    0    0  502  501  0.00000000000E+00  0.00000000000E+00  0.18534298510E+03  0.18534298510E+03  0.00000000000E+00 0. -1.
         21   -1    0    0  501  502 -0.00000000000E+00 -0.00000000000E+00 -0.27199765338E+03  0.27199765338E+03  0.00000000000E+00 0. -1.
      99926    2    1    2    0    0  0.00000000000E+00  0.00000000000E+00 -0.86654668285E+02  0.45734063848E+03  0.44905615247E+03 0.  0.
      99925    2    3    3    0    0 -0.93453463850E+02  0.52477338433E+02 -0.46960547367E+02  0.28789875378E+03  0.26304558249E+03 0.  0.
         25    1    4    4    0    0 -0.51721216746E+02  0.34991334731E+02  0.16011284672E+02  0.14072436571E+03  0.12509000000E+03 0.  0.
         25    1    4    4    0    0 -0.41732247104E+02  0.17486003702E+02 -0.62971832038E+02  0.14717438807E+03  0.12509000000E+03 0.  0.
         25    1    3    3    0    0  0.93453463850E+02 -0.52477338433E+02 -0.39694120918E+02  0.16944188470E+03  0.12509000000E+03 0.  0.
<mgrwt>
<rscale>  2 0.44905615E+03</rscale>
<asrwt>0</asrwt>
<pdfrwt beam="1">  1       21 0.27256321E-01 0.44905615E+03</pdfrwt>
<pdfrwt beam="2">  1       21 0.39999655E-01 0.44905615E+03</pdfrwt>
<totfact> 0.71711468E+04</totfact>
</mgrwt>
</event>
<event>
 7    0  0.4831799E-002  0.4666549E+03  0.7546771E-02  0.1022869E+00
         21   -1    0    0  502  501  0.00000000000E+00  0.00000000000E+00  0.56190571910E+03  0.56190571910E+03  0.00000000000E+00 0. -1.
         21   -1    0    0  501  502 -0.00000000000E+00 -0.00000000000E+00 -0.96887601188E+02  0.96887601188E+02  0.00000000000E+00 0. -1.
      99926    2    1    2    0    0  0.00000000000E+00 -0.31086244690E-14  0.46501811791E+03  0.65879332029E+03  0.46665489269E+03 0.  0.
      99925    2    3    3    0    0  0.73490229032E+02 -0.58760926594E+00  0.43027400444E+03  0.50960947207E+03  0.26299227381E+03 0.  0.
         25    1    3    3    0    0 -0.73490229032E+02  0.58760926594E+00  0.34744113477E+02  0.14918384822E+03  0.12509000000E+03 0.  0.
         25    1    4    4    0    0  0.70452556808E+02 -0.24212276219E+02  0.22144813055E+03  0.26502184760E+03  0.12509000000E+03 0.  0.
         25    1    4    4    0    0  0.30376722233E+01  0.23624666953E+02  0.20882587388E+03  0.24458762447E+03  0.12509000000E+03 0.  0.
<mgrwt>
<rscale>  2 0.46665489E+03</rscale>
<asrwt>0</asrwt>
<pdfrwt beam="1">  1       21 0.82633193E-01 0.46665489E+03</pdfrwt>
<pdfrwt beam="2">  1       21 0.14248177E-01 0.46665489E+03</pdfrwt>
<totfact> 0.50402099E+04</totfact>
</mgrwt>
</event>
<event>
 7    0  0.4831799E-002  0.4832973E+03  0.7546771E-02  0.1018233E+00
         21   -1    0    0  502  501  0.00000000000E+00  0.00000000000E+00  0.82057899596E+02  0.82057899596E+02  0.00000000000E+00 0. -1.
         21   -1    0    0  501  502 -0.00000000000E+00 -0.00000000000E+00 -0.71162043304E+03  0.71162043304E+03  0.00000000000E+00 0. -1.
      99926    2    1    2    0    0  0.00000000000E+00  0.00000000000E+00 -0.62956253345E+03  0.79367833264E+03  0.48329733310E+03 0.  0.
      99925    2    3    3    0    0 -0.37273064189E+02  0.96572250822E+02 -0.53692919176E+03  0.60674539002E+03  0.26292875539E+03 0.  0.
         25    1    4    4    0    0 -0.10962695895E+02  0.84290657041E+02 -0.33327756793E+03  0.36598707758E+03  0.12509000000E+03 0.  0.
         25    1    4    4    0    0 -0.26310368295E+02  0.12281593780E+02 -0.20365162382E+03  0.24075831245E+03  0.12509000000E+03 0.  0.
         25    1    3    3    0    0  0.37273064189E+02 -0.96572250822E+02 -0.92633341692E+02  0.18693294262E+03  0.12509000000E+03 0.  0.
<mgrwt>
<rscale>  2 0.48329733E+03</rscale>
<asrwt>0</asrwt>
<pdfrwt beam="1">  1       21 0.12067338E-01 0.48329733E+03</pdfrwt>
<pdfrwt beam="2">  1       21 0.10465006E+00 0.48329733E+03</pdfrwt>
<totfact> 0.38728015E+04</totfact>
</mgrwt>
</event>
<event>
 7    0  0.4831799E-002  0.4585268E+03  0.7546771E-02  0.1025209E+00
         21   -1    0    0  502  501  0.00000000000E+00  0.00000000000E+00  0.64329126288E+02  0.64329126288E+02  0.00000000000E+00 0.  1.
         21   -1    0    0  501  502 -0.00000000000E+00 -0.00000000000E+00 -0.81707464507E+03  0.81707464507E+03  0.00000000000E+00 0.  1.
      99926    2    1    2    0    0  0.00000000000E+00  0.00000000000E+00 -0.75274551878E+03  0.88140377136E+03  0.45852676271E+03 0.  0.
      99925    2    3    3    0    0 -0.80485753541E+01 -0.11456989473E+03 -0.50872438071E+03  0.58410785098E+03  0.26304076815E+03 0.  0.
         25    1    3    3    0    0  0.80485753541E+01  0.11456989473E+03 -0.24402113807E+03  0.29729592037E+03  0.12509000000E+03 0.  0.
         25    1    4    4    0    0 -0.23288772408E+02 -0.96137958789E+02 -0.27223354618E+03  0.31550512802E+03  0.12509000000E+03 0.  0.
         25    1    4    4    0    0  0.15240197054E+02 -0.18431935942E+02 -0.23649083453E+03  0.26860272297E+03  0.12509000000E+03 0.  0.
<mgrwt>
<rscale>  2 0.45852676E+03</rscale>
<asrwt>0</asrwt>
<pdfrwt beam="1">  1       21 0.94601652E-02 0.45852676E+03</pdfrwt>
<pdfrwt beam="2">  1       21 0.12015804E+00 0.45852676E+03</pdfrwt>
<totfact> 0.42851608E+04</totfact>
</mgrwt>
</event>
<event>
 7    0  0.4831799E-002  0.4497860E+03  0.7546771E-02  0.1027786E+00
         21   -1    0    0  502  501  0.00000000000E+00  0.00000000000E+00  0.84967542622E+03  0.84967542622E+03  0.00000000000E+00 0. -1.
         21   -1    0    0  501  502 -0.00000000000E+00 -0.00000000000E+00 -0.59524928602E+02  0.59524928602E+02  0.00000000000E+00 0. -1.
      99926    2    1    2    0    0  0.00000000000E+00  0.00000000000E+00  0.79015049762E+03  0.90920035482E+03  0.44978603393E+03 0.  0.
      99925    2    3    3    0    0  0.26521838721E+02  0.92002770965E+02  0.39880427756E+03  0.48733865966E+03  0.26322271863E+03 0.  0.
         25    1    3    3    0    0 -0.26521838721E+02 -0.92002770965E+02  0.39134622006E+03  0.42186169516E+03  0.12509000000E+03 0.  0.
         25    1    4    4    0    0 -0.16991557675E+02  0.23272644600E+02  0.15219242297E+03  0.19909889685E+03  0.12509000000E+03 0.  0.
         25    1    4    4    0    0  0.43513396396E+02  0.68730126365E+02  0.24661185459E+03  0.28823976280E+03  0.12509000000E+03 0.  0.
<mgrwt>
<rscale>  2 0.44978603E+03</rscale>
<asrwt>0</asrwt>
<pdfrwt beam="1">  1       21 0.12495226E+00 0.44978603E+03</pdfrwt>
<pdfrwt beam="2">  1       21 0.87536665E-02 0.44978603E+03</pdfrwt>
<totfact> 0.44631619E+04</totfact>
</mgrwt>
</event>
<event>
 7    0  0.4831799E-002  0.4566357E+03  0.7546771E-02  0.1025762E+00
         21   -1    0    0  502  501  0.00000000000E+00  0.00000000000E+00  0.51328190440E+03  0.51328190440E+03  0.00000000000E+00 0.  1.
         21   -1    0    0  501  502 -0.00000000000E+00 -0.00000000000E+00 -0.10156023333E+03  0.10156023333E+03  0.00000000000E+00 0.  1.
      99926    2    1    2    0    0 -0.17763568394E-14  0.00000000000E+00  0.41172167107E+03  0.61484213773E+03  0.45663565333E+03 0.  0.
      99925    2    3    3    0    0 -0.10326786397E+02  0.65202923901E+02  0.13251289900E+03  0.30185154633E+03  0.26305251152E+03 0.  0.
         25    1    4    4    0    0  0.62910628057E+00  0.48566953925E+02  0.26734314064E+02  0.13682608098E+03  0.12509000000E+03 0.  0.
         25    1    3    3    0    0  0.10326786397E+02 -0.65202923901E+02  0.27920877208E+03  0.31299059140E+03  0.12509000000E+03 0.  0.
         25    1    4    4    0    0 -0.10955892677E+02  0.16635969976E+02  0.10577858493E+03  0.16502546534E+03  0.12509000000E+03 0.  0.
<mgrwt>
<rscale>  2 0.45663565E+03</rscale>
<asrwt>0</asrwt>
<pdfrwt beam="1">  1       21 0.75482632E-01 0.45663565E+03</pdfrwt>
<pdfrwt beam="2">  1       21 0.14935329E-01 0.45663565E+03</pdfrwt>
<totfact> 0.57033528E+04</totfact>
</mgrwt>
</event>
<event>
 7    0  0.4831799E-002  0.4573973E+03  0.7546771E-02  0.1025539E+00
         21   -1    0    0  502  501  0.00000000000E+00  0.00000000000E+00  0.15903635344E+03  0.15903635344E+03  0.00000000000E+00 0. -1.
         21   -1    0    0  501  502 -0.00000000000E+00 -0.00000000000E+00 -0.32887498124E+03  0.32887498124E+03  0.00000000000E+00 0. -1.
      99926    2    1    2    0    0  0.17763568394E-14  0.00000000000E+00 -0.16983862780E+03  0.48791133468E+03  0.45739732292E+03 0.  0.
      99925    2    3    3    0    0  0.42304057026E+01 -0.37524054846E+02  0.11022026196E+02  0.26478797130E+03  0.26184963941E+03 0.  0.
         25    1    4    4    0    0  0.20701504025E+02  0.23150947012E+01 -0.21295494676E+02  0.12858817257E+03  0.12509000000E+03 0.  0.
         25    1    3    3    0    0 -0.42304057026E+01  0.37524054846E+02 -0.18086065399E+03  0.22312336338E+03  0.12509000000E+03 0.  0.
         25    1    4    4    0    0 -0.16471098322E+02 -0.39839149547E+02  0.32317520872E+02  0.13619979872E+03  0.12509000000E+03 0.  0.
<mgrwt>
<rscale>  2 0.45739732E+03</rscale>
<asrwt>0</asrwt>
<pdfrwt beam="1">  1       21 0.23387699E-01 0.45739732E+03</pdfrwt>
<pdfrwt beam="2">  1       21 0.48363968E-01 0.45739732E+03</pdfrwt>
<totfact> 0.64884913E+04</totfact>
</mgrwt>
</event>
<event>
 7    0  0.4831799E-002  0.4668010E+03  0.7546771E-02  0.1022827E+00
         21   -1    0    0  502  501  0.00000000000E+00  0.00000000000E+00  0.56007050975E+03  0.56007050975E+03  0.00000000000E+00 0. -1.
         21   -1    0    0  501  502 -0.00000000000E+00 -0.00000000000E+00 -0.97265955985E+02  0.97265955985E+02  0.00000000000E+00 0. -1.
      99926    2    1    2    0    0  0.00000000000E+00  0.35527136788E-14  0.46280455376E+03  0.65733646573E+03  0.46680100064E+03 0.  0.
      99925    2    3    3    0    0  0.11212238406E+03  0.30065461229E+02  0.34808142819E+03  0.45170508533E+03  0.26344153525E+03 0.  0.
         25    1    4    4    0    0  0.15757898082E+02 -0.12411443167E+01  0.16992741408E+03  0.21159557166E+03  0.12509000000E+03 0.  0.
         25    1    3    3    0    0 -0.11212238406E+03 -0.30065461229E+02  0.11472312557E+03  0.20563138040E+03  0.12509000000E+03 0.  0.
         25    1    4    4    0    0  0.96364485977E+02  0.31306605546E+02  0.17815401411E+03  0.24010951367E+03  0.12509000000E+03 0.  0.
<mgrwt>
<rscale>  2 0.46680100E+03</rscale>
<asrwt>0</asrwt>
<pdfrwt beam="1">  1       21 0.82363309E-01 0.46680100E+03</pdfrwt>
<pdfrwt beam="2">  1       21 0.14303817E-01 0.46680100E+03</pdfrwt>
<totfact> 0.50420902E+04</totfact>
</mgrwt>
</event>
<event>
 7    0  0.4831799E-002  0.4537114E+03  0.7546771E-02  0.1026621E+00
         21   -1    0    0  502  501  0.00000000000E+00  0.00000000000E+00  0.28569874890E+02  0.28569874890E+02  0.00000000000E+00 0. -1.
         21   -1    0    0  501  502 -0.00000000000E+00 -0.00000000000E+00 -0.18013204219E+04  0.18013204219E+04  0.00000000000E+00 0. -1.
      99926    2    1    2    0    0  0.00000000000E+00 -0.71054273576E-14 -0.17727505470E+04  0.18298902968E+04  0.45371135799E+03 0.  0.
      99925    2    3    3    0    0 -0.73280275506E+02  0.49234605129E+02 -0.84405838034E+03  0.88866200692E+03  0.26361253384E+03 0.  0.
         25    1    3    3    0    0  0.73280275506E+02 -0.49234605129E+02 -0.92869216669E+03  0.94122828989E+03  0.12509000000E+03 0.  0.
         25    1    4    4    0    0 -0.26289057027E+02  0.34624812908E+01 -0.51368482815E+03  0.52936066539E+03  0.12509000000E+03 0.  0.
         25    1    4    4    0    0 -0.46991218479E+02  0.45772123838E+02 -0.33037355220E+03  0.35930134153E+03  0.12509000000E+03 0.  0.
<mgrwt>
<rscale>  2 0.45371136E+03</rscale>
<asrwt>0</asrwt>
<pdfrwt beam="1">  1       21 0.42014519E-02 0.45371136E+03</pdfrwt>
<pdfrwt beam="2">  1       21 0.26490008E+00 0.45371136E+03</pdfrwt>
<totfact> 0.16860141E+04</totfact>
</mgrwt>
</event>
<event>
 7    0  0.4831799E-002  0.4525828E+03  0.7546771E-02  0.1026955E+00
         21   -1    0    0  502  501  0.00000000000E+00  0.00000000000E+00  0.33154413979E+03  0.33154413979E+03  0.00000000000E+00 0. -1.
         21   -1    0    0  501  502 -0.00000000000E+00 -0.00000000000E+00 -0.15445246119E+03  0.15445246119E+03  0.00000000000E+00 0. -1.
      99926    2    1    2    0    0  0.00000000000E+00  0.00000000000E+00  0.17709167861E+03  0.48599660098E+03  0.45258284715E+03 0.  0.
      99925    2    3    3    0    0  0.92779430572E+02  0.52946517067E+00  0.46331926721E+02  0.28263995888E+03  0.26292659784E+03 0.  0.
         25    1    4    4    0    0  0.51091541759E+01  0.22773894349E+01  0.99874013108E+01  0.12561268345E+03  0.12509000000E+03 0.  0.
         25    1    3    3    0    0 -0.92779430572E+02 -0.52946517067E+00  0.13075975188E+03  0.20335664209E+03  0.12509000000E+03 0.  0.
         25    1    4    4    0    0  0.87670276396E+02 -0.17479242643E+01  0.36344525410E+02  0.15702727543E+03  0.12509000000E+03 0.  0.
<mgrwt>
<rscale>  2 0.45258285E+03</rscale>
<asrwt>0</asrwt>
<pdfrwt beam="1">  1       21 0.48756491E-01 0.45258285E+03</pdfrwt>
<pdfrwt beam="2">  1       21 0.22713597E-01 0.45258285E+03</pdfrwt>
<totfact> 0.67553101E+04</totfact>
</mgrwt>
</event>
<event>
 7    0  0.4831799E-002  0.4548654E+03  0.7546771E-02  0.1026281E+00
         21   -1    0    0  502  501  0.00000000000E+00  0.00000000000E+00  0.38719482754E+03  0.38719482754E+03  0.00000000000E+00 0. -1.
         21   -1    0    0  501  502 -0.00000000000E+00 -0.00000000000E+00 -0.13359070636E+03  0.13359070636E+03  0.00000000000E+00 0. -1.
      99926    2    1    2    0    0  0.00000000000E+00  0.00000000000E+00  0.25360412117E+03  0.52078553390E+03  0.45486538893E+03 0.  0.
      99925    2    3    3    0    0 -0.80688683484E+02 -0.21398234234E+02  0.24692103911E+03  0.37025075468E+03  0.26295831173E+03 0.  0.
         25    1    4    4    0    0 -0.76930536063E+02 -0.13959493984E+02  0.16043903738E+03  0.21794808479E+03  0.12509000000E+03 0.  0.
         25    1    4    4    0    0 -0.37581474204E+01 -0.74387402497E+01  0.86482001738E+02  0.15230266988E+03  0.12509000000E+03 0.  0.
         25    1    3    3    0    0  0.80688683484E+02  0.21398234234E+02  0.66830820612E+01  0.15053477923E+03  0.12509000000E+03 0.  0.
<mgrwt>
<rscale>  2 0.45486539E+03</rscale>
<asrwt>0</asrwt>
<pdfrwt beam="1">  1       21 0.56940416E-01 0.45486539E+03</pdfrwt>
<pdfrwt beam="2">  1       21 0.19645692E-01 0.45486539E+03</pdfrwt>
<totfact> 0.63901988E+04</totfact>
</mgrwt>
</event>
<event>
 7    0  0.4831799E-002  0.4297932E+03  0.7546771E-02  0.1033925E+00
         21   -1    0    0  502  501  0.00000000000E+00  0.00000000000E+00  0.48785195674E+03  0.48785195674E+03  0.00000000000E+00 0.  1.
         21   -1    0    0  501  502 -0.00000000000E+00 -0.00000000000E+00 -0.94660981165E+02  0.94660981165E+02  0.00000000000E+00 0.  1.
      99926    2    1    2    0    0  0.00000000000E+00  0.35527136788E-14  0.39319097557E+03  0.58251293790E+03  0.42979318230E+03 0.  0.
      99925    2    3    3    0    0 -0.49927582098E+02 -0.27647030526E+02  0.34338319396E+03  0.43627530608E+03  0.26299620349E+03 0.  0.
         25    1    3    3    0    0  0.49927582098E+02  0.27647030526E+02  0.49807781614E+02  0.14623763182E+03  0.12509000000E+03 0.  0.
         25    1    4    4    0    0 -0.35945961505E+02 -0.41311249207E+02  0.13228058143E+03  0.19011678459E+03  0.12509000000E+03 0.  0.
         25    1    4    4    0    0 -0.13981620593E+02  0.13664218680E+02  0.21110261253E+03  0.24615852149E+03  0.12509000000E+03 0.  0.
<mgrwt>
<rscale>  2 0.42979318E+03</rscale>
<asrwt>0</asrwt>
<pdfrwt beam="1">  1       21 0.71742934E-01 0.42979318E+03</pdfrwt>
<pdfrwt beam="2">  1       21 0.13920733E-01 0.42979318E+03</pdfrwt>
<totfact> 0.73320631E+04</totfact>
</mgrwt>
</event>
<event>
 7    0  0.4831799E-002  0.4569916E+03  0.7546771E-02  0.1025657E+00
         21   -1    0    0  502  501  0.00000000000E+00  0.00000000000E+00  0.93940409153E+02  0.93940409153E+02  0.00000000000E+00 0. -1.
         21   -1    0    0  501  502 -0.00000000000E+00 -0.00000000000E+00 -0.55578141155E+03  0.55578141155E+03  0.00000000000E+00 0. -1.
      99926    2    1    2    0    0  0.00000000000E+00  0.00000000000E+00 -0.46184100240E+03  0.64972182071E+03  0.45699161131E+03 0.  0.
      99925    2    3    3    0    0 -0.49990684277E+02 -0.65905847321E+02 -0.40367541979E+03  0.48886973857E+03  0.26305346895E+03 0.  0.
         25    1    3    3    0    0  0.49990684277E+02  0.65905847321E+02 -0.58165582614E+02  0.16085208213E+03  0.12509000000E+03 0.  0.
         25    1    4    4    0    0 -0.55652690799E+02 -0.16274986725E+02 -0.16711107134E+03  0.21664652190E+03  0.12509000000E+03 0.  0.
         25    1    4    4    0    0  0.56620065223E+01 -0.49630860597E+02 -0.23656434844E+03  0.27222321667E+03  0.12509000000E+03 0.  0.
<mgrwt>
<rscale>  2 0.45699161E+03</rscale>
<asrwt>0</asrwt>
<pdfrwt beam="1">  1       21 0.13814766E-01 0.45699161E+03</pdfrwt>
<pdfrwt beam="2">  1       21 0.81732562E-01 0.45699161E+03</pdfrwt>
<totfact> 0.54850604E+04</totfact>
</mgrwt>
</event>
<event>
 7    0  0.4831799E-002  0.4544915E+03  0.7546771E-02  0.1026391E+00
         21   -1    0    0  502  501  0.00000000000E+00  0.00000000000E+00  0.30313107953E+03  0.30313107953E+03  0.00000000000E+00 0. -1.
         21   -1    0    0  501  502 -0.00000000000E+00 -0.00000000000E+00 -0.17035741899E+03  0.17035741899E+03  0.00000000000E+00 0. -1.
      99926    2    1    2    0    0 -0.35527136788E-14  0.00000000000E+00  0.13277366055E+03  0.47348849852E+03  0.45449148870E+03 0.  0.
      99925    2    3    3    0    0  0.63367825762E+01 -0.10757664796E+03  0.49229375417E+02  0.28844783900E+03  0.26299379160E+03 0.  0.
         25    1    3    3    0    0 -0.63367825762E+01  0.10757664796E+03  0.83544285129E+02  0.18504065953E+03  0.12509000000E+03 0.  0.
         25    1    4    4    0    0 -0.37196086592E+02 -0.55630105564E+02  0.27988651204E+02  0.14459989695E+03  0.12509000000E+03 0.  0.
         25    1    4    4    0    0  0.43532869168E+02 -0.51946542399E+02  0.21240724212E+02  0.14384794204E+03  0.12509000000E+03 0.  0.
<mgrwt>
<rscale>  2 0.45449149E+03</rscale>
<asrwt>0</asrwt>
<pdfrwt beam="1">  1       21 0.44578100E-01 0.45449149E+03</pdfrwt>
<pdfrwt beam="2">  1       21 0.25052562E-01 0.45449149E+03</pdfrwt>
<totfact> 0.67449013E+04</totfact>
</mgrwt>
</event>
<event>
 7    0  0.4831799E-002  0.4389544E+03  0.7546771E-02  0.1031068E+00
         21   -1    0    0  502  501  0.00000000000E+00  0.00000000000E+00  0.93437101599E+03  0.93437101599E+03  0.00000000000E+00 0.  1.
         21   -1    0    0  501  502 -0.00000000000E+00 -0.00000000000E+00 -0.51553659708E+02  0.51553659708E+02  0.00000000000E+00 0.  1.
      99926    2    1    2    0    0 -0.14210854715E-13 -0.71054273576E-14  0.88281735628E+03  0.98592467570E+03  0.43895441859E+03 0.  0.
      99925    2    3    3    0    0 -0.83618642985E+02 -0.43048310083E+02  0.62002831073E+03  0.68006388217E+03  0.26307136536E+03 0.  0.
         25    1    4    4    0    0 -0.90196866086E+01 -0.34669717587E+02  0.34532273514E+03  0.36902390650E+03  0.12509000000E+03 0.  0.
         25    1    3    3    0    0  0.83618642985E+02  0.43048310083E+02  0.26278904556E+03  0.30586079353E+03  0.12509000000E+03 0.  0.
         25    1    4    4    0    0 -0.74598956377E+02 -0.83785924954E+01  0.27470557558E+03  0.31103997566E+03  0.12509000000E+03 0.  0.
<mgrwt>
<rscale>  2 0.43895442E+03</rscale>
<asrwt>0</asrwt>
<pdfrwt beam="1">  1       21 0.13740749E+00 0.43895442E+03</pdfrwt>
<pdfrwt beam="2">  1       21 0.75814211E-02 0.43895442E+03</pdfrwt>
<totfact> 0.45113187E+04</totfact>
</mgrwt>
</event>
<event>
 7    0  0.4831799E-002  0.4532307E+03  0.7546771E-02  0.1026763E+00
         21   -1    0    0  502  501  0.00000000000E+00  0.00000000000E+00  0.10449767620E+03  0.10449767620E+03  0.00000000000E+00 0. -1.
         21   -1    0    0  501  502 -0.00000000000E+00 -0.00000000000E+00 -0.49144178652E+03  0.49144178652E+03  0.00000000000E+00 0. -1.
      99926    2    1    2    0    0  0.00000000000E+00  0.00000000000E+00 -0.38694411032E+03  0.59593946272E+03  0.45323073453E+03 0.  0.
      99925    2    3    3    0    0 -0.78822537412E+02 -0.18229925367E+02 -0.34470673001E+03  0.44109493754E+03  0.26305264041E+03 0.  0.
         25    1    4    4    0    0 -0.55359179087E+01  0.15164816497E+02 -0.14773318462E+03  0.19425040537E+03  0.12509000000E+03 0.  0.
         25    1    4    4    0    0 -0.73286619504E+02 -0.33394741864E+02 -0.19697354538E+03  0.24684453217E+03  0.12509000000E+03 0.  0.
         25    1    3    3    0    0  0.78822537412E+02  0.18229925367E+02 -0.42237380310E+02  0.15484452518E+03  0.12509000000E+03 0.  0.
<mgrwt>
<rscale>  2 0.45323073E+03</rscale>
<asrwt>0</asrwt>
<pdfrwt beam="1">  1       21 0.15367305E-01 0.45323073E+03</pdfrwt>
<pdfrwt beam="2">  1       21 0.72270853E-01 0.45323073E+03</pdfrwt>
<totfact> 0.59760031E+04</totfact>
</mgrwt>
</event>
<event>
 7    0  0.4831799E-002  0.4544857E+03  0.7546771E-02  0.1026393E+00
         21   -1    0    0  502  501  0.00000000000E+00  0.00000000000E+00  0.13682538164E+03  0.13682538164E+03  0.00000000000E+00 0. -1.
         21   -1    0    0  501  502 -0.00000000000E+00 -0.00000000000E+00 -0.37741025035E+03  0.37741025035E+03  0.00000000000E+00 0. -1.
      99926    2    1    2    0    0  0.00000000000E+00 -0.17763568394E-14 -0.24058486871E+03  0.51423563199E+03  0.45448565011E+03 0.  0.
      99925    2    3    3    0    0  0.87080179344E+02 -0.84680517986E+01 -0.23028262540E+03  0.36123788739E+03  0.26421214618E+03 0.  0.
         25    1    4    4    0    0  0.16430109041E+02  0.24114550236E+02 -0.13180337249E+03  0.18404102020E+03  0.12509000000E+03 0.  0.
         25    1    3    3    0    0 -0.87080179344E+02  0.84680517986E+01 -0.10302243312E+02  0.15299774460E+03  0.12509000000E+03 0.  0.
         25    1    4    4    0    0  0.70650070303E+02 -0.32582602035E+02 -0.98479252902E+02  0.17719686719E+03  0.12509000000E+03 0.  0.
<mgrwt>
<rscale>  2 0.45448565E+03</rscale>
<asrwt>0</asrwt>
<pdfrwt beam="1">  1       21 0.20121380E-01 0.45448565E+03</pdfrwt>
<pdfrwt beam="2">  1       21 0.55501507E-01 0.45448565E+03</pdfrwt>
<totfact> 0.64544734E+04</totfact>
</mgrwt>
</event>
<event>
 7    0  0.4831799E-002  0.4519151E+03  0.7546771E-02  0.1027152E+00
         21   -1    0    0  502  501  0.00000000000E+00  0.00000000000E+00  0.87397152449E+02  0.87397152449E+02  0.00000000000E+00 0. -1.
         21   -1    0    0  501  502 -0.00000000000E+00 -0.00000000000E+00 -0.58419305116E+03  0.58419305116E+03  0.00000000000E+00 0. -1.
      99926    2    1    2    0    0 -0.35527136788E-14  0.00000000000E+00 -0.49679589871E+03  0.67159020361E+03  0.45191507676E+03 0.  0.
      99925    2    3    3    0    0  0.28630047418E+02 -0.10572358593E+03 -0.29548834546E+03  0.41049750871E+03  0.26305453068E+03 0.  0.
         25    1    4    4    0    0  0.26332664787E+01 -0.85759276502E+02 -0.19312039211E+03  0.24556991173E+03  0.12509000000E+03 0.  0.
         25    1    3    3    0    0 -0.28630047418E+02  0.10572358593E+03 -0.20130755324E+03  0.26109269490E+03  0.12509000000E+03 0.  0.
         25    1    4    4    0    0  0.25996780939E+02 -0.19964309431E+02 -0.10236795336E+03  0.16492759698E+03  0.12509000000E+03 0.  0.
<mgrwt>
<rscale>  2 0.45191508E+03</rscale>
<asrwt>0</asrwt>
<pdfrwt beam="1">  1       21 0.12852523E-01 0.45191508E+03</pdfrwt>
<pdfrwt beam="2">  1       21 0.85910742E-01 0.45191508E+03</pdfrwt>
<totfact> 0.55817536E+04</totfact>
</mgrwt>
</event>
<event>
 7    0  0.4831799E-002  0.4565017E+03  0.7546771E-02  0.1025801E+00
         21   -1    0    0  502  501  0.00000000000E+00  0.00000000000E+00  0.85982870685E+03  0.85982870685E+03  0.00000000000E+00 0.  1.
         21   -1    0    0  501  502 -0.00000000000E+00 -0.00000000000E+00 -0.60591660156E+02  0.60591660156E+02  0.00000000000E+00 0.  1.
      99926    2    1    2    0    0  0.00000000000E+00 -0.35527136788E-14  0.79923704670E+03  0.92042036701E+03  0.45650169243E+03 0.  0.
      99925    2    3    3    0    0  0.10193441301E+03  0.25619599649E+02  0.40999279502E+03  0.49827633471E+03  0.26294148650E+03 0.  0.
         25    1    4    4    0    0  0.56373316869E+02  0.50364733413E+02  0.23918703189E+03  0.28030786923E+03  0.12509000000E+03 0.  0.
         25    1    4    4    0    0  0.45561096140E+02 -0.24745133763E+02  0.17080576312E+03  0.21796846548E+03  0.12509000000E+03 0.  0.
         25    1    3    3    0    0 -0.10193441301E+03 -0.25619599649E+02  0.38924425168E+03  0.42214403230E+03  0.12509000000E+03 0.  0.
<mgrwt>
<rscale>  2 0.45650169E+03</rscale>
<asrwt>0</asrwt>
<pdfrwt beam="1">  1       21 0.12644539E+00 0.45650169E+03</pdfrwt>
<pdfrwt beam="2">  1       21 0.89105388E-02 0.45650169E+03</pdfrwt>
<totfact> 0.41868415E+04</totfact>
</mgrwt>
</event>
<event>
 7    0  0.4831799E-002  0.4509024E+03  0.7546771E-02  0.1027453E+00
         21   -1    0    0  502  501  0.00000000000E+00  0.00000000000E+00  0.12366774272E+03  0.12366774272E+03  0.00000000000E+00 0.  1.
         21   -1    0    0  501  502 -0.00000000000E+00 -0.00000000000E+00 -0.41100639278E+03  0.41100639278E+03  0.00000000000E+00 0.  1.
      99926    2    1    2    0    0 -0.17763568394E-14  0.14210854715E-13 -0.28733865006E+03  0.53467413550E+03  0.45090235235E+03 0.  0.
      99925    2    3    3    0    0 -0.12785993654E+02 -0.10806422117E+03 -0.19400772817E+03  0.34441240363E+03  0.26294400099E+03 0.  0.
         25    1    4    4    0    0  0.28262215405E+02 -0.34032770563E+02 -0.77496972783E+02  0.15365634117E+03  0.12509000000E+03 0.  0.
         25    1    4    4    0    0 -0.41048209059E+02 -0.74031450607E+02 -0.11651075538E+03  0.19075606246E+03  0.12509000000E+03 0.  0.
         25    1    3    3    0    0  0.12785993654E+02  0.10806422117E+03 -0.93330921892E+02  0.19026173186E+03  0.12509000000E+03 0.  0.
<mgrwt>
<rscale>  2 0.45090235E+03</rscale>
<asrwt>0</asrwt>
<pdfrwt beam="1">  1       21 0.18186433E-01 0.45090235E+03</pdfrwt>
<pdfrwt beam="2">  1       21 0.60442116E-01 0.45090235E+03</pdfrwt>
<totfact> 0.64972485E+04</totfact>
</mgrwt>
</event>
<event>
 7    0  0.4831799E-002  0.4531772E+03  0.7546771E-02  0.1026779E+00
         21   -1    0    0  502  501  0.00000000000E+00  0.00000000000E+00  0.22940056888E+03  0.22940056888E+03  0.00000000000E+00 0. -1.
         21   -1    0    0  501  502 -0.00000000000E+00 -0.00000000000E+00 -0.22381109759E+03  0.22381109759E+03  0.00000000000E+00 0. -1.
      99926    2    1    2    0    0  0.00000000000E+00  0.00000000000E+00  0.55894712954E+01  0.45321166647E+03  0.45317719761E+03 0.  0.
      99925    2    3    3    0    0  0.50296139848E+02 -0.81339715885E+02  0.60533169928E+02  0.28644185750E+03  0.26313270797E+03 0.  0.
         25    1    3    3    0    0 -0.50296139848E+02  0.81339715885E+02 -0.54943698633E+02  0.16676980897E+03  0.12509000000E+03 0.  0.
         25    1    4    4    0    0 -0.81852056278E+01 -0.28813010463E+02  0.53614826257E+01  0.12873787616E+03  0.12509000000E+03 0.  0.
         25    1    4    4    0    0  0.58481345475E+02 -0.52526705423E+02  0.55171687302E+02  0.15770398134E+03  0.12509000000E+03 0.  0.
<mgrwt>
<rscale>  2 0.45317720E+03</rscale>
<asrwt>0</asrwt>
<pdfrwt beam="1">  1       21 0.33735378E-01 0.45317720E+03</pdfrwt>
<pdfrwt beam="2">  1       21 0.32913396E-01 0.45317720E+03</pdfrwt>
<totfact> 0.69685004E+04</totfact>
</mgrwt>
</event>
<event>
 7    0  0.4831799E-002  0.4565390E+03  0.7546771E-02  0.1025790E+00
         21   -1    0    0  502  501  0.00000000000E+00  0.00000000000E+00  0.57112298919E+03  0.57112298919E+03  0.00000000000E+00 0. -1.
         21   -1    0    0  501  502 -0.00000000000E+00 -0.00000000000E+00 -0.91235995312E+02  0.91235995312E+02  0.00000000000E+00 0. -1.
      99926    2    1    2    0    0  0.88817841970E-15  0.00000000000E+00  0.47988699387E+03  0.66235898450E+03  0.45653904264E+03 0.  0.
      99925    2    3    3    0    0  0.71483302579E+01 -0.11227484538E+03  0.26984458066E+03  0.39324550847E+03  0.26300036633E+03 0.  0.
         25    1    4    4    0    0 -0.66357845377E+01 -0.56439375974E+02  0.80836684528E+02  0.15940989449E+03  0.12509000000E+03 0.  0.
         25    1    3    3    0    0 -0.71483302579E+01  0.11227484538E+03  0.21004241321E+03  0.26911347602E+03  0.12509000000E+03 0.  0.
         25    1    4    4    0    0  0.13784114796E+02 -0.55835469406E+02  0.18900789614E+03  0.23383561398E+03  0.12509000000E+03 0.  0.
<mgrwt>
<rscale>  2 0.45653904E+03</rscale>
<asrwt>0</asrwt>
<pdfrwt beam="1">  1       21 0.83988674E-01 0.45653904E+03</pdfrwt>
<pdfrwt beam="2">  1       21 0.13417058E-01 0.45653904E+03</pdfrwt>
<totfact> 0.54332020E+04</totfact>
</mgrwt>
</event>
<event>
 7    0  0.4831799E-002  0.4625784E+03  0.7546771E-02  0.1024036E+00
         21   -1    0    0  502  501  0.00000000000E+00  0.00000000000E+00  0.37319819858E+02  0.37319819858E+02  0.00000000000E+00 0.  1.
         21   -1    0    0  501  502 -0.00000000000E+00 -0.00000000000E+00 -0.14334126361E+04  0.14334126361E+04  0.00000000000E+00 0.  1.
      99926    2    1    2    0    0  0.00000000000E+00  0.00000000000E+00 -0.13960928163E+04  0.14707324560E+04  0.46257843168E+03 0.  0.
      99925    2    3    3    0    0  0.80964241840E+02  0.87573792294E+02 -0.82742257953E+03  0.87637757563E+03  0.26303070618E+03 0.  0.
         25    1    4    4    0    0  0.23592046768E+02  0.52465129164E+02 -0.51678327813E+03  0.53480990931E+03  0.12509000000E+03 0.  0.
         25    1    4    4    0    0  0.57372195072E+02  0.35108663130E+02 -0.31063930141E+03  0.34156766632E+03  0.12509000000E+03 0.  0.
         25    1    3    3    0    0 -0.80964241840E+02 -0.87573792294E+02 -0.56867023675E+03  0.59435488037E+03  0.12509000000E+03 0.  0.
<mgrwt>
<rscale>  2 0.46257843E+03</rscale>
<asrwt>0</asrwt>
<pdfrwt beam="1">  1       21 0.54882097E-02 0.46257843E+03</pdfrwt>
<pdfrwt beam="2">  1       21 0.21079594E+00 0.46257843E+03</pdfrwt>
<totfact> 0.23114635E+04</totfact>
</mgrwt>
</event>
<event>
 7    0  0.4831799E-002  0.4550936E+03  0.7546771E-02  0.1026214E+00
         21   -1    0    0  502  501  0.00000000000E+00  0.00000000000E+00  0.11386409564E+03  0.11386409564E+03  0.00000000000E+00 0. -1.
         21   -1    0    0  501  502 -0.00000000000E+00 -0.00000000000E+00 -0.45473106560E+03  0.45473106560E+03  0.00000000000E+00 0. -1.
      99926    2    1    2    0    0  0.00000000000E+00  0.35527136788E-14 -0.34086696996E+03  0.56859516124E+03  0.45509357958E+03 0.  0.
      99925    2    3    3    0    0  0.53334532697E+02  0.30775528032E+02 -0.95747242456E+02  0.28659712150E+03  0.26301838360E+03 0.  0.
         25    1    3    3    0    0 -0.53334532697E+02 -0.30775528032E+02 -0.24511972750E+03  0.28199803973E+03  0.12509000000E+03 0.  0.
         25    1    4    4    0    0  0.54441638307E+02  0.34980980508E+02 -0.25695518634E+02  0.14316189701E+03  0.12509000000E+03 0.  0.
         25    1    4    4    0    0 -0.11071056104E+01 -0.42054524768E+01 -0.70051723822E+02  0.14343522449E+03  0.12509000000E+03 0.  0.
<mgrwt>
<rscale>  2 0.45509358E+03</rscale>
<asrwt>0</asrwt>
<pdfrwt beam="1">  1       21 0.16744720E-01 0.45509358E+03</pdfrwt>
<pdfrwt beam="2">  1       21 0.66872216E-01 0.45509358E+03</pdfrwt>
<totfact> 0.60609329E+04</totfact>
</mgrwt>
</event>
<event>
 7    0  0.4831799E-002  0.4585474E+03  0.7546771E-02  0.1025203E+00
         21   -1    0    0  502  501  0.00000000000E+00  0.00000000000E+00  0.53168599966E+02  0.53168599966E+02  0.00000000000E+00 0.  1.
         21   -1    0    0  501  502 -0.00000000000E+00 -0.00000000000E+00 -0.98867421334E+03  0.98867421334E+03  0.00000000000E+00 0.  1.
      99926    2    1    2    0    0 -0.14210854715E-13 -0.71054273576E-14 -0.93550561337E+03  0.10418428133E+04  0.45854737485E+03 0.  0.
      99925    2    3    3    0    0 -0.11206968834E+03 -0.25500472211E+02 -0.54432712368E+03  0.61537123391E+03  0.26302062434E+03 0.  0.
         25    1    3    3    0    0  0.11206968834E+03  0.25500472211E+02 -0.39117848970E+03  0.42647157939E+03  0.12509000000E+03 0.  0.
         25    1    4    4    0    0 -0.78889002538E+02 -0.42577404905E+02 -0.25290445507E+03  0.29604810695E+03  0.12509000000E+03 0.  0.
         25    1    4    4    0    0 -0.33180685805E+02  0.17076932693E+02 -0.29142266860E+03  0.31932312697E+03  0.12509000000E+03 0.  0.
<mgrwt>
<rscale>  2 0.45854737E+03</rscale>
<asrwt>0</asrwt>
<pdfrwt beam="1">  1       21 0.78189123E-02 0.45854737E+03</pdfrwt>
<pdfrwt beam="2">  1       21 0.14539326E+00 0.45854737E+03</pdfrwt>
<totfact> 0.36555355E+04</totfact>
</mgrwt>
</event>
<event>
 7    0  0.4831799E-002  0.4544562E+03  0.7546771E-02  0.1026401E+00
         21   -1    0    0  502  501  0.00000000000E+00  0.00000000000E+00  0.28054991033E+02  0.28054991033E+02  0.00000000000E+00 0.  1.
         21   -1    0    0  501  502 -0.00000000000E+00 -0.00000000000E+00 -0.18404075718E+04  0.18404075718E+04  0.00000000000E+00 0.  1.
      99926    2    1    2    0    0  0.00000000000E+00 -0.44408920985E-15 -0.18123525808E+04  0.18684625629E+04  0.45445623739E+03 0.  0.
      99925    2    3    3    0    0  0.10653578193E+03  0.88875895687E+00 -0.12913181815E+04  0.13221338924E+04  0.26302988627E+03 0.  0.
         25    1    4    4    0    0  0.43355235304E+02 -0.71069255145E+01 -0.80950178165E+03  0.82028703965E+03  0.12509000000E+03 0.  0.
         25    1    3    3    0    0 -0.10653578193E+03 -0.88875895687E+00 -0.52103439936E+03  0.54632867043E+03  0.12509000000E+03 0.  0.
         25    1    4    4    0    0  0.63180546625E+02  0.79956844714E+01 -0.48181639981E+03  0.50184685280E+03  0.12509000000E+03 0.  0.
<mgrwt>
<rscale>  2 0.45445624E+03</rscale>
<asrwt>0</asrwt>
<pdfrwt beam="1">  1       21 0.41257331E-02 0.45445624E+03</pdfrwt>
<pdfrwt beam="2">  1       21 0.27064823E+00 0.45445624E+03</pdfrwt>
<totfact> 0.16046220E+04</totfact>
</mgrwt>
</event>
<event>
 7    0  0.4831799E-002  0.4510287E+03  0.7546771E-02  0.1027416E+00
         21   -1    0    0  502  501  0.00000000000E+00  0.00000000000E+00  0.22515873799E+03  0.22515873799E+03  0.00000000000E+00 0. -1.
         21   -1    0    0  501  502 -0.00000000000E+00 -0.00000000000E+00 -0.22587055274E+03  0.22587055274E+03  0.00000000000E+00 0. -1.
      99926    2    1    2    0    0  0.71054273576E-14 -0.71054273576E-14 -0.71181474614E+00  0.45102929073E+03  0.45102872903E+03 0.  0.
      99925    2    3    3    0    0  0.32990986272E+02 -0.56031469712E+02  0.87529107260E+02  0.28471062313E+03  0.26300354282E+03 0.  0.
         25    1    4    4    0    0  0.30059050373E+01 -0.51588113361E+02  0.12967824572E+02  0.13596338286E+03  0.12509000000E+03 0.  0.
         25    1    4    4    0    0  0.29985081235E+02 -0.44433563506E+01  0.74561282688E+02  0.14874724027E+03  0.12509000000E+03 0.  0.
         25    1    3    3    0    0 -0.32990986272E+02  0.56031469712E+02 -0.88240922006E+02  0.16631866759E+03  0.12509000000E+03 0.  0.
<mgrwt>
<rscale>  2 0.45102873E+03</rscale>
<asrwt>0</asrwt>
<pdfrwt beam="1">  1       21 0.33111579E-01 0.45102873E+03</pdfrwt>
<pdfrwt beam="2">  1       21 0.33216257E-01 0.45102873E+03</pdfrwt>
<totfact> 0.71062852E+04</totfact>
</mgrwt>
</event>
<event>
 7    0  0.4831799E-002  0.4411594E+03  0.7546771E-02  0.1030392E+00
         21   -1    0    0  502  501  0.00000000000E+00  0.00000000000E+00  0.71316423922E+02  0.71316423922E+02  0.00000000000E+00 0. -1.
         21   -1    0    0  501  502 -0.00000000000E+00 -0.00000000000E+00 -0.68224695695E+03  0.68224695695E+03  0.00000000000E+00 0. -1.
      99926    2    1    2    0    0  0.17763568394E-14  0.35527136788E-14 -0.61093053302E+03  0.75356338087E+03  0.44115944148E+03 0.  0.
      99925    2    3    3    0    0 -0.36568106929E+01 -0.15587464627E+02 -0.55739998760E+03  0.61656203522E+03  0.26305447301E+03 0.  0.
         25    1    4    4    0    0  0.29384225042E+02 -0.75681458607E+01 -0.33866557061E+03  0.36230178903E+03  0.12509000000E+03 0.  0.
         25    1    4    4    0    0 -0.33041035735E+02 -0.80193187661E+01 -0.21873441699E+03  0.25426024619E+03  0.12509000000E+03 0.  0.
         25    1    3    3    0    0  0.36568106929E+01  0.15587464627E+02 -0.53530545420E+02  0.13700134565E+03  0.12509000000E+03 0.  0.
<mgrwt>
<rscale>  2 0.44115944E+03</rscale>
<asrwt>0</asrwt>
<pdfrwt beam="1">  1       21 0.10487709E-01 0.44115944E+03</pdfrwt>
<pdfrwt beam="2">  1       21 0.10033044E+00 0.44115944E+03</pdfrwt>
<totfact> 0.55926902E+04</totfact>
</mgrwt>
</event>
<event>
 7    0  0.4831799E-002  0.4514568E+03  0.7546771E-02  0.1027288E+00
         21   -1    0    0  502  501  0.00000000000E+00  0.00000000000E+00  0.94098087169E+03  0.94098087169E+03  0.00000000000E+00 0.  1.
         21   -1    0    0  501  502 -0.00000000000E+00 -0.00000000000E+00 -0.54149149358E+02  0.54149149358E+02  0.00000000000E+00 0.  1.
      99926    2    1    2    0    0  0.00000000000E+00  0.71054273576E-14  0.88683172233E+03  0.99513002104E+03  0.45145681416E+03 0.  0.
      99925    2    3    3    0    0  0.37665678895E+02 -0.56468474590E+02  0.36954887503E+03  0.45862611220E+03  0.26299077507E+03 0.  0.
         25    1    3    3    0    0 -0.37665678895E+02  0.56468474590E+02  0.51728284730E+03  0.53650390884E+03  0.12509000000E+03 0.  0.
         25    1    4    4    0    0 -0.10731231555E+02 -0.11619663315E+02  0.13487790775E+03  0.18463405429E+03  0.12509000000E+03 0.  0.
         25    1    4    4    0    0  0.48396910450E+02 -0.44848811275E+02  0.23467096728E+03  0.27399205791E+03  0.12509000000E+03 0.  0.
<mgrwt>
<rscale>  2 0.45145681E+03</rscale>
<asrwt>0</asrwt>
<pdfrwt beam="1">  1       21 0.13837953E+00 0.45145681E+03</pdfrwt>
<pdfrwt beam="2">  1       21 0.79631108E-02 0.45145681E+03</pdfrwt>
<totfact> 0.40464993E+04</totfact>
</mgrwt>
</event>
<event>
 7    0  0.4831799E-002  0.4537842E+03  0.7546771E-02  0.1026600E+00
         21   -1    0    0  502  501  0.00000000000E+00  0.00000000000E+00  0.12493289195E+04  0.12493289195E+04  0.00000000000E+00 0. -1.
         21   -1    0    0  501  502 -0.00000000000E+00 -0.00000000000E+00 -0.41206148886E+02  0.41206148886E+02  0.00000000000E+00 0. -1.
      99926    2    1    2    0    0  0.14210854715E-13  0.26645352591E-14  0.12081227706E+04  0.12905350684E+04  0.45378423713E+03 0.  0.
      99925    2    3    3    0    0 -0.11134619834E+03 -0.79002100434E+01  0.77785498720E+03  0.82875778143E+03  0.26328822603E+03 0.  0.
         25    1    4    4    0    0 -0.37132690535E+02  0.21996733697E+02  0.28911443003E+03  0.31795810219E+03  0.12509000000E+03 0.  0.
         25    1    4    4    0    0 -0.74213507810E+02 -0.29896943740E+02  0.48874055717E+03  0.51079967924E+03  0.12509000000E+03 0.  0.
         25    1    3    3    0    0  0.11134619834E+03  0.79002100434E+01  0.43026778344E+03  0.46177728698E+03  0.12509000000E+03 0.  0.
<mgrwt>
<rscale>  2 0.45378424E+03</rscale>
<asrwt>0</asrwt>
<pdfrwt beam="1">  1       21 0.18372482E+00 0.45378424E+03</pdfrwt>
<pdfrwt beam="2">  1       21 0.60597286E-02 0.45378424E+03</pdfrwt>
<totfact> 0.29670425E+04</totfact>
</mgrwt>
</event>
<event>
 7    0  0.4831799E-002  0.4527133E+03  0.7546771E-02  0.1026916E+00
         21   -1    0    0  502  501  0.00000000000E+00  0.00000000000E+00  0.18245577168E+03  0.18245577168E+03  0.00000000000E+00 0. -1.
         21   -1    0    0  501  502 -0.00000000000E+00 -0.00000000000E+00 -0.28082058300E+03  0.28082058300E+03  0.00000000000E+00 0. -1.
      99926    2    1    2    0    0  0.00000000000E+00 -0.14210854715E-13 -0.98364811324E+02  0.46327635468E+03  0.45271331403E+03 0.  0.
      99925    2    3    3    0    0 -0.33293896227E+02  0.10565982585E+03 -0.69213236299E+02  0.29365971413E+03  0.26300774380E+03 0.  0.
         25    1    3    3    0    0  0.33293896227E+02 -0.10565982585E+03 -0.29151575025E+02  0.16961664055E+03  0.12509000000E+03 0.  0.
         25    1    4    4    0    0 -0.30859175723E+02  0.19022168468E+02 -0.53028983513E+02  0.14061903432E+03  0.12509000000E+03 0.  0.
         25    1    4    4    0    0 -0.24347205043E+01  0.86637657383E+02 -0.16184252786E+02  0.15304067982E+03  0.12509000000E+03 0.  0.
<mgrwt>
<rscale>  2 0.45271331E+03</rscale>
<asrwt>0</asrwt>
<pdfrwt beam="1">  1       21 0.26831731E-01 0.45271331E+03</pdfrwt>
<pdfrwt beam="2">  1       21 0.41297144E-01 0.45271331E+03</pdfrwt>
<totfact> 0.69186022E+04</totfact>
</mgrwt>
</event>
<event>
 7    0  0.4831799E-002  0.4570264E+03  0.7546771E-02  0.1025647E+00
         21   -1    0    0  502  501  0.00000000000E+00  0.00000000000E+00  0.98245980380E+02  0.98245980380E+02  0.00000000000E+00 0. -1.
         21   -1    0    0  501  502 -0.00000000000E+00 -0.00000000000E+00 -0.53150564478E+03  0.53150564478E+03  0.00000000000E+00 0. -1.
      99926    2    1    2    0    0  0.71054273576E-14  0.14210854715E-13 -0.43325966440E+03  0.62975162516E+03  0.45702644628E+03 0.  0.
      99925    2    3    3    0    0  0.58147042670E+02  0.64919921842E+02 -0.37540541349E+03  0.46668630919E+03  0.26319424744E+03 0.  0.
         25    1    3    3    0    0 -0.58147042670E+02 -0.64919921842E+02 -0.57854250910E+02  0.16306531597E+03  0.12509000000E+03 0.  0.
         25    1    4    4    0    0  0.33667069922E+02  0.10090361757E+02 -0.23941942616E+03  0.27240494988E+03  0.12509000000E+03 0.  0.
         25    1    4    4    0    0  0.24479972748E+02  0.54829560086E+02 -0.13598598733E+03  0.19428135931E+03  0.12509000000E+03 0.  0.
<mgrwt>
<rscale>  2 0.45702645E+03</rscale>
<asrwt>0</asrwt>
<pdfrwt beam="1">  1       21 0.14447938E-01 0.45702645E+03</pdfrwt>
<pdfrwt beam="2">  1       21 0.78162595E-01 0.45702645E+03</pdfrwt>
<totfact> 0.55982395E+04</totfact>
</mgrwt>
</event>
<event>
 7    0  0.4831799E-002  0.4556213E+03  0.7546771E-02  0.1026059E+00
         21   -1    0    0  502  501  0.00000000000E+00  0.00000000000E+00  0.14457066808E+04  0.14457066808E+04  0.00000000000E+00 0. -1.
         21   -1    0    0  501  502 -0.00000000000E+00 -0.00000000000E+00 -0.35897803081E+02  0.35897803081E+02  0.00000000000E+00 0. -1.
      99926    2    1    2    0    0  0.00000000000E+00  0.00000000000E+00  0.14098088777E+04  0.14816044839E+04  0.45562130652E+03 0.  0.
      99925    2    3    3    0    0  0.52769351794E+02 -0.77745237994E+02  0.67795699440E+03  0.73321714184E+03  0.26296913184E+03 0.  0.
         25    1    3    3    0    0 -0.52769351794E+02  0.77745237994E+02  0.73185188332E+03  0.74838734205E+03  0.12509000000E+03 0.  0.
         25    1    4    4    0    0  0.65217214390E+01 -0.13967305165E+01  0.28732401511E+03  0.31344390482E+03  0.12509000000E+03 0.  0.
         25    1    4    4    0    0  0.46247630355E+02 -0.76348507478E+02  0.39063297929E+03  0.41977323702E+03  0.12509000000E+03 0.  0.
<mgrwt>
<rscale>  2 0.45562131E+03</rscale>
<asrwt>0</asrwt>
<pdfrwt beam="1">  1       21 0.21260389E+00 0.45562131E+03</pdfrwt>
<pdfrwt beam="2">  1       21 0.52790896E-02 0.45562131E+03</pdfrwt>
<totfact> 0.24116994E+04</totfact>
</mgrwt>
</event>
<event>
 7    0  0.4831799E-002  0.4514949E+03  0.7546771E-02  0.1027277E+00
         21   -1    0    0  502  501  0.00000000000E+00  0.00000000000E+00  0.60163319170E+03  0.60163319170E+03  0.00000000000E+00 0.  1.
         21   -1    0    0  501  502 -0.00000000000E+00 -0.00000000000E+00 -0.84705936741E+02  0.84705936741E+02  0.00000000000E+00 0.  1.
      99926    2    1    2    0    0  0.17763568394E-14  0.00000000000E+00  0.51692725496E+03  0.68633912844E+03  0.45149486410E+03 0.  0.
      99925    2    3    3    0    0 -0.15484769409E+02 -0.84297450269E+02  0.43067075171E+03  0.51188704144E+03  0.26306882866E+03 0.  0.
         25    1    3    3    0    0  0.15484769409E+02  0.84297450269E+02  0.86256503250E+02  0.17445208700E+03  0.12509000000E+03 0.  0.
         25    1    4    4    0    0 -0.33313378669E+02 -0.25841219516E+02  0.15928017143E+03  0.20687008226E+03  0.12509000000E+03 0.  0.
         25    1    4    4    0    0  0.17828609260E+02 -0.58456230753E+02  0.27139058028E+03  0.30501695918E+03  0.12509000000E+03 0.  0.
<mgrwt>
<rscale>  2 0.45149486E+03</rscale>
<asrwt>0</asrwt>
<pdfrwt beam="1">  1       21 0.88475467E-01 0.45149486E+03</pdfrwt>
<pdfrwt beam="2">  1       21 0.12456756E-01 0.45149486E+03</pdfrwt>
<totfact> 0.55157515E+04</totfact>
</mgrwt>
</event>
<event>
 7    0  0.4831799E-002  0.4607339E+03  0.7546771E-02  0.1024569E+00
         21   -1    0    0  502  501  0.00000000000E+00  0.00000000000E+00  0.15344044529E+03  0.15344044529E+03  0.00000000000E+00 0. -1.
         21   -1    0    0  501  502 -0.00000000000E+00 -0.00000000000E+00 -0.34586015375E+03  0.34586015375E+03  0.00000000000E+00 0. -1.
      99926    2    1    2    0    0 -0.71054273576E-14  0.71054273576E-14 -0.19241970846E+03  0.49930059904E+03  0.46073391886E+03 0.  0.
      99925    2    3    3    0    0 -0.58743843813E+02  0.59220224111E+02 -0.21150351881E+03  0.34774343475E+03  0.26312332434E+03 0.  0.
         25    1    4    4    0    0  0.57740271851E+00  0.28935710629E+02 -0.64990107529E+02  0.14390563200E+03  0.12509000000E+03 0.  0.
         25    1    3    3    0    0  0.58743843813E+02 -0.59220224111E+02  0.19083810342E+02  0.15155716429E+03  0.12509000000E+03 0.  0.
         25    1    4    4    0    0 -0.59321246532E+02  0.30284513482E+02 -0.14651341128E+03  0.20383780275E+03  0.12509000000E+03 0.  0.
<mgrwt>
<rscale>  2 0.46073392E+03</rscale>
<asrwt>0</asrwt>
<pdfrwt beam="1">  1       21 0.22564772E-01 0.46073392E+03</pdfrwt>
<pdfrwt beam="2">  1       21 0.50861787E-01 0.46073392E+03</pdfrwt>
<totfact> 0.62429378E+04</totfact>
</mgrwt>
</event>
<event>
 7    0  0.4831799E-002  0.4647204E+03  0.7546771E-02  0.1023421E+00
         21   -1    0    0  502  501  0.00000000000E+00  0.00000000000E+00  0.46274149611E+03  0.46274149611E+03  0.00000000000E+00 0.  1.
         21   -1    0    0  501  502 -0.00000000000E+00 -0.00000000000E+00 -0.11667694630E+03  0.11667694630E+03  0.00000000000E+00 0.  1.
      99926    2    1    2    0    0 -0.14210854715E-13  0.00000000000E+00  0.34606454982E+03  0.57941844241E+03  0.46472040924E+03 0.  0.
      99925    2    3    3    0    0  0.89338930068E+02  0.71183805567E+02  0.26963634589E+03  0.39357615160E+03  0.26296358964E+03 0.  0.
         25    1    3    3    0    0 -0.89338930068E+02 -0.71183805567E+02  0.76428203921E+02  0.18584229081E+03  0.12509000000E+03 0.  0.
         25    1    4    4    0    0  0.11834109003E+02  0.71266242167E+01  0.12833158743E+03  0.17974242499E+03  0.12509000000E+03 0.  0.
         25    1    4    4    0    0  0.77504821065E+02  0.64057181350E+02  0.14130475847E+03  0.21383372661E+03  0.12509000000E+03 0.  0.
<mgrwt>
<rscale>  2 0.46472041E+03</rscale>
<asrwt>0</asrwt>
<pdfrwt beam="1">  1       21 0.68050220E-01 0.46472041E+03</pdfrwt>
<pdfrwt beam="2">  1       21 0.17158375E-01 0.46472041E+03</pdfrwt>
<totfact> 0.55568176E+04</totfact>
</mgrwt>
</event>
<event>
 7    0  0.4831799E-002  0.4622074E+03  0.7546771E-02  0.1024143E+00
         21   -1    0    0  502  501  0.00000000000E+00  0.00000000000E+00  0.14474360251E+03  0.14474360251E+03  0.00000000000E+00 0. -1.
         21   -1    0    0  501  502 -0.00000000000E+00 -0.00000000000E+00 -0.36898978186E+03  0.36898978186E+03  0.00000000000E+00 0. -1.
      99926    2    1    2    0    0  0.00000000000E+00  0.00000000000E+00 -0.22424617934E+03  0.51373338437E+03  0.46220735743E+03 0.  0.
      99925    2    3    3    0    0  0.93798307892E+02 -0.18403386260E+02 -0.22047208408E+03  0.35625780187E+03  0.26301116772E+03 0.  0.
         25    1    3    3    0    0 -0.93798307892E+02  0.18403386260E+02 -0.37740952619E+01  0.15747558250E+03  0.12509000000E+03 0.  0.
         25    1    4    4    0    0  0.36755057134E+02 -0.23455989093E+02 -0.61586444148E+02  0.14608735692E+03  0.12509000000E+03 0.  0.
         25    1    4    4    0    0  0.57043250758E+02  0.50526028333E+01 -0.15888563993E+03  0.21017044495E+03  0.12509000000E+03 0.  0.
<mgrwt>
<rscale>  2 0.46220736E+03</rscale>
<asrwt>0</asrwt>
<pdfrwt beam="1">  1       21 0.21285824E-01 0.46220736E+03</pdfrwt>
<pdfrwt beam="2">  1       21 0.54263203E-01 0.46220736E+03</pdfrwt>
<totfact> 0.60765334E+04</totfact>
</mgrwt>
</event>
<event>
 7    0  0.4831799E-002  0.4553511E+03  0.7546771E-02  0.1026138E+00
         21   -1    0    0  502  501  0.00000000000E+00  0.00000000000E+00  0.50873277725E+02  0.50873277725E+02  0.00000000000E+00 0. -1.
         21   -1    0    0  501  502 -0.00000000000E+00 -0.00000000000E+00 -0.10189272200E+04  0.10189272200E+04  0.00000000000E+00 0. -1.
      99926    2    1    2    0    0  0.00000000000E+00 -0.35527136788E-14 -0.96805394232E+03  0.10698004978E+04  0.45535114998E+03 0.  0.
      99925    2    3    3    0    0  0.74959986798E+02 -0.28355109314E+02 -0.42126731334E+03  0.50319116359E+03  0.26327207597E+03 0.  0.
         25    1    3    3    0    0 -0.74959986798E+02  0.28355109314E+02 -0.54678662898E+03  0.56660933418E+03  0.12509000000E+03 0.  0.
         25    1    4    4    0    0  0.26774215803E+02  0.25077178598E+02 -0.18430901262E+03  0.22574995847E+03  0.12509000000E+03 0.  0.
         25    1    4    4    0    0  0.48185770994E+02 -0.53432287912E+02 -0.23695830072E+03  0.27744120512E+03  0.12509000000E+03 0.  0.
<mgrwt>
<rscale>  2 0.45535115E+03</rscale>
<asrwt>0</asrwt>
<pdfrwt beam="1">  1       21 0.74813646E-02 0.45535115E+03</pdfrwt>
<pdfrwt beam="2">  1       21 0.14984223E+00 0.45535115E+03</pdfrwt>
<totfact> 0.36459131E+04</totfact>
</mgrwt>
</event>
<event>
 7    0  0.4831799E-002  0.4555228E+03  0.7546771E-02  0.1026088E+00
         21   -1    0    0  502  501  0.00000000000E+00  0.00000000000E+00  0.26427049805E+03  0.26427049805E+03  0.00000000000E+00 0. -1.
         21   -1    0    0  501  502 -0.00000000000E+00 -0.00000000000E+00 -0.19629604698E+03  0.19629604698E+03  0.00000000000E+00 0. -1.
      99926    2    1    2    0    0 -0.71054273576E-14  0.14210854715E-13  0.67974451073E+02  0.46056654503E+03  0.45552279461E+03 0.  0.
      99925    2    3    3    0    0  0.51468442045E+02 -0.72933455129E+02  0.11368113138E+03  0.30023907350E+03  0.26315739058E+03 0.  0.
         25    1    3    3    0    0 -0.51468442045E+02  0.72933455129E+02 -0.45706680312E+02  0.16032747153E+03  0.12509000000E+03 0.  0.
         25    1    4    4    0    0 -0.68751521323E+01 -0.61002062751E+02  0.56462932008E+02  0.15034656686E+03  0.12509000000E+03 0.  0.
         25    1    4    4    0    0  0.58343594177E+02 -0.11931392378E+02  0.57218199376E+02  0.14989250664E+03  0.12509000000E+03 0.  0.
<mgrwt>
<rscale>  2 0.45552279E+03</rscale>
<asrwt>0</asrwt>
<pdfrwt beam="1">  1       21 0.38863309E-01 0.45552279E+03</pdfrwt>
<pdfrwt beam="2">  1       21 0.28867066E-01 0.45552279E+03</pdfrwt>
<totfact> 0.67855961E+04</totfact>
</mgrwt>
</event>
<event>
 7    0  0.4831799E-002  0.4534430E+03  0.7546771E-02  0.1026700E+00
         21   -1    0    0  502  501  0.00000000000E+00  0.00000000000E+00  0.15183957508E+03  0.15183957508E+03  0.00000000000E+00 0. -1.
         21   -1    0    0  501  502 -0.00000000000E+00 -0.00000000000E+00 -0.33853255246E+03  0.33853255246E+03  0.00000000000E+00 0. -1.
      99926    2    1    2    0    0  0.00000000000E+00 -0.88817841970E-15 -0.18669297738E+03  0.49037212754E+03  0.45344300156E+03 0.  0.
      99925    2    3    3    0    0 -0.10259059117E+03  0.64640784945E+01 -0.16495761467E+03  0.32701194941E+03  0.26298134289E+03 0.  0.
         25    1    4    4    0    0 -0.75745373634E+02 -0.22824430336E+02 -0.63186858678E+02  0.16092980910E+03  0.12509000000E+03 0.  0.
         25    1    4    4    0    0 -0.26845217535E+02  0.29288508830E+02 -0.10177075600E+03  0.16608214031E+03  0.12509000000E+03 0.  0.
         25    1    3    3    0    0  0.10259059117E+03 -0.64640784945E+01 -0.21735362707E+02  0.16336017813E+03  0.12509000000E+03 0.  0.
<mgrwt>
<rscale>  2 0.45344300E+03</rscale>
<asrwt>0</asrwt>
<pdfrwt beam="1">  1       21 0.22329350E-01 0.45344300E+03</pdfrwt>
<pdfrwt beam="2">  1       21 0.49784198E-01 0.45344300E+03</pdfrwt>
<totfact> 0.66774034E+04</totfact>
</mgrwt>
</event>
<event>
 7    0  0.4831799E-002  0.4531961E+03  0.7546771E-02  0.1026773E+00
         21   -1    0    0  502  501  0.00000000000E+00  0.00000000000E+00  0.12166921377E+04  0.12166921377E+04  0.00000000000E+00 0.  1.
         21   -1    0    0  501  502 -0.00000000000E+00 -0.00000000000E+00 -0.42201865760E+02  0.42201865760E+02  0.00000000000E+00 0.  1.
      99926    2    1    2    0    0  0.00000000000E+00 -0.71054273576E-14  0.11744902719E+04  0.12588940035E+04  0.45319610884E+03 0.  0.
      99925    2    3    3    0    0 -0.74407765961E+02  0.56944471940E+02  0.57243456019E+03  0.63688292907E+03  0.26298165547E+03 0.  0.
         25    1    4    4    0    0  0.39406731538E+01  0.25417319930E+02  0.28213602171E+03  0.30969309308E+03  0.12509000000E+03 0.  0.
         25    1    3    3    0    0  0.74407765961E+02 -0.56944471940E+02  0.60205571174E+03  0.62201107439E+03  0.12509000000E+03 0.  0.
         25    1    4    4    0    0 -0.78348439115E+02  0.31527152010E+02  0.29029853848E+03  0.32718983598E+03  0.12509000000E+03 0.  0.
<mgrwt>
<rscale>  2 0.45319611E+03</rscale>
<asrwt>0</asrwt>
<pdfrwt beam="1">  1       21 0.17892529E+00 0.45319611E+03</pdfrwt>
<pdfrwt beam="2">  1       21 0.62061575E-02 0.45319611E+03</pdfrwt>
<totfact> 0.30761909E+04</totfact>
</mgrwt>
</event>
<event>
 7    0  0.4831799E-002  0.4534763E+03  0.7546771E-02  0.1026690E+00
         21   -1    0    0  502  501  0.00000000000E+00  0.00000000000E+00  0.34715477587E+02  0.34715477587E+02  0.00000000000E+00 0.  1.
         21   -1    0    0  501  502 -0.00000000000E+00 -0.00000000000E+00 -0.14809008924E+04  0.14809008924E+04  0.00000000000E+00 0.  1.
      99926    2    1    2    0    0 -0.71054273576E-14  0.00000000000E+00 -0.14461854148E+04  0.15156163699E+04  0.45347626944E+03 0.  0.
      99925    2    3    3    0    0 -0.44592725541E+02  0.27425385723E+02 -0.58120625744E+03  0.64007247403E+03  0.26296652899E+03 0.  0.
         25    1    4    4    0    0  0.17393755939E+02  0.20993196459E+02 -0.29415670379E+03  0.32080980585E+03  0.12509000000E+03 0.  0.
         25    1    4    4    0    0 -0.61986481480E+02  0.64321892640E+01 -0.28704955365E+03  0.31926266818E+03  0.12509000000E+03 0.  0.
         25    1    3    3    0    0  0.44592725541E+02 -0.27425385723E+02 -0.86497915733E+03  0.87554389591E+03  0.12509000000E+03 0.  0.
<mgrwt>
<rscale>  2 0.45347627E+03</rscale>
<asrwt>0</asrwt>
<pdfrwt beam="1">  1       21 0.51052168E-02 0.45347627E+03</pdfrwt>
<pdfrwt beam="2">  1       21 0.21777957E+00 0.45347627E+03</pdfrwt>
<totfact> 0.23677949E+04</totfact>
</mgrwt>
</event>
<event>
 7    0  0.4831799E-002  0.4606190E+03  0.7546771E-02  0.1024602E+00
         21   -1    0    0  502  501  0.00000000000E+00  0.00000000000E+00  0.33761825698E+03  0.33761825698E+03  0.00000000000E+00 0. -1.
         21   -1    0    0  501  502 -0.00000000000E+00 -0.00000000000E+00 -0.15710780957E+03  0.15710780957E+03  0.00000000000E+00 0. -1.
      99926    2    1    2    0    0  0.00000000000E+00  0.00000000000E+00  0.18051044741E+03  0.49472606655E+03  0.46061899581E+03 0.  0.
      99925    2    3    3    0    0 -0.18798724991E+02  0.11246252414E+03  0.14691114870E+03  0.32216409979E+03  0.26306959190E+03 0.  0.
         25    1    3    3    0    0  0.18798724991E+02 -0.11246252414E+03  0.33599298706E+02  0.17256196676E+03  0.12509000000E+03 0.  0.
         25    1    4    4    0    0 -0.38337092483E+02  0.60734149957E+02  0.43360625975E+02  0.15061879569E+03  0.12509000000E+03 0.  0.
         25    1    4    4    0    0  0.19538367493E+02  0.51728374187E+02  0.10355052273E+03  0.17154530410E+03  0.12509000000E+03 0.  0.
<mgrwt>
<rscale>  2 0.46061900E+03</rscale>
<asrwt>0</asrwt>
<pdfrwt beam="1">  1       21 0.49649744E-01 0.46061900E+03</pdfrwt>
<pdfrwt beam="2">  1       21 0.23104090E-01 0.46061900E+03</pdfrwt>
<totfact> 0.62794590E+04</totfact>
</mgrwt>
</event>
<event>
 7    0  0.4831799E-002  0.4438372E+03  0.7546771E-02  0.1029576E+00
         21   -1    0    0  502  501  0.00000000000E+00  0.00000000000E+00  0.42588987545E+03  0.42588987545E+03  0.00000000000E+00 0.  1.
         21   -1    0    0  501  502 -0.00000000000E+00 -0.00000000000E+00 -0.11563521488E+03  0.11563521488E+03  0.00000000000E+00 0.  1.
      99926    2    1    2    0    0  0.14210854715E-13 -0.71054273576E-14  0.31025466057E+03  0.54152509033E+03  0.44383721008E+03 0.  0.
      99925    2    3    3    0    0  0.96954620159E+02 -0.32296172416E+02  0.18948862056E+03  0.33984418979E+03  0.26295416880E+03 0.  0.
         25    1    4    4    0    0  0.84345178404E+02 -0.14792205480E+02  0.76023061348E+02  0.16958753616E+03  0.12509000000E+03 0.  0.
         25    1    3    3    0    0 -0.96954620159E+02  0.32296172416E+02  0.12076604001E+03  0.20168090054E+03  0.12509000000E+03 0.  0.
         25    1    4    4    0    0  0.12609441756E+02 -0.17503966936E+02  0.11346555921E+03  0.17025665363E+03  0.12509000000E+03 0.  0.
<mgrwt>
<rscale>  2 0.44383721E+03</rscale>
<asrwt>0</asrwt>
<pdfrwt beam="1">  1       21 0.62630864E-01 0.44383721E+03</pdfrwt>
<pdfrwt beam="2">  1       21 0.17005179E-01 0.44383721E+03</pdfrwt>
<totfact> 0.68263279E+04</totfact>
</mgrwt>
</event>
<event>
 7    0  0.4831799E-002  0.4547570E+03  0.7546771E-02  0.1026313E+00
         21   -1    0    0  502  501  0.00000000000E+00  0.00000000000E+00  0.61654933176E+02  0.61654933176E+02  0.00000000000E+00 0.  1.
         21   -1    0    0  501  502 -0.00000000000E+00 -0.00000000000E+00 -0.83855374579E+03  0.83855374579E+03  0.00000000000E+00 0.  1.
      99926    2    1    2    0    0  0.00000000000E+00 -0.71054273576E-14 -0.77689881261E+03  0.90020867896E+03  0.45475696877E+03 0.  0.
      99925    2    3    3    0    0  0.33900864903E+02 -0.56403660962E+02 -0.30700726955E+03  0.40951915191E+03  0.26291030908E+03 0.  0.
         25    1    4    4    0    0  0.20822386931E+02 -0.49862748357E+01 -0.98512281065E+02  0.16065681546E+03  0.12509000000E+03 0.  0.
         25    1    4    4    0    0  0.13078477972E+02 -0.51417386126E+02 -0.20849498848E+03  0.24886233645E+03  0.12509000000E+03 0.  0.
         25    1    3    3    0    0 -0.33900864903E+02  0.56403660962E+02 -0.46989154306E+03  0.49068952705E+03  0.12509000000E+03 0.  0.
<mgrwt>
<rscale>  2 0.45475697E+03</rscale>
<asrwt>0</asrwt>
<pdfrwt beam="1">  1       21 0.90669021E-02 0.45475697E+03</pdfrwt>
<pdfrwt beam="2">  1       21 0.12331673E+00 0.45475697E+03</pdfrwt>
<totfact> 0.43307012E+04</totfact>
</mgrwt>
</event>
<event>
 7    0  0.4831799E-002  0.4530735E+03  0.7546771E-02  0.1026809E+00
         21   -1    0    0  502  501  0.00000000000E+00  0.00000000000E+00  0.17581553217E+03  0.17581553217E+03  0.00000000000E+00 0. -1.
         21   -1    0    0  501  502 -0.00000000000E+00 -0.00000000000E+00 -0.29189055593E+03  0.29189055593E+03  0.00000000000E+00 0. -1.
      99926    2    1    2    0    0 -0.35527136788E-14  0.00000000000E+00 -0.11607502376E+03  0.46770608810E+03  0.45307347495E+03 0.  0.
      99925    2    3    3    0    0 -0.18681118020E+02  0.86377794004E+02 -0.14305501136E+03  0.31218909450E+03  0.26303457374E+03 0.  0.
         25    1    4    4    0    0 -0.36455278798E+02  0.67851675109E+02 -0.54034272541E+02  0.15652491136E+03  0.12509000000E+03 0.  0.
         25    1    4    4    0    0  0.17774160778E+02  0.18526118895E+02 -0.89020738823E+02  0.15566418314E+03  0.12509000000E+03 0.  0.
         25    1    3    3    0    0  0.18681118020E+02 -0.86377794004E+02  0.26979987605E+02  0.15551699360E+03  0.12509000000E+03 0.  0.
<mgrwt>
<rscale>  2 0.45307347E+03</rscale>
<asrwt>0</asrwt>
<pdfrwt beam="1">  1       21 0.25855226E-01 0.45307347E+03</pdfrwt>
<pdfrwt beam="2">  1       21 0.42925081E-01 0.45307347E+03</pdfrwt>
<totfact> 0.68649898E+04</totfact>
</mgrwt>
</event>
<event>
 7    0  0.4831799E-002  0.4456510E+03  0.7546771E-02  0.1029027E+00
         21   -1    0    0  502  501  0.00000000000E+00  0.00000000000E+00  0.24822054619E+03  0.24822054619E+03  0.00000000000E+00 0.  1.
         21   -1    0    0  501  502 -0.00000000000E+00 -0.00000000000E+00 -0.20002861379E+03  0.20002861379E+03  0.00000000000E+00 0.  1.
      99926    2    1    2    0    0  0.11102230246E-14  0.14210854715E-13  0.48191932402E+02  0.44824915998E+03  0.44565103733E+03 0.  0.
      99925    2    3    3    0    0  0.18717981762E+01  0.10287976610E+03  0.13435304571E+02  0.28258902241E+03  0.26284652989E+03 0.  0.
         25    1    4    4    0    0 -0.26826481834E+02  0.20100696198E+02  0.36363550265E+01  0.12955473474E+03  0.12509000000E+03 0.  0.
         25    1    4    4    0    0  0.28698280010E+02  0.82779069903E+02  0.97989495441E+01  0.15303428767E+03  0.12509000000E+03 0.  0.
         25    1    3    3    0    0 -0.18717981762E+01 -0.10287976610E+03  0.34756627832E+02  0.16566013757E+03  0.12509000000E+03 0.  0.
<mgrwt>
<rscale>  2 0.44565104E+03</rscale>
<asrwt>0</asrwt>
<pdfrwt beam="1">  1       21 0.36503022E-01 0.44565104E+03</pdfrwt>
<pdfrwt beam="2">  1       21 0.29415973E-01 0.44565104E+03</pdfrwt>
<totfact> 0.74442854E+04</totfact>
</mgrwt>
</event>
<event>
 7    0  0.4831799E-002  0.4544540E+03  0.7546771E-02  0.1026402E+00
         21   -1    0    0  502  501  0.00000000000E+00  0.00000000000E+00  0.15082081181E+03  0.15082081181E+03  0.00000000000E+00 0. -1.
         21   -1    0    0  501  502 -0.00000000000E+00 -0.00000000000E+00 -0.34234070184E+03  0.34234070184E+03  0.00000000000E+00 0. -1.
      99926    2    1    2    0    0  0.00000000000E+00 -0.71054273576E-14 -0.19151989003E+03  0.49316151364E+03  0.45445396936E+03 0.  0.
      99925    2    3    3    0    0  0.42281618551E+02  0.42540002707E+02 -0.22356624719E+03  0.35078221668E+03  0.26356955355E+03 0.  0.
         25    1    3    3    0    0 -0.42281618551E+02 -0.42540002707E+02  0.32046357161E+02  0.14237929697E+03  0.12509000000E+03 0.  0.
         25    1    4    4    0    0  0.92044033114E+01  0.53809014696E+02 -0.14432283643E+03  0.19863715745E+03  0.12509000000E+03 0.  0.
         25    1    4    4    0    0  0.33077215240E+02 -0.11269011989E+02 -0.79243410756E+02  0.15214505923E+03  0.12509000000E+03 0.  0.
<mgrwt>
<rscale>  2 0.45445397E+03</rscale>
<asrwt>0</asrwt>
<pdfrwt beam="1">  1       21 0.22179531E-01 0.45445397E+03</pdfrwt>
<pdfrwt beam="2">  1       21 0.50344220E-01 0.45445397E+03</pdfrwt>
<totfact> 0.66039600E+04</totfact>
</mgrwt>
</event>
<event>
 7    0  0.4831799E-002  0.4277692E+03  0.7546771E-02  0.1034567E+00
         21   -1    0    0  502  501  0.00000000000E+00  0.00000000000E+00  0.10726786658E+03  0.10726786658E+03  0.00000000000E+00 0. -1.
         21   -1    0    0  501  502 -0.00000000000E+00 -0.00000000000E+00 -0.42647095264E+03  0.42647095264E+03  0.00000000000E+00 0. -1.
      99926    2    1    2    0    0  0.00000000000E+00 -0.71054273576E-14 -0.31920308605E+03  0.53373881922E+03  0.42776923335E+03 0.  0.
      99925    2    3    3    0    0 -0.61936461715E+01  0.45551046979E+02 -0.29572131273E+03  0.39841638608E+03  0.26300430178E+03 0.  0.
         25    1    4    4    0    0  0.84381872211E+01  0.12213678468E+02 -0.89634564436E+02  0.15460349345E+03  0.12509000000E+03 0.  0.
         25    1    3    3    0    0  0.61936461715E+01 -0.45551046979E+02 -0.23481773320E+02  0.13532243314E+03  0.12509000000E+03 0.  0.
         25    1    4    4    0    0 -0.14631833393E+02  0.33337368511E+02 -0.20608674830E+03  0.24381289263E+03  0.12509000000E+03 0.  0.
<mgrwt>
<rscale>  2 0.42776923E+03</rscale>
<asrwt>0</asrwt>
<pdfrwt beam="1">  1       21 0.15774686E-01 0.42776923E+03</pdfrwt>
<pdfrwt beam="2">  1       21 0.62716316E-01 0.42776923E+03</pdfrwt>
<totfact> 0.78567475E+04</totfact>
</mgrwt>
</event>
<event>
 7    0  0.4831799E-002  0.4572529E+03  0.7546771E-02  0.1025581E+00
         21   -1    0    0  502  501  0.00000000000E+00  0.00000000000E+00  0.12197577915E+03  0.12197577915E+03  0.00000000000E+00 0.  1.
         21   -1    0    0  501  502 -0.00000000000E+00 -0.00000000000E+00 -0.42852810019E+03  0.42852810019E+03  0.00000000000E+00 0.  1.
      99926    2    1    2    0    0  0.00000000000E+00 -0.14210854715E-13 -0.30655232103E+03  0.55050387934E+03  0.45725287931E+03 0.  0.
      99925    2    3    3    0    0  0.79058050091E+02  0.75476453971E+02 -0.14854372616E+03  0.32124181414E+03  0.26302888469E+03 0.  0.
         25    1    3    3    0    0 -0.79058050091E+02 -0.75476453971E+02 -0.15800859487E+03  0.22926206520E+03  0.12509000000E+03 0.  0.
         25    1    4    4    0    0  0.18561613924E+02  0.71412226925E+02 -0.65516789117E+02  0.15932418970E+03  0.12509000000E+03 0.  0.
         25    1    4    4    0    0  0.60496436167E+02  0.40642270463E+01 -0.83026937045E+02  0.16191762444E+03  0.12509000000E+03 0.  0.
<mgrwt>
<rscale>  2 0.45725288E+03</rscale>
<asrwt>0</asrwt>
<pdfrwt beam="1">  1       21 0.17937615E-01 0.45725288E+03</pdfrwt>
<pdfrwt beam="2">  1       21 0.63018837E-01 0.45725288E+03</pdfrwt>
<totfact> 0.60743252E+04</totfact>
</mgrwt>
</event>
<event>
 7    0  0.4831799E-002  0.4310608E+03  0.7546771E-02  0.1033525E+00
         21   -1    0    0  502  501  0.00000000000E+00  0.00000000000E+00  0.85107510492E+03  0.85107510492E+03  0.00000000000E+00 0.  1.
         21   -1    0    0  501  502 -0.00000000000E+00 -0.00000000000E+00 -0.54581965075E+02  0.54581965075E+02  0.00000000000E+00 0.  1.
      99926    2    1    2    0    0  0.35527136788E-14 -0.35527136788E-14  0.79649313984E+03  0.90565706999E+03  0.43106079224E+03 0.  0.
      99925    2    3    3    0    0  0.21086482663E+02 -0.14547956123E+02  0.33446261071E+03  0.42630750993E+03  0.26309042606E+03 0.  0.
         25    1    3    3    0    0 -0.21086482663E+02  0.14547956123E+02  0.46203052913E+03  0.47934956006E+03  0.12509000000E+03 0.  0.
         25    1    4    4    0    0  0.18690440116E+02  0.25967041493E+02  0.20131771731E+03  0.23916511284E+03  0.12509000000E+03 0.  0.
         25    1    4    4    0    0  0.23960425472E+01 -0.40514997616E+02  0.13314489340E+03  0.18714239709E+03  0.12509000000E+03 0.  0.
<mgrwt>
<rscale>  2 0.43106079E+03</rscale>
<asrwt>0</asrwt>
<pdfrwt beam="1">  1       21 0.12515810E+00 0.43106079E+03</pdfrwt>
<pdfrwt beam="2">  1       21 0.80267601E-02 0.43106079E+03</pdfrwt>
<totfact> 0.52082016E+04</totfact>
</mgrwt>
</event>
<event>
 7    0  0.4831799E-002  0.4537417E+03  0.7546771E-02  0.1026612E+00
         21   -1    0    0  502  501  0.00000000000E+00  0.00000000000E+00  0.18755757836E+03  0.18755757836E+03  0.00000000000E+00 0. -1.
         21   -1    0    0  501  502 -0.00000000000E+00 -0.00000000000E+00 -0.27442449473E+03  0.27442449473E+03  0.00000000000E+00 0. -1.
      99926    2    1    2    0    0 -0.14210854715E-13  0.00000000000E+00 -0.86866916366E+02  0.46198207308E+03  0.45374174890E+03 0.  0.
      99925    2    3    3    0    0  0.82674505204E+02  0.21494626366E+02 -0.12884942244E+03  0.30479704934E+03  0.26268226977E+03 0.  0.
         25    1    4    4    0    0  0.65472418303E+02  0.43757513496E+02 -0.74694177680E+02  0.16561426818E+03  0.12509000000E+03 0.  0.
         25    1    4    4    0    0  0.17202086901E+02 -0.22262887130E+02 -0.54155244756E+02  0.13918278116E+03  0.12509000000E+03 0.  0.
         25    1    3    3    0    0 -0.82674505204E+02 -0.21494626366E+02  0.41982506070E+02  0.15718502374E+03  0.12509000000E+03 0.  0.
<mgrwt>
<rscale>  2 0.45374175E+03</rscale>
<asrwt>0</asrwt>
<pdfrwt beam="1">  1       21 0.27581997E-01 0.45374175E+03</pdfrwt>
<pdfrwt beam="2">  1       21 0.40356543E-01 0.45374175E+03</pdfrwt>
<totfact> 0.68719572E+04</totfact>
</mgrwt>
</event>
<event>
 7    0  0.4831799E-002  0.4593174E+03  0.7546771E-02  0.1024979E+00
         21   -1    0    0  502  501  0.00000000000E+00  0.00000000000E+00  0.93574695049E+02  0.93574695049E+02  0.00000000000E+00 0.  1.
         21   -1    0    0  501  502 -0.00000000000E+00 -0.00000000000E+00 -0.56364728454E+03  0.56364728454E+03  0.00000000000E+00 0.  1.
      99926    2    1    2    0    0  0.00000000000E+00  0.00000000000E+00 -0.47007258949E+03  0.65722197959E+03  0.45931741864E+03 0.  0.
      99925    2    3    3    0    0 -0.69419239380E+02  0.92926866292E+02 -0.26981554712E+03  0.39415388119E+03  0.26287339028E+03 0.  0.
         25    1    3    3    0    0  0.69419239380E+02 -0.92926866292E+02 -0.20025704238E+03  0.26306809840E+03  0.12509000000E+03 0.  0.
         25    1    4    4    0    0 -0.32212141994E+02  0.37281858932E+02 -0.18556590211E+03  0.22915010631E+03  0.12509000000E+03 0.  0.
         25    1    4    4    0    0 -0.37207097386E+02  0.55645007360E+02 -0.84249645007E+02  0.16500377488E+03  0.12509000000E+03 0.  0.
<mgrwt>
<rscale>  2 0.45931742E+03</rscale>
<asrwt>0</asrwt>
<pdfrwt beam="1">  1       21 0.13760985E-01 0.45931742E+03</pdfrwt>
<pdfrwt beam="2">  1       21 0.82889303E-01 0.45931742E+03</pdfrwt>
<totfact> 0.53444027E+04</totfact>
</mgrwt>
</event>
<event>
 7    0  0.4831799E-002  0.4741011E+03  0.7546771E-02  0.1020769E+00
         21   -1    0    0  502  501  0.00000000000E+00  0.00000000000E+00  0.82226066843E+03  0.82226066843E+03  0.00000000000E+00 0. -1.
         21   -1    0    0  501  502 -0.00000000000E+00 -0.00000000000E+00 -0.68339593623E+02  0.68339593623E+02  0.00000000000E+00 0. -1.
      99926    2    1    2    0    0 -0.14210854715E-13 -0.14210854715E-13  0.75392107481E+03  0.89060026206E+03  0.47410108598E+03 0.  0.
      99925    2    3    3    0    0  0.88588105622E+02  0.83002647592E+02  0.37833675767E+03  0.47653700681E+03  0.26308083299E+03 0.  0.
         25    1    4    4    0    0  0.61718289893E+01  0.20515363159E+02  0.15196774067E+03  0.19799160059E+03  0.12509000000E+03 0.  0.
         25    1    4    4    0    0  0.82416276633E+02  0.62487284433E+02  0.22636901700E+03  0.27854540622E+03  0.12509000000E+03 0.  0.
         25    1    3    3    0    0 -0.88588105622E+02 -0.83002647592E+02  0.37558431714E+03  0.41406325524E+03  0.12509000000E+03 0.  0.
<mgrwt>
<rscale>  2 0.47410109E+03</rscale>
<asrwt>0</asrwt>
<pdfrwt beam="1">  1       21 0.12092068E+00 0.47410109E+03</pdfrwt>
<pdfrwt beam="2">  1       21 0.10049941E-01 0.47410109E+03</pdfrwt>
<totfact> 0.37682063E+04</totfact>
</mgrwt>
</event>
<event>
 7    0  0.4831799E-002  0.4547265E+03  0.7546771E-02  0.1026322E+00
         21   -1    0    0  502  501  0.00000000000E+00  0.00000000000E+00  0.19359530881E+03  0.19359530881E+03  0.00000000000E+00 0. -1.
         21   -1    0    0  501  502 -0.00000000000E+00 -0.00000000000E+00 -0.26702113175E+03  0.26702113175E+03  0.00000000000E+00 0. -1.
      99926    2    1    2    0    0 -0.71054273576E-14  0.00000000000E+00 -0.73425822949E+02  0.46061644056E+03  0.45472646046E+03 0.  0.
      99925    2    3    3    0    0  0.41255478144E+02  0.10009657538E+03 -0.13694565899E+02  0.28472820887E+03  0.26298530931E+03 0.  0.
         25    1    4    4    0    0  0.33749587633E+02  0.33706582072E+02 -0.41607785809E+02  0.14019231177E+03  0.12509000000E+03 0.  0.
         25    1    4    4    0    0  0.75058905110E+01  0.66389993304E+02  0.27913219910E+02  0.14453589709E+03  0.12509000000E+03 0.  0.
         25    1    3    3    0    0 -0.41255478144E+02 -0.10009657538E+03 -0.59731257050E+02  0.17588823169E+03  0.12509000000E+03 0.  0.
<mgrwt>
<rscale>  2 0.45472646E+03</rscale>
<asrwt>0</asrwt>
<pdfrwt beam="1">  1       21 0.28469898E-01 0.45472646E+03</pdfrwt>
<pdfrwt beam="2">  1       21 0.39267814E-01 0.45472646E+03</pdfrwt>
<totfact> 0.68284452E+04</totfact>
</mgrwt>
</event>
<event>
 7    0  0.4831799E-002  0.4546801E+03  0.7546771E-02  0.1026336E+00
         21   -1    0    0  502  501  0.00000000000E+00  0.00000000000E+00  0.11911355057E+04  0.11911355057E+04  0.00000000000E+00 0. -1.
         21   -1    0    0  501  502 -0.00000000000E+00 -0.00000000000E+00 -0.43390111514E+02  0.43390111514E+02  0.00000000000E+00 0. -1.
      99926    2    1    2    0    0  0.00000000000E+00  0.35527136788E-14  0.11477453942E+04  0.12345256172E+04  0.45468011798E+03 0.  0.
      99925    2    3    3    0    0  0.29560773497E+02 -0.31045973944E+02  0.43909527632E+03  0.51364408085E+03  0.26303590681E+03 0.  0.
         25    1    3    3    0    0 -0.29560773497E+02  0.31045973944E+02  0.70865011787E+03  0.72088153638E+03  0.12509000000E+03 0.  0.
         25    1    4    4    0    0  0.26248937745E+02  0.87632449113E+01  0.27577475984E+03  0.30408062657E+03  0.12509000000E+03 0.  0.
         25    1    4    4    0    0  0.33118357520E+01 -0.39809218855E+02  0.16332051648E+03  0.20956345427E+03  0.12509000000E+03 0.  0.
<mgrwt>
<rscale>  2 0.45468012E+03</rscale>
<asrwt>0</asrwt>
<pdfrwt beam="1">  1       21 0.17516697E+00 0.45468012E+03</pdfrwt>
<pdfrwt beam="2">  1       21 0.63808995E-02 0.45468012E+03</pdfrwt>
<totfact> 0.31154585E+04</totfact>
</mgrwt>
</event>
<event>
 7    0  0.4831799E-002  0.4588153E+03  0.7546771E-02  0.1025125E+00
         21   -1    0    0  502  501  0.00000000000E+00  0.00000000000E+00  0.13125014219E+03  0.13125014219E+03  0.00000000000E+00 0.  1.
         21   -1    0    0  501  502 -0.00000000000E+00 -0.00000000000E+00 -0.40097379921E+03  0.40097379921E+03  0.00000000000E+00 0.  1.
      99926    2    1    2    0    0 -0.35527136788E-14  0.00000000000E+00 -0.26972365702E+03  0.53222394140E+03  0.45881529251E+03 0.  0.
      99925    2    3    3    0    0  0.17201057370E+02 -0.29262059991E+02 -0.40727921294E+02  0.26909146600E+03  0.26381680949E+03 0.  0.
         25    1    3    3    0    0 -0.17201057370E+02  0.29262059991E+02 -0.22899573573E+03  0.26313247540E+03  0.12509000000E+03 0.  0.
         25    1    4    4    0    0  0.16390898268E+02 -0.89201984193E-02 -0.59101348073E+02  0.13931668626E+03  0.12509000000E+03 0.  0.
         25    1    4    4    0    0  0.81015910213E+00 -0.29253139792E+02  0.18373426779E+02  0.12977477974E+03  0.12509000000E+03 0.  0.
<mgrwt>
<rscale>  2 0.45881529E+03</rscale>
<asrwt>0</asrwt>
<pdfrwt beam="1">  1       21 0.19301491E-01 0.45881529E+03</pdfrwt>
<pdfrwt beam="2">  1       21 0.58966735E-01 0.45881529E+03</pdfrwt>
<totfact> 0.61184953E+04</totfact>
</mgrwt>
</event>
<event>
 7    0  0.4831799E-002  0.4640921E+03  0.7546771E-02  0.1023601E+00
         21   -1    0    0  502  501  0.00000000000E+00  0.00000000000E+00  0.16794916851E+03  0.16794916851E+03  0.00000000000E+00 0. -1.
         21   -1    0    0  501  502 -0.00000000000E+00 -0.00000000000E+00 -0.32060510581E+03  0.32060510581E+03  0.00000000000E+00 0. -1.
      99926    2    1    2    0    0  0.00000000000E+00  0.00000000000E+00 -0.15265593730E+03  0.48855427431E+03  0.46409206388E+03 0.  0.
      99925    2    3    3    0    0  0.39604300977E+02 -0.10753341850E+03 -0.13800090794E+03  0.31827739762E+03  0.26291503284E+03 0.  0.
         25    1    4    4    0    0  0.26722244661E+02 -0.95019360459E+02 -0.63148573517E+02  0.17140013903E+03  0.12509000000E+03 0.  0.
         25    1    4    4    0    0  0.12882056316E+02 -0.12514058038E+02 -0.74852334425E+02  0.14687725860E+03  0.12509000000E+03 0.  0.
         25    1    3    3    0    0 -0.39604300977E+02  0.10753341850E+03 -0.14655029360E+02  0.17027687669E+03  0.12509000000E+03 0.  0.
<mgrwt>
<rscale>  2 0.46409206E+03</rscale>
<asrwt>0</asrwt>
<pdfrwt beam="1">  1       21 0.24698407E-01 0.46409206E+03</pdfrwt>
<pdfrwt beam="2">  1       21 0.47147809E-01 0.46409206E+03</pdfrwt>
<totfact> 0.61520973E+04</totfact>
</mgrwt>
</event>
<event>
 7    0  0.4831799E-002  0.4621106E+03  0.7546771E-02  0.1024171E+00
         21   -1    0    0  502  501  0.00000000000E+00  0.00000000000E+00  0.98270909366E+03  0.98270909366E+03  0.00000000000E+00 0. -1.
         21   -1    0    0  501  502 -0.00000000000E+00 -0.00000000000E+00 -0.54325905715E+02  0.54325905715E+02  0.00000000000E+00 0. -1.
      99926    2    1    2    0    0  0.00000000000E+00  0.00000000000E+00  0.92838318794E+03  0.10370349994E+04  0.46211064289E+03 0.  0.
      99925    2    3    3    0    0  0.16078927232E+02  0.63520857723E+02  0.35560432289E+03  0.44710570902E+03  0.26297461724E+03 0.  0.
         25    1    4    4    0    0  0.15277661837E+02  0.64263764108E+02  0.22868126201E+03  0.26889750096E+03  0.12509000000E+03 0.  0.
         25    1    4    4    0    0  0.80126539509E+00 -0.74290638540E+00  0.12692306088E+03  0.17820820806E+03  0.12509000000E+03 0.  0.
         25    1    3    3    0    0 -0.16078927232E+02 -0.63520857723E+02  0.57277886505E+03  0.58992929035E+03  0.12509000000E+03 0.  0.
<mgrwt>
<rscale>  2 0.46211064E+03</rscale>
<asrwt>0</asrwt>
<pdfrwt beam="1">  1       21 0.14451603E+00 0.46211064E+03</pdfrwt>
<pdfrwt beam="2">  1       21 0.79891044E-02 0.46211064E+03</pdfrwt>
<totfact> 0.35731742E+04</totfact>
</mgrwt>
</event>
<event>
 7    0  0.4831799E-002  0.4540319E+03  0.7546771E-02  0.1026526E+00
         21   -1    0    0  502  501  0.00000000000E+00  0.00000000000E+00  0.80985098020E+03  0.80985098020E+03  0.00000000000E+00 0.  1.
         21   -1    0    0  501  502 -0.00000000000E+00 -0.00000000000E+00 -0.63636700977E+02  0.63636700977E+02  0.00000000000E+00 0.  1.
      99926    2    1    2    0    0  0.00000000000E+00  0.71054273576E-14  0.74621427922E+03  0.87348768118E+03  0.45403191369E+03 0.  0.
      99925    2    3    3    0    0 -0.18832898297E+02 -0.38089055510E+02  0.27036894742E+03  0.37964383733E+03  0.26310572264E+03 0.  0.
         25    1    4    4    0    0 -0.47671146172E+02 -0.33797893233E+02  0.14127113567E+03  0.19753449734E+03  0.12509000000E+03 0.  0.
         25    1    3    3    0    0  0.18832898297E+02  0.38089055510E+02  0.47584533180E+03  0.49384384385E+03  0.12509000000E+03 0.  0.
         25    1    4    4    0    0  0.28838247875E+02 -0.42911622776E+01  0.12909781175E+03  0.18210933999E+03  0.12509000000E+03 0.  0.
<mgrwt>
<rscale>  2 0.45403191E+03</rscale>
<asrwt>0</asrwt>
<pdfrwt beam="1">  1       21 0.11909573E+00 0.45403191E+03</pdfrwt>
<pdfrwt beam="2">  1       21 0.93583388E-02 0.45403191E+03</pdfrwt>
<totfact> 0.44738147E+04</totfact>
</mgrwt>
</event>
<event>
 7    0  0.4831799E-002  0.4592494E+03  0.7546771E-02  0.1024999E+00
         21   -1    0    0  502  501  0.00000000000E+00  0.00000000000E+00  0.12573206968E+03  0.12573206968E+03  0.00000000000E+00 0. -1.
         21   -1    0    0  501  502 -0.00000000000E+00 -0.00000000000E+00 -0.41936399654E+03  0.41936399654E+03  0.00000000000E+00 0. -1.
      99926    2    1    2    0    0  0.17763568394E-14  0.00000000000E+00 -0.29363192685E+03  0.54509606622E+03  0.45924940168E+03 0.  0.
      99925    2    3    3    0    0  0.70643466307E+01  0.11638708210E+03 -0.20109275433E+03  0.35065619268E+03  0.26253687693E+03 0.  0.
         25    1    4    4    0    0 -0.17167334043E+02  0.91663569008E+02 -0.12718242280E+03  0.20129531542E+03  0.12509000000E+03 0.  0.
         25    1    4    4    0    0  0.24231680673E+02  0.24723513090E+02 -0.73910331526E+02  0.14936087725E+03  0.12509000000E+03 0.  0.
         25    1    3    3    0    0 -0.70643466307E+01 -0.11638708210E+03 -0.92539172524E+02  0.19443987355E+03  0.12509000000E+03 0.  0.
<mgrwt>
<rscale>  2 0.45924940E+03</rscale>
<asrwt>0</asrwt>
<pdfrwt beam="1">  1       21 0.18490010E-01 0.45924940E+03</pdfrwt>
<pdfrwt beam="2">  1       21 0.61671176E-01 0.45924940E+03</pdfrwt>
<totfact> 0.60143720E+04</totfact>
</mgrwt>
</event>
<event>
 7    0  0.4831799E-002  0.4572276E+03  0.7546771E-02  0.1025588E+00
         21   -1    0    0  502  501  0.00000000000E+00  0.00000000000E+00  0.50634071671E+03  0.50634071671E+03  0.00000000000E+00 0.  1.
         21   -1    0    0  501  502 -0.00000000000E+00 -0.00000000000E+00 -0.10321957396E+03  0.10321957396E+03  0.00000000000E+00 0.  1.
      99926    2    1    2    0    0  0.00000000000E+00  0.00000000000E+00  0.40312114275E+03  0.60956029067E+03  0.45722761535E+03 0.  0.
      99925    2    3    3    0    0 -0.17137223452E+02 -0.93812330094E+02  0.33929192757E+03  0.43980719198E+03  0.26309107986E+03 0.  0.
         25    1    4    4    0    0  0.41493844973E+01 -0.58148989035E+01  0.15872336933E+03  0.20221683044E+03  0.12509000000E+03 0.  0.
         25    1    4    4    0    0 -0.21286607950E+02 -0.87997431191E+02  0.18056855824E+03  0.23759036155E+03  0.12509000000E+03 0.  0.
         25    1    3    3    0    0  0.17137223452E+02  0.93812330094E+02  0.63829215178E+02  0.16975309869E+03  0.12509000000E+03 0.  0.
<mgrwt>
<rscale>  2 0.45722762E+03</rscale>
<asrwt>0</asrwt>
<pdfrwt beam="1">  1       21 0.74461869E-01 0.45722762E+03</pdfrwt>
<pdfrwt beam="2">  1       21 0.15179349E-01 0.45722762E+03</pdfrwt>
<totfact> 0.57082547E+04</totfact>
</mgrwt>
</event>
<event>
 7    0  0.4831799E-002  0.4547038E+03  0.7546771E-02  0.1026329E+00
         21   -1    0    0  502  501  0.00000000000E+00  0.00000000000E+00  0.60417434989E+02  0.60417434989E+02  0.00000000000E+00 0.  1.
         21   -1    0    0  501  502 -0.00000000000E+00 -0.00000000000E+00 -0.85552917561E+03  0.85552917561E+03  0.00000000000E+00 0.  1.
      99926    2    1    2    0    0  0.00000000000E+00  0.00000000000E+00 -0.79511174062E+03  0.91594661060E+03  0.45470376444E+03 0.  0.
      99925    2    3    3    0    0 -0.86089719687E+02  0.43756045948E+02 -0.61835908318E+03  0.67884949673E+03  0.26294990410E+03 0.  0.
         25    1    3    3    0    0  0.86089719687E+02 -0.43756045948E+02 -0.17675265744E+03  0.23709711387E+03  0.12509000000E+03 0.  0.
         25    1    4    4    0    0 -0.71376089000E+02  0.45406588076E+02 -0.28595583554E+03  0.32337988853E+03  0.12509000000E+03 0.  0.
         25    1    4    4    0    0 -0.14713630687E+02 -0.16505421277E+01 -0.33240324764E+03  0.35546960821E+03  0.12509000000E+03 0.  0.
<mgrwt>
<rscale>  2 0.45470376E+03</rscale>
<asrwt>0</asrwt>
<pdfrwt beam="1">  1       21 0.88849170E-02 0.45470376E+03</pdfrwt>
<pdfrwt beam="2">  1       21 0.12581311E+00 0.45470376E+03</pdfrwt>
<totfact> 0.42650230E+04</totfact>
</mgrwt>
</event>
<event>
 7    0  0.4831799E-002  0.4410366E+03  0.7546771E-02  0.1030429E+00
         21   -1    0    0  502  501  0.00000000000E+00  0.00000000000E+00  0.41485575195E+03  0.41485575195E+03  0.00000000000E+00 0.  1.
         21   -1    0    0  501  502 -0.00000000000E+00 -0.00000000000E+00 -0.11721741209E+03  0.11721741209E+03  0.00000000000E+00 0.  1.
      99926    2    1    2    0    0  0.17763568394E-14  0.00000000000E+00  0.29763833986E+03  0.53207316405E+03  0.44103658640E+03 0.  0.
      99925    2    3    3    0    0 -0.15008957190E+02 -0.70644223016E+02  0.27228936623E+03  0.38542408084E+03  0.26304818586E+03 0.  0.
         25    1    3    3    0    0  0.15008957190E+02  0.70644223016E+02  0.25348973625E+02  0.14664908321E+03  0.12509000000E+03 0.  0.
         25    1    4    4    0    0 -0.14948099870E+02 -0.19675050716E+02  0.18469379062E+03  0.22443230094E+03  0.12509000000E+03 0.  0.
         25    1    4    4    0    0 -0.60857320047E-01 -0.50969172301E+02  0.87595575610E+02  0.16099177990E+03  0.12509000000E+03 0.  0.
<mgrwt>
<rscale>  2 0.44103659E+03</rscale>
<asrwt>0</asrwt>
<pdfrwt beam="1">  1       21 0.61008198E-01 0.44103659E+03</pdfrwt>
<pdfrwt beam="2">  1       21 0.17237855E-01 0.44103659E+03</pdfrwt>
<totfact> 0.70546760E+04</totfact>
</mgrwt>
</event>
<event>
 7    0  0.4831799E-002  0.4540514E+03  0.7546771E-02  0.1026521E+00
         21   -1    0    0  502  501  0.00000000000E+00  0.00000000000E+00  0.66051901317E+03  0.66051901317E+03  0.00000000000E+00 0. -1.
         21   -1    0    0  501  502 -0.00000000000E+00 -0.00000000000E+00 -0.78030557078E+02  0.78030557078E+02  0.00000000000E+00 0. -1.
      99926    2    1    2    0    0  0.00000000000E+00 -0.17763568394E-14  0.58248845609E+03  0.73854957025E+03  0.45405139162E+03 0.  0.
      99925    2    3    3    0    0 -0.59098921610E+02 -0.15180483095E+02  0.52016032898E+03  0.58605224853E+03  0.26299684514E+03 0.  0.
         25    1    3    3    0    0  0.59098921610E+02  0.15180483095E+02  0.62328127109E+02  0.15249732172E+03  0.12509000000E+03 0.  0.
         25    1    4    4    0    0 -0.28527256795E+02  0.32718847456E+02  0.26606199088E+03  0.29718818692E+03  0.12509000000E+03 0.  0.
         25    1    4    4    0    0 -0.30571664815E+02 -0.47899330552E+02  0.25409833811E+03  0.28886406160E+03  0.12509000000E+03 0.  0.
<mgrwt>
<rscale>  2 0.45405139E+03</rscale>
<asrwt>0</asrwt>
<pdfrwt beam="1">  1       21 0.97135146E-01 0.45405139E+03</pdfrwt>
<pdfrwt beam="2">  1       21 0.11475082E-01 0.45405139E+03</pdfrwt>
<totfact> 0.51240516E+04</totfact>
</mgrwt>
</event>
<event>
 7    0  0.4831799E-002  0.4561025E+03  0.7546771E-02  0.1025918E+00
         21   -1    0    0  502  501  0.00000000000E+00  0.00000000000E+00  0.46547189134E+03  0.46547189134E+03  0.00000000000E+00 0.  1.
         21   -1    0    0  501  502 -0.00000000000E+00 -0.00000000000E+00 -0.11173043181E+03  0.11173043181E+03  0.00000000000E+00 0.  1.
      99926    2    1    2    0    0  0.00000000000E+00  0.00000000000E+00  0.35374145953E+03  0.57720232315E+03  0.45610251222E+03 0.  0.
      99925    2    3    3    0    0  0.99259193113E+02 -0.45417110460E+02  0.26499749432E+03  0.38895222142E+03  0.26295447744E+03 0.  0.
         25    1    4    4    0    0  0.28669786234E+02 -0.30289136208E+02  0.79911454139E+02  0.15418410105E+03  0.12509000000E+03 0.  0.
         25    1    4    4    0    0  0.70589406879E+02 -0.15127974251E+02  0.18508604018E+03  0.23476812036E+03  0.12509000000E+03 0.  0.
         25    1    3    3    0    0 -0.99259193113E+02  0.45417110460E+02  0.88743965213E+02  0.18825010173E+03  0.12509000000E+03 0.  0.
<mgrwt>
<rscale>  2 0.45610251E+03</rscale>
<asrwt>0</asrwt>
<pdfrwt beam="1">  1       21 0.68451748E-01 0.45610251E+03</pdfrwt>
<pdfrwt beam="2">  1       21 0.16430946E-01 0.45610251E+03</pdfrwt>
<totfact> 0.59582861E+04</totfact>
</mgrwt>
</event>
<event>
 7    0  0.4831799E-002  0.4604566E+03  0.7546771E-02  0.1024649E+00
         21   -1    0    0  502  501  0.00000000000E+00  0.00000000000E+00  0.15068523599E+03  0.15068523599E+03  0.00000000000E+00 0. -1.
         21   -1    0    0  501  502 -0.00000000000E+00 -0.00000000000E+00 -0.35176024760E+03  0.35176024760E+03  0.00000000000E+00 0. -1.
      99926    2    1    2    0    0  0.35527136788E-14  0.00000000000E+00 -0.20107501161E+03  0.50244548359E+03  0.46045662519E+03 0.  0.
      99925    2    3    3    0    0 -0.23611971197E+02  0.10126506271E+03 -0.64545741158E+02  0.29007814170E+03  0.26299626895E+03 0.  0.
         25    1    3    3    0    0  0.23611971197E+02 -0.10126506271E+03 -0.13652927045E+03  0.21236734188E+03  0.12509000000E+03 0.  0.
         25    1    4    4    0    0 -0.34463424207E+02  0.47296355099E+02 -0.66762747327E+02  0.15339310723E+03  0.12509000000E+03 0.  0.
         25    1    4    4    0    0  0.10851453011E+02  0.53968707612E+02  0.22170061691E+01  0.13668503448E+03  0.12509000000E+03 0.  0.
<mgrwt>
<rscale>  2 0.46045663E+03</rscale>
<asrwt>0</asrwt>
<pdfrwt beam="1">  1       21 0.22159594E-01 0.46045663E+03</pdfrwt>
<pdfrwt beam="2">  1       21 0.51729448E-01 0.46045663E+03</pdfrwt>
<totfact> 0.62354218E+04</totfact>
</mgrwt>
</event>
<event>
 7    0  0.4831799E-002  0.4576693E+03  0.7546771E-02  0.1025459E+00
         21   -1    0    0  502  501  0.00000000000E+00  0.00000000000E+00  0.27685600201E+03  0.27685600201E+03  0.00000000000E+00 0.  1.
         21   -1    0    0  501  502 -0.00000000000E+00 -0.00000000000E+00 -0.18914270841E+03  0.18914270841E+03  0.00000000000E+00 0.  1.
      99926    2    1    2    0    0  0.00000000000E+00 -0.71054273576E-14  0.87713293605E+02  0.46599871042E+03  0.45766928697E+03 0.  0.
      99925    2    3    3    0    0  0.10277996620E+03 -0.44751998709E+02  0.83975764221E+02  0.29798698444E+03  0.26301682660E+03 0.  0.
         25    1    3    3    0    0 -0.10277996620E+03  0.44751998709E+02  0.37375293840E+01  0.16801172598E+03  0.12509000000E+03 0.  0.
         25    1    4    4    0    0  0.84001014707E+02 -0.31750720914E+01  0.62321556454E+02  0.16308812358E+03  0.12509000000E+03 0.  0.
         25    1    4    4    0    0  0.18778951493E+02 -0.41576926618E+02  0.21654207767E+02  0.13489886086E+03  0.12509000000E+03 0.  0.
<mgrwt>
<rscale>  2 0.45766929E+03</rscale>
<asrwt>0</asrwt>
<pdfrwt beam="1">  1       21 0.40714118E-01 0.45766929E+03</pdfrwt>
<pdfrwt beam="2">  1       21 0.27815104E-01 0.45766929E+03</pdfrwt>
<totfact> 0.66317718E+04</totfact>
</mgrwt>
</event>
<event>
 7    0  0.4831799E-002  0.4520314E+03  0.7546771E-02  0.1027118E+00
         21   -1    0    0  502  501  0.00000000000E+00  0.00000000000E+00  0.13973364688E+03  0.13973364688E+03  0.00000000000E+00 0. -1.
         21   -1    0    0  501  502 -0.00000000000E+00 -0.00000000000E+00 -0.36557471211E+03  0.36557471211E+03  0.00000000000E+00 0. -1.
      99926    2    1    2    0    0  0.17763568394E-14 -0.14210854715E-13 -0.22584106522E+03  0.50530835899E+03  0.45203136056E+03 0.  0.
      99925    2    3    3    0    0 -0.13866525014E+02  0.94665762998E+02 -0.20412590423E+03  0.34633369587E+03  0.26291777595E+03 0.  0.
         25    1    4    4    0    0 -0.60922401790E+01  0.10667699065E+02 -0.11905970599E+03  0.17312896027E+03  0.12509000000E+03 0.  0.
         25    1    3    3    0    0  0.13866525014E+02 -0.94665762998E+02 -0.21715160992E+02  0.15897466313E+03  0.12509000000E+03 0.  0.
         25    1    4    4    0    0 -0.77742848350E+01  0.83998063933E+02 -0.85066198244E+02  0.17320473560E+03  0.12509000000E+03 0.  0.
<mgrwt>
<rscale>  2 0.45203136E+03</rscale>
<asrwt>0</asrwt>
<pdfrwt beam="1">  1       21 0.20549066E-01 0.45203136E+03</pdfrwt>
<pdfrwt beam="2">  1       21 0.53760986E-01 0.45203136E+03</pdfrwt>
<totfact> 0.66451285E+04</totfact>
</mgrwt>
</event>
<event>
 7    0  0.4831799E-002  0.4361557E+03  0.7546771E-02  0.1031933E+00
         21   -1    0    0  502  501  0.00000000000E+00  0.00000000000E+00  0.70150830000E+03  0.70150830000E+03  0.00000000000E+00 0.  1.
         21   -1    0    0  501  502 -0.00000000000E+00 -0.00000000000E+00 -0.67793847856E+02  0.67793847856E+02  0.00000000000E+00 0.  1.
      99926    2    1    2    0    0  0.00000000000E+00  0.00000000000E+00  0.63371445214E+03  0.76930214785E+03  0.43615569220E+03 0.  0.
      99925    2    3    3    0    0  0.72807622475E+02  0.51778235843E+02  0.35239624089E+03  0.44872551165E+03  0.26303904390E+03 0.  0.
         25    1    3    3    0    0 -0.72807622475E+02 -0.51778235843E+02  0.28131821125E+03  0.32057663620E+03  0.12509000000E+03 0.  0.
         25    1    4    4    0    0  0.70739589845E+02  0.19384801881E+02  0.15034680914E+03  0.20888162014E+03  0.12509000000E+03 0.  0.
         25    1    4    4    0    0  0.20680326298E+01  0.32393433962E+02  0.20204943175E+03  0.23984389151E+03  0.12509000000E+03 0.  0.
<mgrwt>
<rscale>  2 0.43615569E+03</rscale>
<asrwt>0</asrwt>
<pdfrwt beam="1">  1       21 0.10316298E+00 0.43615569E+03</pdfrwt>
<pdfrwt beam="2">  1       21 0.99696839E-02 0.43615569E+03</pdfrwt>
<totfact> 0.57304097E+04</totfact>
</mgrwt>
</event>
<event>
 7    0  0.4831799E-002  0.4578903E+03  0.7546771E-02  0.1025395E+00
         21   -1    0    0  502  501  0.00000000000E+00  0.00000000000E+00  0.47521515952E+02  0.47521515952E+02  0.00000000000E+00 0. -1.
         21   -1    0    0  501  502 -0.00000000000E+00 -0.00000000000E+00 -0.11029924139E+04  0.11029924139E+04  0.00000000000E+00 0. -1.
      99926    2    1    2    0    0  0.00000000000E+00  0.00000000000E+00 -0.10554708979E+04  0.11505139298E+04  0.45789025581E+03 0.  0.
      99925    2    3    3    0    0 -0.17803518191E+02 -0.35240763050E+02 -0.93613633757E+03  0.97318056570E+03  0.26300246062E+03 0.  0.
         25    1    3    3    0    0  0.17803518191E+02  0.35240763050E+02 -0.11933456037E+03  0.17733336414E+03  0.12509000000E+03 0.  0.
         25    1    4    4    0    0  0.91230693626E+01 -0.14475929554E+02 -0.59494485291E+03  0.60819377589E+03  0.12509000000E+03 0.  0.
         25    1    4    4    0    0 -0.26926587553E+02 -0.20764833496E+02 -0.34119148466E+03  0.36498678981E+03  0.12509000000E+03 0.  0.
<mgrwt>
<rscale>  2 0.45789026E+03</rscale>
<asrwt>0</asrwt>
<pdfrwt beam="1">  1       21 0.69884586E-02 0.45789026E+03</pdfrwt>
<pdfrwt beam="2">  1       21 0.16220476E+00 0.45789026E+03</pdfrwt>
<totfact> 0.33015230E+04</totfact>
</mgrwt>
</event>
<event>
 7    0  0.4831799E-002  0.4708434E+03  0.7546771E-02  0.1021682E+00
         21   -1    0    0  502  501  0.00000000000E+00  0.00000000000E+00  0.64015031228E+03  0.64015031228E+03  0.00000000000E+00 0. -1.
         21   -1    0    0  501  502 -0.00000000000E+00 -0.00000000000E+00 -0.86578678695E+02  0.86578678695E+02  0.00000000000E+00 0. -1.
      99926    2    1    2    0    0  0.00000000000E+00 -0.35527136788E-14  0.55357163359E+03  0.72672899098E+03  0.47084336336E+03 0.  0.
      99925    2    3    3    0    0 -0.17967932307E+02 -0.28758234707E+02  0.15398911296E+03  0.30665330548E+03  0.26300897361E+03 0.  0.
         25    1    4    4    0    0 -0.43765699168E+02 -0.26840391294E+02  0.59299256880E+02  0.14764739414E+03  0.12509000000E+03 0.  0.
         25    1    3    3    0    0  0.17967932307E+02  0.28758234707E+02  0.39958252063E+03  0.42007568550E+03  0.12509000000E+03 0.  0.
         25    1    4    4    0    0  0.25797766861E+02 -0.19178434132E+01  0.94689856080E+02  0.15900591135E+03  0.12509000000E+03 0.  0.
<mgrwt>
<rscale>  2 0.47084336E+03</rscale>
<asrwt>0</asrwt>
<pdfrwt beam="1">  1       21 0.94139750E-01 0.47084336E+03</pdfrwt>
<pdfrwt beam="2">  1       21 0.12732159E-01 0.47084336E+03</pdfrwt>
<totfact> 0.45531588E+04</totfact>
</mgrwt>
</event>
<event>
 7    0  0.4831799E-002  0.4504760E+03  0.7546771E-02  0.1027580E+00
         21   -1    0    0  502  501  0.00000000000E+00  0.00000000000E+00  0.40023377212E+03  0.40023377212E+03  0.00000000000E+00 0.  1.
         21   -1    0    0  501  502 -0.00000000000E+00 -0.00000000000E+00 -0.12675628468E+03  0.12675628468E+03  0.00000000000E+00 0.  1.
      99926    2    1    2    0    0 -0.17763568394E-14  0.00000000000E+00  0.27347748744E+03  0.52699005680E+03  0.45047595255E+03 0.  0.
      99925    2    3    3    0    0  0.47839079026E+01  0.97087263374E+02  0.11542891274E+03  0.30321409171E+03  0.26299454183E+03 0.  0.
         25    1    3    3    0    0 -0.47839079026E+01 -0.97087263374E+02  0.15804857470E+03  0.22377596508E+03  0.12509000000E+03 0.  0.
         25    1    4    4    0    0 -0.17130845462E+02  0.11660606117E+02  0.43000928774E+02  0.13388810095E+03  0.12509000000E+03 0.  0.
         25    1    4    4    0    0  0.21914753365E+02  0.85426657257E+02  0.72427983966E+02  0.16932599076E+03  0.12509000000E+03 0.  0.
<mgrwt>
<rscale>  2 0.45047595E+03</rscale>
<asrwt>0</asrwt>
<pdfrwt beam="1">  1       21 0.58857907E-01 0.45047595E+03</pdfrwt>
<pdfrwt beam="2">  1       21 0.18640630E-01 0.45047595E+03</pdfrwt>
<totfact> 0.65735970E+04</totfact>
</mgrwt>
</event>
<event>
 7    0  0.4831799E-002  0.4396436E+03  0.7546771E-02  0.1030856E+00
         21   -1    0    0  502  501  0.00000000000E+00  0.00000000000E+00  0.20877797949E+04  0.20877797949E+04  0.00000000000E+00 0. -1.
         21   -1    0    0  501  502 -0.00000000000E+00 -0.00000000000E+00 -0.23144980711E+02  0.23144980711E+02  0.00000000000E+00 0. -1.
      99926    2    1    2    0    0  0.00000000000E+00  0.00000000000E+00  0.20646348141E+04  0.21109247756E+04  0.43964359694E+03 0.  0.
      99925    2    3    3    0    0  0.80067565069E+02  0.30080115864E+02  0.10866702031E+04  0.11212895312E+04  0.26291149484E+03 0.  0.
         25    1    4    4    0    0  0.11228714281E+01  0.70243161890E+01  0.43794681654E+03  0.45551676597E+03  0.12509000000E+03 0.  0.
         25    1    4    4    0    0  0.78944693641E+02  0.23055799675E+02  0.64872338656E+03  0.66577276523E+03  0.12509000000E+03 0.  0.
         25    1    3    3    0    0 -0.80067565069E+02 -0.30080115864E+02  0.97796461105E+03  0.98963524438E+03  0.12509000000E+03 0.  0.
<mgrwt>
<rscale>  2 0.43964360E+03</rscale>
<asrwt>0</asrwt>
<pdfrwt beam="1">  1       21 0.30702631E+00 0.43964360E+03</pdfrwt>
<pdfrwt beam="2">  1       21 0.34036751E-02 0.43964360E+03</pdfrwt>
<totfact> 0.13524147E+04</totfact>
</mgrwt>
</event>
<event>
 7    0  0.4831799E-002  0.4535635E+03  0.7546771E-02  0.1026665E+00
         21   -1    0    0  502  501  0.00000000000E+00  0.00000000000E+00  0.64768278214E+03  0.64768278214E+03  0.00000000000E+00 0. -1.
         21   -1    0    0  501  502 -0.00000000000E+00 -0.00000000000E+00 -0.79406083727E+02  0.79406083727E+02  0.00000000000E+00 0. -1.
      99926    2    1    2    0    0 -0.17763568394E-14 -0.35527136788E-14  0.56827669841E+03  0.72708886587E+03  0.45356346073E+03 0.  0.
      99925    2    3    3    0    0 -0.15532625903E+02 -0.14397620461E+02  0.53402520132E+03  0.59567643459E+03  0.26305692375E+03 0.  0.
         25    1    4    4    0    0 -0.67569001938E+00 -0.34805251732E+02  0.20375797266E+03  0.24161266860E+03  0.12509000000E+03 0.  0.
         25    1    4    4    0    0 -0.14856935883E+02  0.20407631272E+02  0.33026722866E+03  0.35406376598E+03  0.12509000000E+03 0.  0.
         25    1    3    3    0    0  0.15532625903E+02  0.14397620461E+02  0.34251497093E+02  0.13141243128E+03  0.12509000000E+03 0.  0.
<mgrwt>
<rscale>  2 0.45356346E+03</rscale>
<asrwt>0</asrwt>
<pdfrwt beam="1">  1       21 0.95247465E-01 0.45356346E+03</pdfrwt>
<pdfrwt beam="2">  1       21 0.11677366E-01 0.45356346E+03</pdfrwt>
<totfact> 0.52042243E+04</totfact>
</mgrwt>
</event>
<event>
 7    0  0.4831799E-002  0.4556407E+03  0.7546771E-02  0.1026053E+00
         21   -1    0    0  502  501  0.00000000000E+00  0.00000000000E+00  0.52113580406E+03  0.52113580406E+03  0.00000000000E+00 0.  1.
         21   -1    0    0  501  502 -0.00000000000E+00 -0.00000000000E+00 -0.99594208541E+02  0.99594208541E+02  0.00000000000E+00 0.  1.
      99926    2    1    2    0    0  0.00000000000E+00  0.00000000000E+00  0.42154159552E+03  0.62073001260E+03  0.45564068277E+03 0.  0.
      99925    2    3    3    0    0  0.19746596335E+02 -0.11170932132E+03  0.27757448172E+03  0.39882251274E+03  0.26295038169E+03 0.  0.
         25    1    4    4    0    0  0.34316236935E+02 -0.29609022227E+02  0.15921027420E+03  0.20748425922E+03  0.12509000000E+03 0.  0.
         25    1    4    4    0    0 -0.14569640599E+02 -0.82100299096E+02  0.11836420752E+03  0.19133825352E+03  0.12509000000E+03 0.  0.
         25    1    3    3    0    0 -0.19746596335E+02  0.11170932132E+03  0.14396711380E+03  0.22190749986E+03  0.12509000000E+03 0.  0.
<mgrwt>
<rscale>  2 0.45564068E+03</rscale>
<asrwt>0</asrwt>
<pdfrwt beam="1">  1       21 0.76637617E-01 0.45564068E+03</pdfrwt>
<pdfrwt beam="2">  1       21 0.14646207E-01 0.45564068E+03</pdfrwt>
<totfact> 0.57130511E+04</totfact>
</mgrwt>
</event>
<event>
 7    0  0.4831799E-002  0.4564616E+03  0.7546771E-02  0.1025812E+00
         21   -1    0    0  502  501  0.00000000000E+00  0.00000000000E+00  0.14736549950E+03  0.14736549950E+03  0.00000000000E+00 0.  1.
         21   -1    0    0  501  502 -0.00000000000E+00 -0.00000000000E+00 -0.35347010346E+03  0.35347010346E+03  0.00000000000E+00 0.  1.
      99926    2    1    2    0    0  0.00000000000E+00  0.00000000000E+00 -0.20610460396E+03  0.50083560296E+03  0.45646160126E+03 0.  0.
      99925    2    3    3    0    0  0.44302984961E+02  0.57562310556E+02 -0.22663832546E+03  0.35473524057E+03  0.26305129968E+03 0.  0.
         25    1    4    4    0    0  0.91145974322E+01  0.62227713906E+02 -0.14300048221E+03  0.20012998345E+03  0.12509000000E+03 0.  0.
         25    1    4    4    0    0  0.35188387528E+02 -0.46654033492E+01 -0.83637843253E+02  0.15460525712E+03  0.12509000000E+03 0.  0.
         25    1    3    3    0    0 -0.44302984961E+02 -0.57562310556E+02  0.20533721497E+02  0.14610036239E+03  0.12509000000E+03 0.  0.
<mgrwt>
<rscale>  2 0.45646160E+03</rscale>
<asrwt>0</asrwt>
<pdfrwt beam="1">  1       21 0.21671397E-01 0.45646160E+03</pdfrwt>
<pdfrwt beam="2">  1       21 0.51980897E-01 0.45646160E+03</pdfrwt>
<totfact> 0.64460853E+04</totfact>
</mgrwt>
</event>
<event>
 7    0  0.4831799E-002  0.4192444E+03  0.7546771E-02  0.1037312E+00
         21   -1    0    0  502  501  0.00000000000E+00  0.00000000000E+00  0.43480438906E+03  0.43480438906E+03  0.00000000000E+00 0. -1.
         21   -1    0    0  501  502 -0.00000000000E+00 -0.00000000000E+00 -0.10106032679E+03  0.10106032679E+03  0.00000000000E+00 0. -1.
      99926    2    1    2    0    0  0.00000000000E+00  0.00000000000E+00  0.33374406227E+03  0.53586471585E+03  0.41924443299E+03 0.  0.
      99925    2    3    3    0    0 -0.42235324725E+02  0.52743559841E+02  0.17638753467E+03  0.32379328770E+03  0.26299016144E+03 0.  0.
         25    1    4    4    0    0 -0.49550129592E+02  0.55069426304E+02  0.82100251749E+02  0.16696052376E+03  0.12509000000E+03 0.  0.
         25    1    3    3    0    0  0.42235324725E+02 -0.52743559841E+02  0.15735652761E+03  0.21207142815E+03  0.12509000000E+03 0.  0.
         25    1    4    4    0    0  0.73148048669E+01 -0.23258664625E+01  0.94287282919E+02  0.15683276394E+03  0.12509000000E+03 0.  0.
<mgrwt>
<rscale>  2 0.41924443E+03</rscale>
<asrwt>0</asrwt>
<pdfrwt beam="1">  1       21 0.63941821E-01 0.41924443E+03</pdfrwt>
<pdfrwt beam="2">  1       21 0.14861813E-01 0.41924443E+03</pdfrwt>
<totfact> 0.84235603E+04</totfact>
</mgrwt>
</event>
<event>
 7    0  0.4831799E-002  0.4559511E+03  0.7546771E-02  0.1025962E+00
         21   -1    0    0  502  501  0.00000000000E+00  0.00000000000E+00  0.25068888767E+03  0.25068888767E+03  0.00000000000E+00 0. -1.
         21   -1    0    0  501  502 -0.00000000000E+00 -0.00000000000E+00 -0.20732012708E+03  0.20732012708E+03  0.00000000000E+00 0. -1.
      99926    2    1    2    0    0  0.14210854715E-13  0.00000000000E+00  0.43368760592E+02  0.45800901475E+03  0.45595110286E+03 0.  0.
      99925    2    3    3    0    0 -0.74049562127E+02  0.85307341183E+02  0.13290704660E+02  0.28679897515E+03  0.26327994456E+03 0.  0.
         25    1    4    4    0    0 -0.29604540934E+02  0.27505848370E+02  0.44313930525E+02  0.13872358515E+03  0.12509000000E+03 0.  0.
         25    1    3    3    0    0  0.74049562127E+02 -0.85307341183E+02  0.30078055931E+02  0.17121003960E+03  0.12509000000E+03 0.  0.
         25    1    4    4    0    0 -0.44445021193E+02  0.57801492813E+02 -0.31023225865E+02  0.14807539000E+03  0.12509000000E+03 0.  0.
<mgrwt>
<rscale>  2 0.45595110E+03</rscale>
<asrwt>0</asrwt>
<pdfrwt beam="1">  1       21 0.36866013E-01 0.45595110E+03</pdfrwt>
<pdfrwt beam="2">  1       21 0.30488254E-01 0.45595110E+03</pdfrwt>
<totfact> 0.67809885E+04</totfact>
</mgrwt>
</event>
<event>
 7    0  0.4831799E-002  0.4602507E+03  0.7546771E-02  0.1024709E+00
         21   -1    0    0  502  501  0.00000000000E+00  0.00000000000E+00  0.88643413804E+02  0.88643413804E+02  0.00000000000E+00 0. -1.
         21   -1    0    0  501  502 -0.00000000000E+00 -0.00000000000E+00 -0.59742373659E+03  0.59742373659E+03  0.00000000000E+00 0. -1.
      99926    2    1    2    0    0  0.00000000000E+00  0.00000000000E+00 -0.50878032278E+03  0.68606715039E+03  0.46025071211E+03 0.  0.
      99925    2    3    3    0    0 -0.44348356925E+02 -0.82111803268E+02 -0.21104487802E+03  0.34990792002E+03  0.26303324306E+03 0.  0.
         25    1    4    4    0    0 -0.16728403012E+02 -0.82664738032E+02 -0.11938124044E+03  0.19238681621E+03  0.12509000000E+03 0.  0.
         25    1    4    4    0    0 -0.27619953913E+02  0.55293476358E+00 -0.91663637577E+02  0.15752110381E+03  0.12509000000E+03 0.  0.
         25    1    3    3    0    0  0.44348356925E+02  0.82111803268E+02 -0.29773544476E+03  0.33615923038E+03  0.12509000000E+03 0.  0.
<mgrwt>
<rscale>  2 0.46025071E+03</rscale>
<asrwt>0</asrwt>
<pdfrwt beam="1">  1       21 0.13035797E-01 0.46025071E+03</pdfrwt>
<pdfrwt beam="2">  1       21 0.87856428E-01 0.46025071E+03</pdfrwt>
<totfact> 0.51503210E+04</totfact>
</mgrwt>
</event>
<event>
 7    0  0.4831799E-002  0.4544025E+03  0.7546771E-02  0.1026417E+00
         21   -1    0    0  502  501  0.00000000000E+00  0.00000000000E+00  0.24830927714E+03  0.24830927714E+03  0.00000000000E+00 0.  1.
         21   -1    0    0  501  502 -0.00000000000E+00 -0.00000000000E+00 -0.20788752420E+03  0.20788752420E+03  0.00000000000E+00 0.  1.
      99926    2    1    2    0    0  0.13322676296E-14 -0.14210854715E-13  0.40421752942E+02  0.45619680134E+03  0.45440246857E+03 0.  0.
      99925    2    3    3    0    0  0.20654025729E+01  0.10805923384E+03 -0.62679404056E+01  0.28441641984E+03  0.26300636664E+03 0.  0.
         25    1    4    4    0    0 -0.23819966966E+02  0.46016274893E+02 -0.34281278218E+02  0.13966961916E+03  0.12509000000E+03 0.  0.
         25    1    3    3    0    0 -0.20654025729E+01 -0.10805923384E+03  0.46689693347E+02  0.17178038150E+03  0.12509000000E+03 0.  0.
         25    1    4    4    0    0  0.25885369539E+02  0.62042958942E+02  0.28013337812E+02  0.14474680068E+03  0.12509000000E+03 0.  0.
<mgrwt>
<rscale>  2 0.45440247E+03</rscale>
<asrwt>0</asrwt>
<pdfrwt beam="1">  1       21 0.36516070E-01 0.45440247E+03</pdfrwt>
<pdfrwt beam="2">  1       21 0.30571695E-01 0.45440247E+03</pdfrwt>
<totfact> 0.68785575E+04</totfact>
</mgrwt>
</event>
<event>
 7    0  0.4831799E-002  0.4443465E+03  0.7546771E-02  0.1029421E+00
         21   -1    0    0  502  501  0.00000000000E+00  0.00000000000E+00  0.17619365877E+03  0.17619365877E+03  0.00000000000E+00 0.  1.
         21   -1    0    0  501  502 -0.00000000000E+00 -0.00000000000E+00 -0.28015174767E+03  0.28015174767E+03  0.00000000000E+00 0.  1.
      99926    2    1    2    0    0  0.00000000000E+00 -0.71054273576E-14 -0.10395808890E+03  0.45634540645E+03  0.44434653789E+03 0.  0.
      99925    2    3    3    0    0  0.36312502755E+02 -0.41248900057E+02  0.23080035170E+02  0.26978104040E+03  0.26311414276E+03 0.  0.
         25    1    4    4    0    0  0.22379352513E+02  0.15666407722E+02 -0.76631299091E+01  0.12826731232E+03  0.12509000000E+03 0.  0.
         25    1    4    4    0    0  0.13933150243E+02 -0.56915307779E+02  0.30743165079E+02  0.14151372808E+03  0.12509000000E+03 0.  0.
         25    1    3    3    0    0 -0.36312502755E+02  0.41248900057E+02 -0.12703812407E+03  0.18656436605E+03  0.12509000000E+03 0.  0.
<mgrwt>
<rscale>  2 0.44434654E+03</rscale>
<asrwt>0</asrwt>
<pdfrwt beam="1">  1       21 0.25910833E-01 0.44434654E+03</pdfrwt>
<pdfrwt beam="2">  1       21 0.41198786E-01 0.44434654E+03</pdfrwt>
<totfact> 0.74570014E+04</totfact>
</mgrwt>
</event>
<event>
 7    0  0.4831799E-002  0.4540496E+03  0.7546771E-02  0.1026521E+00
         21   -1    0    0  502  501  0.00000000000E+00  0.00000000000E+00  0.39240453879E+02  0.39240453879E+02  0.00000000000E+00 0. -1.
         21   -1    0    0  501  502 -0.00000000000E+00 -0.00000000000E+00 -0.13134468059E+04  0.13134468059E+04  0.00000000000E+00 0. -1.
      99926    2    1    2    0    0  0.00000000000E+00  0.14210854715E-13 -0.12742063520E+04  0.13526872598E+04  0.45404955152E+03 0.  0.
      99925    2    3    3    0    0  0.54095925275E+02  0.97721136106E+02 -0.77151960664E+03  0.82276532057E+03  0.26310545363E+03 0.  0.
         25    1    4    4    0    0  0.16504027684E+02  0.42700238769E+02 -0.48714549686E+03  0.50502864922E+03  0.12509000000E+03 0.  0.
         25    1    3    3    0    0 -0.54095925275E+02 -0.97721136106E+02 -0.50268674540E+03  0.52992193922E+03  0.12509000000E+03 0.  0.
         25    1    4    4    0    0  0.37591897592E+02  0.55020897337E+02 -0.28437410978E+03  0.31773667135E+03  0.12509000000E+03 0.  0.
<mgrwt>
<rscale>  2 0.45404955E+03</rscale>
<asrwt>0</asrwt>
<pdfrwt beam="1">  1       21 0.57706545E-02 0.45404955E+03</pdfrwt>
<pdfrwt beam="2">  1       21 0.19315396E+00 0.45404955E+03</pdfrwt>
<totfact> 0.27825530E+04</totfact>
</mgrwt>
</event>
<event>
 7    0  0.4831799E-002  0.4487423E+03  0.7546771E-02  0.1028098E+00
         21   -1    0    0  502  501  0.00000000000E+00  0.00000000000E+00  0.52700584333E+03  0.52700584333E+03  0.00000000000E+00 0. -1.
         21   -1    0    0  501  502 -0.00000000000E+00 -0.00000000000E+00 -0.95525339449E+02  0.95525339449E+02  0.00000000000E+00 0. -1.
      99926    2    1    2    0    0 -0.71054273576E-14  0.00000000000E+00  0.43148050389E+03  0.62253118278E+03  0.44874229609E+03 0.  0.
      99925    2    3    3    0    0 -0.49785030081E+02 -0.27174452751E+02  0.39943276518E+03  0.48149372053E+03  0.26281679724E+03 0.  0.
         25    1    4    4    0    0 -0.47466636311E+02 -0.38771786906E+02  0.16879073911E+03  0.21884733202E+03  0.12509000000E+03 0.  0.
         25    1    3    3    0    0  0.49785030081E+02  0.27174452751E+02  0.32047738708E+02  0.14103746225E+03  0.12509000000E+03 0.  0.
         25    1    4    4    0    0 -0.23183937706E+01  0.11597334155E+02  0.23064202607E+03  0.26264638851E+03  0.12509000000E+03 0.  0.
<mgrwt>
<rscale>  2 0.44874230E+03</rscale>
<asrwt>0</asrwt>
<pdfrwt beam="1">  1       21 0.77500858E-01 0.44874230E+03</pdfrwt>
<pdfrwt beam="2">  1       21 0.14047844E-01 0.44874230E+03</pdfrwt>
<totfact> 0.60233743E+04</totfact>
</mgrwt>
</event>
<event>
 7    0  0.4831799E-002  0.4484028E+03  0.7546771E-02  0.1028199E+00
         21   -1    0    0  502  501  0.00000000000E+00  0.00000000000E+00  0.58322482703E+03  0.58322482703E+03  0.00000000000E+00 0. -1.
         21   -1    0    0  501  502 -0.00000000000E+00 -0.00000000000E+00 -0.86186772922E+02  0.86186772922E+02  0.00000000000E+00 0. -1.
      99926    2    1    2    0    0  0.00000000000E+00  0.00000000000E+00  0.49703805411E+03  0.66941159996E+03  0.44840279094E+03 0.  0.
      99925    2    3    3    0    0  0.84905942172E+02  0.64474684597E+02  0.32242557045E+03  0.42961370271E+03  0.26314194100E+03 0.  0.
         25    1    4    4    0    0  0.31292631391E+02  0.57901910113E+01  0.19666554985E+03  0.23523945606E+03  0.12509000000E+03 0.  0.
         25    1    3    3    0    0 -0.84905942172E+02 -0.64474684597E+02  0.17461248366E+03  0.23979789724E+03  0.12509000000E+03 0.  0.
         25    1    4    4    0    0  0.53613310780E+02  0.58684493586E+02  0.12576002060E+03  0.19437424665E+03  0.12509000000E+03 0.  0.
<mgrwt>
<rscale>  2 0.44840279E+03</rscale>
<asrwt>0</asrwt>
<pdfrwt beam="1">  1       21 0.85768355E-01 0.44840279E+03</pdfrwt>
<pdfrwt beam="2">  1       21 0.12674526E-01 0.44840279E+03</pdfrwt>
<totfact> 0.57527986E+04</totfact>
</mgrwt>
</event>
<event>
 7    0  0.4831799E-002  0.4547715E+03  0.7546771E-02  0.1026309E+00
         21   -1    0    0  502  501  0.00000000000E+00  0.00000000000E+00  0.11893614023E+03  0.11893614023E+03  0.00000000000E+00 0. -1.
         21   -1    0    0  501  502 -0.00000000000E+00 -0.00000000000E+00 -0.43472306410E+03  0.43472306410E+03  0.00000000000E+00 0. -1.
      99926    2    1    2    0    0  0.00000000000E+00  0.00000000000E+00 -0.31578692387E+03  0.55365920433E+03  0.45477151763E+03 0.  0.
      99925    2    3    3    0    0 -0.20642974730E+02  0.34139191169E+02 -0.70212558148E+02  0.27518857037E+03  0.26307285903E+03 0.  0.
         25    1    4    4    0    0  0.15663765814E+01 -0.45210475581E+01 -0.67811648495E+02  0.14236861023E+03  0.12509000000E+03 0.  0.
         25    1    4    4    0    0 -0.22209351312E+02  0.38660238727E+02 -0.24009096533E+01  0.13281996014E+03  0.12509000000E+03 0.  0.
         25    1    3    3    0    0  0.20642974730E+02 -0.34139191169E+02 -0.24557436572E+03  0.27847063396E+03  0.12509000000E+03 0.  0.
<mgrwt>
<rscale>  2 0.45477152E+03</rscale>
<asrwt>0</asrwt>
<pdfrwt beam="1">  1       21 0.17490609E-01 0.45477152E+03</pdfrwt>
<pdfrwt beam="2">  1       21 0.63929862E-01 0.45477152E+03</pdfrwt>
<totfact> 0.61736872E+04</totfact>
</mgrwt>
</event>
<event>
 7    0  0.4831799E-002  0.4593488E+03  0.7546771E-02  0.1024970E+00
         21   -1    0    0  502  501  0.00000000000E+00  0.00000000000E+00  0.67232894633E+03  0.67232894633E+03  0.00000000000E+00 0. -1.
         21   -1    0    0  501  502 -0.00000000000E+00 -0.00000000000E+00 -0.78459115473E+02  0.78459115473E+02  0.00000000000E+00 0. -1.
      99926    2    1    2    0    0  0.00000000000E+00  0.00000000000E+00  0.59386983086E+03  0.75078806180E+03  0.45934881925E+03 0.  0.
      99925    2    3    3    0    0 -0.81679527862E+02 -0.83361780665E+02  0.38645365889E+03  0.48192060702E+03  0.26321152949E+03 0.  0.
         25    1    4    4    0    0 -0.83131089804E+02 -0.38802198402E+02  0.20720929650E+03  0.25884278887E+03  0.12509000000E+03 0.  0.
         25    1    4    4    0    0  0.14515619419E+01 -0.44559582262E+02  0.17924436239E+03  0.22307781816E+03  0.12509000000E+03 0.  0.
         25    1    3    3    0    0  0.81679527862E+02  0.83361780665E+02  0.20741617197E+03  0.26886745478E+03  0.12509000000E+03 0.  0.
<mgrwt>
<rscale>  2 0.45934882E+03</rscale>
<asrwt>0</asrwt>
<pdfrwt beam="1">  1       21 0.98871901E-01 0.45934882E+03</pdfrwt>
<pdfrwt beam="2">  1       21 0.11538106E-01 0.45934882E+03</pdfrwt>
<totfact> 0.48549937E+04</totfact>
</mgrwt>
</event>
<event>
 7    0  0.4831799E-002  0.4515642E+03  0.7546771E-02  0.1027257E+00
         21   -1    0    0  502  501  0.00000000000E+00  0.00000000000E+00  0.69198527132E+03  0.69198527132E+03  0.00000000000E+00 0.  1.
         21   -1    0    0  501  502 -0.00000000000E+00 -0.00000000000E+00 -0.73668548806E+02  0.73668548806E+02  0.00000000000E+00 0.  1.
      99926    2    1    2    0    0  0.00000000000E+00  0.00000000000E+00  0.61831672251E+03  0.76565382012E+03  0.45156417366E+03 0.  0.
      99925    2    3    3    0    0  0.79958250826E+02 -0.45696039064E+02  0.28887291556E+03  0.40142562256E+03  0.26308462373E+03 0.  0.
         25    1    4    4    0    0  0.24639224315E+01 -0.35155840619E+02  0.11640770479E+03  0.17447138985E+03  0.12509000000E+03 0.  0.
         25    1    3    3    0    0 -0.79958250826E+02  0.45696039064E+02  0.32944380696E+03  0.36422819757E+03  0.12509000000E+03 0.  0.
         25    1    4    4    0    0  0.77494328395E+02 -0.10540198445E+02  0.17246521077E+03  0.22695423270E+03  0.12509000000E+03 0.  0.
<mgrwt>
<rscale>  2 0.45156417E+03</rscale>
<asrwt>0</asrwt>
<pdfrwt beam="1">  1       21 0.10176254E+00 0.45156417E+03</pdfrwt>
<pdfrwt beam="2">  1       21 0.10833611E-01 0.45156417E+03</pdfrwt>
<totfact> 0.50827989E+04</totfact>
</mgrwt>
</event>
<event>
 7    0  0.4831799E-002  0.4541241E+03  0.7546771E-02  0.1026499E+00
         21   -1    0    0  502  501  0.00000000000E+00  0.00000000000E+00  0.29360217936E+03  0.29360217936E+03  0.00000000000E+00 0.  1.
         21   -1    0    0  501  502 -0.00000000000E+00 -0.00000000000E+00 -0.17560216779E+03  0.17560216779E+03  0.00000000000E+00 0.  1.
      99926    2    1    2    0    0  0.00000000000E+00  0.00000000000E+00  0.11800001157E+03  0.46920434716E+03  0.45412412032E+03 0.  0.
      99925    2    3    3    0    0 -0.96856160865E+02 -0.44029134203E+02  0.37079593308E+02  0.28613249583E+03  0.26301564283E+03 0.  0.
         25    1    3    3    0    0  0.96856160865E+02  0.44029134203E+02  0.80920418264E+02  0.18307185133E+03  0.12509000000E+03 0.  0.
         25    1    4    4    0    0 -0.53086994630E+02  0.17694241074E+02  0.26332012123E+02  0.13954281826E+03  0.12509000000E+03 0.  0.
         25    1    4    4    0    0 -0.43769166235E+02 -0.61723375276E+02  0.10747581186E+02  0.14658967757E+03  0.12509000000E+03 0.  0.
<mgrwt>
<rscale>  2 0.45412412E+03</rscale>
<asrwt>0</asrwt>
<pdfrwt beam="1">  1       21 0.43176791E-01 0.45412412E+03</pdfrwt>
<pdfrwt beam="2">  1       21 0.25823848E-01 0.45412412E+03</pdfrwt>
<totfact> 0.67965963E+04</totfact>
</mgrwt>
</event>
<event>
 7    0  0.4831799E-002  0.4533536E+03  0.7546771E-02  0.1026727E+00
         21   -1    0    0  502  501  0.00000000000E+00  0.00000000000E+00  0.82896965539E+03  0.82896965539E+03  0.00000000000E+00 0. -1.
         21   -1    0    0  501  502 -0.00000000000E+00 -0.00000000000E+00 -0.61983420271E+02  0.61983420271E+02  0.00000000000E+00 0. -1.
      99926    2    1    2    0    0  0.71054273576E-14  0.00000000000E+00  0.76698623512E+03  0.89095307566E+03  0.45335361272E+03 0.  0.
      99925    2    3    3    0    0 -0.35396279852E+02  0.72232629973E+02  0.33137476938E+03  0.43065392659E+03  0.26302683749E+03 0.  0.
         25    1    4    4    0    0 -0.51653116984E+02  0.20700352437E+02  0.14093580973E+03  0.19648653808E+03  0.12509000000E+03 0.  0.
         25    1    4    4    0    0  0.16256837133E+02  0.51532277537E+02  0.19043895966E+03  0.23416738850E+03  0.12509000000E+03 0.  0.
         25    1    3    3    0    0  0.35396279852E+02 -0.72232629973E+02  0.43561146573E+03  0.46029914907E+03  0.12509000000E+03 0.  0.
<mgrwt>
<rscale>  2 0.45335361E+03</rscale>
<asrwt>0</asrwt>
<pdfrwt beam="1">  1       21 0.12190730E+00 0.45335361E+03</pdfrwt>
<pdfrwt beam="2">  1       21 0.91152094E-02 0.45335361E+03</pdfrwt>
<totfact> 0.44194164E+04</totfact>
</mgrwt>
</event>
<event>
 7    0  0.4831799E-002  0.4468433E+03  0.7546771E-02  0.1028668E+00
         21   -1    0    0  502  501  0.00000000000E+00  0.00000000000E+00  0.19540265651E+03  0.19540265651E+03  0.00000000000E+00 0. -1.
         21   -1    0    0  501  502 -0.00000000000E+00 -0.00000000000E+00 -0.25545832419E+03  0.25545832419E+03  0.00000000000E+00 0. -1.
      99926    2    1    2    0    0  0.00000000000E+00 -0.71054273576E-14 -0.60055667677E+02  0.45086098070E+03  0.44684330665E+03 0.  0.
      99925    2    3    3    0    0  0.67464815250E+02 -0.37217390804E+02  0.34362778466E+02  0.27622139027E+03  0.26302247133E+03 0.  0.
         25    1    4    4    0    0  0.63670603687E+02 -0.18542824026E+02  0.46709057159E+02  0.14908731072E+03  0.12509000000E+03 0.  0.
         25    1    3    3    0    0 -0.67464815250E+02  0.37217390804E+02 -0.94418446143E+02  0.17463959043E+03  0.12509000000E+03 0.  0.
         25    1    4    4    0    0  0.37942115638E+01 -0.18674566778E+02 -0.12346278693E+02  0.12713407955E+03  0.12509000000E+03 0.  0.
<mgrwt>
<rscale>  2 0.44684331E+03</rscale>
<asrwt>0</asrwt>
<pdfrwt beam="1">  1       21 0.28735685E-01 0.44684331E+03</pdfrwt>
<pdfrwt beam="2">  1       21 0.37567401E-01 0.44684331E+03</pdfrwt>
<totfact> 0.73518913E+04</totfact>
</mgrwt>
</event>
<event>
 7    0  0.4831799E-002  0.4475173E+03  0.7546771E-02  0.1028465E+00
         21   -1    0    0  502  501  0.00000000000E+00  0.00000000000E+00  0.63621052137E+02  0.63621052137E+02  0.00000000000E+00 0.  1.
         21   -1    0    0  501  502 -0.00000000000E+00 -0.00000000000E+00 -0.78697125838E+03  0.78697125838E+03  0.00000000000E+00 0.  1.
      99926    2    1    2    0    0  0.00000000000E+00  0.00000000000E+00 -0.72335020625E+03  0.85059231052E+03  0.44751732686E+03 0.  0.
      99925    2    3    3    0    0  0.79876736653E+02  0.27474968043E+02 -0.33626412657E+03  0.43511871556E+03  0.26290600390E+03 0.  0.
         25    1    4    4    0    0  0.43253265110E+02 -0.18188405765E+02 -0.20425441551E+03  0.24406769021E+03  0.12509000000E+03 0.  0.
         25    1    4    4    0    0  0.36623471543E+02  0.45663373808E+02 -0.13200971105E+03  0.19105102535E+03  0.12509000000E+03 0.  0.
         25    1    3    3    0    0 -0.79876736653E+02 -0.27474968043E+02 -0.38708607968E+03  0.41547359496E+03  0.12509000000E+03 0.  0.
<mgrwt>
<rscale>  2 0.44751733E+03</rscale>
<asrwt>0</asrwt>
<pdfrwt beam="1">  1       21 0.93560369E-02 0.44751733E+03</pdfrwt>
<pdfrwt beam="2">  1       21 0.11573107E+00 0.44751733E+03</pdfrwt>
<totfact> 0.48179200E+04</totfact>
</mgrwt>
</event>
<event>
 7    0  0.4831799E-002  0.4575866E+03  0.7546771E-02  0.1025484E+00
         21   -1    0    0  502  501  0.00000000000E+00  0.00000000000E+00  0.13484744691E+03  0.13484744691E+03  0.00000000000E+00 0. -1.
         21   -1    0    0  501  502 -0.00000000000E+00 -0.00000000000E+00 -0.38818950039E+03  0.38818950039E+03  0.00000000000E+00 0. -1.
      99926    2    1    2    0    0  0.00000000000E+00  0.71054273576E-14 -0.25334205348E+03  0.52303694731E+03  0.45758655158E+03 0.  0.
      99925    2    3    3    0    0  0.90508930034E+02  0.59116259501E+02 -0.11307044480E+03  0.30621851900E+03  0.26324562169E+03 0.  0.
         25    1    4    4    0    0  0.13977686725E+02  0.50855953636E+02 -0.36472970577E+02  0.14056845104E+03  0.12509000000E+03 0.  0.
         25    1    4    4    0    0  0.76531243309E+02  0.82603058655E+01 -0.76597474224E+02  0.16565006795E+03  0.12509000000E+03 0.  0.
         25    1    3    3    0    0 -0.90508930034E+02 -0.59116259501E+02 -0.14027160868E+03  0.21681842831E+03  0.12509000000E+03 0.  0.
<mgrwt>
<rscale>  2 0.45758655E+03</rscale>
<asrwt>0</asrwt>
<pdfrwt beam="1">  1       21 0.19830507E-01 0.45758655E+03</pdfrwt>
<pdfrwt beam="2">  1       21 0.57086690E-01 0.45758655E+03</pdfrwt>
<totfact> 0.62390675E+04</totfact>
</mgrwt>
</event>
<event>
 7    0  0.4831799E-002  0.4580794E+03  0.7546771E-02  0.1025340E+00
         21   -1    0    0  502  501  0.00000000000E+00  0.00000000000E+00  0.17972653342E+03  0.17972653342E+03  0.00000000000E+00 0.  1.
         21   -1    0    0  501  502 -0.00000000000E+00 -0.00000000000E+00 -0.29188329519E+03  0.29188329519E+03  0.00000000000E+00 0.  1.
      99926    2    1    2    0    0  0.14210854715E-13  0.00000000000E+00 -0.11215676177E+03  0.47160982861E+03  0.45807935037E+03 0.  0.
      99925    2    3    3    0    0  0.91023952271E+02  0.49274143987E+02 -0.12431944625E+03  0.30879477972E+03  0.26303153825E+03 0.  0.
         25    1    4    4    0    0  0.44153498087E+01  0.31439496942E+02 -0.48480695360E+02  0.13786160889E+03  0.12509000000E+03 0.  0.
         25    1    4    4    0    0  0.86608602462E+02  0.17834647044E+02 -0.75838750887E+02  0.17093317084E+03  0.12509000000E+03 0.  0.
         25    1    3    3    0    0 -0.91023952271E+02 -0.49274143987E+02  0.12162684476E+02  0.16281504889E+03  0.12509000000E+03 0.  0.
<mgrwt>
<rscale>  2 0.45807935E+03</rscale>
<asrwt>0</asrwt>
<pdfrwt beam="1">  1       21 0.26430373E-01 0.45807935E+03</pdfrwt>
<pdfrwt beam="2">  1       21 0.42924014E-01 0.45807935E+03</pdfrwt>
<totfact> 0.65696651E+04</totfact>
</mgrwt>
</event>
<event>
 6    0  0.4831799E-002  0.4451717E+03  0.7546771E-02  0.1029172E+00
         21   -1    0    0  502  501  0.00000000000E+00  0.00000000000E+00  0.91358688093E+03  0.91358688093E+03  0.00000000000E+00 0.  1.
         21   -1    0    0  501  502 -0.00000000000E+00 -0.00000000000E+00 -0.54230710697E+02  0.54230710697E+02  0.00000000000E+00 0.  1.
      99926    2    1    2    0    0  0.00000000000E+00 -0.71054273576E-14  0.85935617023E+03  0.96781759162E+03  0.44517172343E+03 0.  0.
         25    1    3    3    0    0 -0.58814524218E+02 -0.50245567063E+02  0.15998432920E+03  0.21731603475E+03  0.12509000000E+03 0.  0.
         25    1    3    3    0    0  0.34168562777E+02  0.38092557112E+02  0.26258155448E+03  0.29532205207E+03  0.12509000000E+03 0.  0.
         25    1    3    3    0    0  0.24645961440E+02  0.12153009951E+02  0.43679028655E+03  0.45517950480E+03  0.12509000000E+03 0.  0.
<mgrwt>
<rscale>  2 0.44517172E+03</rscale>
<asrwt>0</asrwt>
<pdfrwt beam="1">  1       21 0.13435100E+00 0.44517172E+03</pdfrwt>
<pdfrwt beam="2">  1       21 0.79751051E-02 0.44517172E+03</pdfrwt>
<totfact> 0.43689270E+04</totfact>
</mgrwt>
</event>
<event>
 7    0  0.4831799E-002  0.4540056E+03  0.7546771E-02  0.1026534E+00
         21   -1    0    0  502  501  0.00000000000E+00  0.00000000000E+00  0.55749147401E+02  0.55749147401E+02  0.00000000000E+00 0.  1.
         21   -1    0    0  501  502 -0.00000000000E+00 -0.00000000000E+00 -0.92432387958E+03  0.92432387958E+03  0.00000000000E+00 0.  1.
      99926    2    1    2    0    0  0.00000000000E+00  0.00000000000E+00 -0.86857473217E+03  0.98007302698E+03  0.45400558679E+03 0.  0.
      99925    2    3    3    0    0 -0.44140993211E+02 -0.96325153710E+02 -0.46781213312E+03  0.54707749418E+03  0.26309433713E+03 0.  0.
         25    1    4    4    0    0 -0.21458039502E+02 -0.55318423287E+02 -0.16033812934E+03  0.21184050424E+03  0.12509000000E+03 0.  0.
         25    1    3    3    0    0  0.44140993211E+02  0.96325153710E+02 -0.40076259906E+03  0.43299553280E+03  0.12509000000E+03 0.  0.
         25    1    4    4    0    0 -0.22682953709E+02 -0.41006730423E+02 -0.30747400378E+03  0.33523698994E+03  0.12509000000E+03 0.  0.
<mgrwt>
<rscale>  2 0.45400559E+03</rscale>
<asrwt>0</asrwt>
<pdfrwt beam="1">  1       21 0.81984048E-02 0.45400559E+03</pdfrwt>
<pdfrwt beam="2">  1       21 0.13592997E+00 0.45400559E+03</pdfrwt>
<totfact> 0.40258354E+04</totfact>
</mgrwt>
</event>
<event>
 7    0  0.4831799E-002  0.4662904E+03  0.7546771E-02  0.1022972E+00
         21   -1    0    0  502  501  0.00000000000E+00  0.00000000000E+00  0.95899695160E+02  0.95899695160E+02  0.00000000000E+00 0.  1.
         21   -1    0    0  501  502 -0.00000000000E+00 -0.00000000000E+00 -0.56680771177E+03  0.56680771177E+03  0.00000000000E+00 0.  1.
      99926    2    1    2    0    0  0.00000000000E+00 -0.17763568394E-14 -0.47090801661E+03  0.66270740693E+03  0.46629041068E+03 0.  0.
      99925    2    3    3    0    0  0.80471792068E+02 -0.15055807866E+02 -0.16248547082E+03  0.31996207652E+03  0.26319539417E+03 0.  0.
         25    1    3    3    0    0 -0.80471792068E+02  0.15055807866E+02 -0.30842254579E+03  0.34274533041E+03  0.12509000000E+03 0.  0.
         25    1    4    4    0    0  0.78862323844E+02  0.76506097097E+01 -0.96182470527E+02  0.17656832583E+03  0.12509000000E+03 0.  0.
         25    1    4    4    0    0  0.16094682240E+01 -0.22706417576E+02 -0.66303000294E+02  0.14339375068E+03  0.12509000000E+03 0.  0.
<mgrwt>
<rscale>  2 0.46629041E+03</rscale>
<asrwt>0</asrwt>
<pdfrwt beam="1">  1       21 0.14102896E-01 0.46629041E+03</pdfrwt>
<pdfrwt beam="2">  1       21 0.83354075E-01 0.46629041E+03</pdfrwt>
<totfact> 0.50340692E+04</totfact>
</mgrwt>
</event>
<event>
 7    0  0.4831799E-002  0.4600187E+03  0.7546771E-02  0.1024776E+00
         21   -1    0    0  502  501  0.00000000000E+00  0.00000000000E+00  0.56270924258E+02  0.56270924258E+02  0.00000000000E+00 0.  1.
         21   -1    0    0  501  502 -0.00000000000E+00 -0.00000000000E+00 -0.94017137343E+03  0.94017137343E+03  0.00000000000E+00 0.  1.
      99926    2    1    2    0    0 -0.71054273576E-14  0.14210854715E-13 -0.88390044917E+03  0.99644229769E+03  0.46001874807E+03 0.  0.
      99925    2    3    3    0    0  0.42798140367E+02 -0.93402371767E+02 -0.67864725393E+03  0.73503826917E+03  0.26298950169E+03 0.  0.
         25    1    4    4    0    0  0.40915837680E+02 -0.83151597968E+02 -0.40827684442E+03  0.43695055075E+03  0.12509000000E+03 0.  0.
         25    1    4    4    0    0  0.18823026872E+01 -0.10250773799E+02 -0.27037040952E+03  0.29808771841E+03  0.12509000000E+03 0.  0.
         25    1    3    3    0    0 -0.42798140367E+02  0.93402371767E+02 -0.20525319524E+03  0.26140402852E+03  0.12509000000E+03 0.  0.
<mgrwt>
<rscale>  2 0.46001875E+03</rscale>
<asrwt>0</asrwt>
<pdfrwt beam="1">  1       21 0.82751367E-02 0.46001875E+03</pdfrwt>
<pdfrwt beam="2">  1       21 0.13826048E+00 0.46001875E+03</pdfrwt>
<totfact> 0.37801836E+04</totfact>
</mgrwt>
</event>
<event>
 7    0  0.4831799E-002  0.4507500E+03  0.7546771E-02  0.1027499E+00
         21   -1    0    0  502  501  0.00000000000E+00  0.00000000000E+00  0.58224865439E+03  0.58224865439E+03  0.00000000000E+00 0. -1.
         21   -1    0    0  501  502 -0.00000000000E+00 -0.00000000000E+00 -0.87237451050E+02  0.87237451050E+02  0.00000000000E+00 0. -1.
      99926    2    1    2    0    0  0.00000000000E+00  0.00000000000E+00  0.49501120334E+03  0.66948610544E+03  0.45074999051E+03 0.  0.
      99925    2    3    3    0    0 -0.47814500175E+02 -0.75985141316E+02  0.21991782326E+03  0.35423407294E+03  0.26278881506E+03 0.  0.
         25    1    3    3    0    0  0.47814500175E+02  0.75985141316E+02  0.27509338008E+03  0.31525203250E+03  0.12509000000E+03 0.  0.
         25    1    4    4    0    0  0.83091944376E+01 -0.14289819579E+02  0.11666800042E+03  0.17184927139E+03  0.12509000000E+03 0.  0.
         25    1    4    4    0    0 -0.56123694613E+02 -0.61695321737E+02  0.10324982284E+03  0.18238480155E+03  0.12509000000E+03 0.  0.
<mgrwt>
<rscale>  2 0.45074999E+03</rscale>
<asrwt>0</asrwt>
<pdfrwt beam="1">  1       21 0.85624800E-01 0.45074999E+03</pdfrwt>
<pdfrwt beam="2">  1       21 0.12829037E-01 0.45074999E+03</pdfrwt>
<totfact> 0.56458619E+04</totfact>
</mgrwt>
</event>
<event>
 7    0  0.4831799E-002  0.4569985E+03  0.7546771E-02  0.1025655E+00
         21   -1    0    0  502  501  0.00000000000E+00  0.00000000000E+00  0.20990762697E+03  0.20990762697E+03  0.00000000000E+00 0. -1.
         21   -1    0    0  501  502 -0.00000000000E+00 -0.00000000000E+00 -0.24873759137E+03  0.24873759137E+03  0.00000000000E+00 0. -1.
      99926    2    1    2    0    0  0.00000000000E+00  0.00000000000E+00 -0.38829964394E+02  0.45864521834E+03  0.45699854504E+03 0.  0.
      99925    2    3    3    0    0  0.17180067719E+02  0.10545949542E+03  0.18364941179E+02  0.28447396576E+03  0.26300438443E+03 0.  0.
         25    1    3    3    0    0 -0.17180067719E+02 -0.10545949542E+03 -0.57194905572E+02  0.17417125258E+03  0.12509000000E+03 0.  0.
         25    1    4    4    0    0 -0.26369225737E+02  0.63085736173E+02  0.27190151387E+02  0.14512738751E+03  0.12509000000E+03 0.  0.
         25    1    4    4    0    0  0.43549293456E+02  0.42373759252E+02 -0.88252102079E+01  0.13934657825E+03  0.12509000000E+03 0.  0.
<mgrwt>
<rscale>  2 0.45699855E+03</rscale>
<asrwt>0</asrwt>
<pdfrwt beam="1">  1       21 0.30868769E-01 0.45699855E+03</pdfrwt>
<pdfrwt beam="2">  1       21 0.36579057E-01 0.45699855E+03</pdfrwt>
<totfact> 0.67201606E+04</totfact>
</mgrwt>
</event>
<event>
 7    0  0.4831799E-002  0.4598308E+03  0.7546771E-02  0.1024830E+00
         21   -1    0    0  502  501  0.00000000000E+00  0.00000000000E+00  0.33043601813E+03  0.33043601813E+03  0.00000000000E+00 0. -1.
         21   -1    0    0  501  502 -0.00000000000E+00 -0.00000000000E+00 -0.15997373029E+03  0.15997373029E+03  0.00000000000E+00 0. -1.
      99926    2    1    2    0    0  0.00000000000E+00  0.00000000000E+00  0.17046228784E+03  0.49040974843E+03  0.45983076210E+03 0.  0.
      99925    2    3    3    0    0 -0.97135766184E+01 -0.11704394464E+03  0.11118556675E+03  0.30887496853E+03  0.26314991428E+03 0.  0.
         25    1    3    3    0    0  0.97135766184E+01  0.11704394464E+03  0.59276721092E+02  0.18153477989E+03  0.12509000000E+03 0.  0.
         25    1    4    4    0    0 -0.10284506816E+02 -0.78041376974E+02  0.97661434908E+02  0.17714821921E+03  0.12509000000E+03 0.  0.
         25    1    4    4    0    0  0.57093019760E+00 -0.39002567664E+02  0.13524131839E+02  0.13172674932E+03  0.12509000000E+03 0.  0.
<mgrwt>
<rscale>  2 0.45983076E+03</rscale>
<asrwt>0</asrwt>
<pdfrwt beam="1">  1       21 0.48593532E-01 0.45983076E+03</pdfrwt>
<pdfrwt beam="2">  1       21 0.23525549E-01 0.45983076E+03</pdfrwt>
<totfact> 0.63480222E+04</totfact>
</mgrwt>
</event>
<event>
 7    0  0.4831799E-002  0.4656954E+03  0.7546771E-02  0.1023142E+00
         21   -1    0    0  502  501  0.00000000000E+00  0.00000000000E+00  0.87638725041E+03  0.87638725041E+03  0.00000000000E+00 0. -1.
         21   -1    0    0  501  502 -0.00000000000E+00 -0.00000000000E+00 -0.61865396264E+02  0.61865396264E+02  0.00000000000E+00 0. -1.
      99926    2    1    2    0    0  0.14210854715E-13  0.00000000000E+00  0.81452185414E+03  0.93825264667E+03  0.46569537050E+03 0.  0.
      99925    2    3    3    0    0 -0.94674641270E+02 -0.73536831294E+02  0.45193786197E+03  0.53639992149E+03  0.26288037476E+03 0.  0.
         25    1    4    4    0    0 -0.62042529092E+02 -0.76818768104E+02  0.23860870500E+03  0.28693556899E+03  0.12509000000E+03 0.  0.
         25    1    4    4    0    0 -0.32632112177E+02  0.32819368107E+01  0.21332915698E+03  0.24946435251E+03  0.12509000000E+03 0.  0.
         25    1    3    3    0    0  0.94674641270E+02  0.73536831294E+02  0.36258399217E+03  0.40185272518E+03  0.12509000000E+03 0.  0.
<mgrwt>
<rscale>  2 0.46569537E+03</rscale>
<asrwt>0</asrwt>
<pdfrwt beam="1">  1       21 0.12888047E+00 0.46569537E+03</pdfrwt>
<pdfrwt beam="2">  1       21 0.90978529E-02 0.46569537E+03</pdfrwt>
<totfact> 0.38312582E+04</totfact>
</mgrwt>
</event>
<event>
 7    0  0.4831799E-002  0.4217772E+03  0.7546771E-02  0.1036489E+00
         21   -1    0    0  502  501  0.00000000000E+00  0.00000000000E+00  0.47669225613E+03  0.47669225613E+03  0.00000000000E+00 0.  1.
         21   -1    0    0  501  502 -0.00000000000E+00 -0.00000000000E+00 -0.93297098477E+02  0.93297098477E+02  0.00000000000E+00 0.  1.
      99926    2    1    2    0    0 -0.66613381478E-15  0.00000000000E+00  0.38339515765E+03  0.56998935461E+03  0.42177721306E+03 0.  0.
      99925    2    3    3    0    0 -0.81735743901E+00 -0.77564852081E+02  0.26146829209E+03  0.37885944329E+03  0.26296736614E+03 0.  0.
         25    1    3    3    0    0  0.81735743901E+00  0.77564852081E+02  0.12192686557E+03  0.19112991131E+03  0.12509000000E+03 0.  0.
         25    1    4    4    0    0 -0.28970473657E+02 -0.67528438725E+02  0.14978629449E+03  0.20852534737E+03  0.12509000000E+03 0.  0.
         25    1    4    4    0    0  0.28153116218E+02 -0.10036413356E+02  0.11168199760E+03  0.17033409592E+03  0.12509000000E+03 0.  0.
<mgrwt>
<rscale>  2 0.42177721E+03</rscale>
<asrwt>0</asrwt>
<pdfrwt beam="1">  1       21 0.70101801E-01 0.42177721E+03</pdfrwt>
<pdfrwt beam="2">  1       21 0.13720162E-01 0.42177721E+03</pdfrwt>
<totfact> 0.79473767E+04</totfact>
</mgrwt>
</event>
<event>
 6    0  0.4831799E-002  0.4502627E+03  0.7546771E-02  0.1027644E+00
         21   -1    0    0  502  501  0.00000000000E+00  0.00000000000E+00  0.76014193991E+03  0.76014193991E+03  0.00000000000E+00 0. -1.
         21   -1    0    0  501  502 -0.00000000000E+00 -0.00000000000E+00 -0.66677187260E+02  0.66677187260E+02  0.00000000000E+00 0. -1.
      99926    2    1    2    0    0  0.00000000000E+00  0.00000000000E+00  0.69346475265E+03  0.82681912717E+03  0.45026270763E+03 0.  0.
         25    1    3    3    0    0 -0.23609423624E+02  0.62156217966E+02  0.40664474823E+03  0.43061381734E+03  0.12509000000E+03 0.  0.
         25    1    3    3    0    0  0.27655313692E+02 -0.71343056968E+02  0.13590303290E+03  0.19992946407E+03  0.12509000000E+03 0.  0.
         25    1    3    3    0    0 -0.40458900680E+01  0.91868390018E+01  0.15091697152E+03  0.19627584576E+03  0.12509000000E+03 0.  0.
<mgrwt>
<rscale>  2 0.45026271E+03</rscale>
<asrwt>0</asrwt>
<pdfrwt beam="1">  1       21 0.11178557E+00 0.45026271E+03</pdfrwt>
<pdfrwt beam="2">  1       21 0.98054691E-02 0.45026271E+03</pdfrwt>
<totfact> 0.48263920E+04</totfact>
</mgrwt>
</event>
<event>
 7    0  0.4831799E-002  0.4610196E+03  0.7546771E-02  0.1024486E+00
         21   -1    0    0  502  501  0.00000000000E+00  0.00000000000E+00  0.93117207799E+03  0.93117207799E+03  0.00000000000E+00 0.  1.
         21   -1    0    0  501  502 -0.00000000000E+00 -0.00000000000E+00 -0.57062248495E+02  0.57062248495E+02  0.00000000000E+00 0.  1.
      99926    2    1    2    0    0  0.00000000000E+00  0.00000000000E+00  0.87410982949E+03  0.98823432648E+03  0.46101962000E+03 0.  0.
      99925    2    3    3    0    0 -0.52438299221E+01 -0.50698127959E+02  0.77628284899E+03  0.82145475896E+03  0.26377085025E+03 0.  0.
         25    1    4    4    0    0  0.20025737983E+02 -0.34080981406E+02  0.28754881964E+03  0.31606071450E+03  0.12509000000E+03 0.  0.
         25    1    3    3    0    0  0.52438299221E+01  0.50698127959E+02  0.97826980499E+02  0.16677956753E+03  0.12509000000E+03 0.  0.
         25    1    4    4    0    0 -0.25269567905E+02 -0.16617146553E+02  0.48873402936E+03  0.50539404446E+03  0.12509000000E+03 0.  0.
<mgrwt>
<rscale>  2 0.46101962E+03</rscale>
<asrwt>0</asrwt>
<pdfrwt beam="1">  1       21 0.13693706E+00 0.46101962E+03</pdfrwt>
<pdfrwt beam="2">  1       21 0.83915077E-02 0.46101962E+03</pdfrwt>
<totfact> 0.37817738E+04</totfact>
</mgrwt>
</event>
<event>
 7    0  0.4831799E-002  0.4549586E+03  0.7546771E-02  0.1026254E+00
         21   -1    0    0  502  501  0.00000000000E+00  0.00000000000E+00  0.17927155763E+03  0.17927155763E+03  0.00000000000E+00 0. -1.
         21   -1    0    0  501  502 -0.00000000000E+00 -0.00000000000E+00 -0.28865057096E+03  0.28865057096E+03  0.00000000000E+00 0. -1.
      99926    2    1    2    0    0  0.00000000000E+00  0.00000000000E+00 -0.10937901334E+03  0.46792212859E+03  0.45495862434E+03 0.  0.
      99925    2    3    3    0    0  0.44139395757E+02 -0.94932053029E+02 -0.24948253361E+02  0.28424730103E+03  0.26308502779E+03 0.  0.
         25    1    4    4    0    0  0.59161518014E+02 -0.65380284963E+02 -0.23458943354E+02  0.15483054285E+03  0.12509000000E+03 0.  0.
         25    1    3    3    0    0 -0.44139395757E+02  0.94932053029E+02 -0.84430759974E+02  0.18367482756E+03  0.12509000000E+03 0.  0.
         25    1    4    4    0    0 -0.15022122257E+02 -0.29551768066E+02 -0.14893100064E+01  0.12941675818E+03  0.12509000000E+03 0.  0.
<mgrwt>
<rscale>  2 0.45495862E+03</rscale>
<asrwt>0</asrwt>
<pdfrwt beam="1">  1       21 0.26363465E-01 0.45495862E+03</pdfrwt>
<pdfrwt beam="2">  1       21 0.42448613E-01 0.45495862E+03</pdfrwt>
<totfact> 0.67612883E+04</totfact>
</mgrwt>
</event>
<event>
 7    0  0.4831799E-002  0.4338854E+03  0.7546771E-02  0.1032640E+00
         21   -1    0    0  502  501  0.00000000000E+00  0.00000000000E+00  0.43557857365E+03  0.43557857365E+03  0.00000000000E+00 0. -1.
         21   -1    0    0  501  502 -0.00000000000E+00 -0.00000000000E+00 -0.10804970602E+03  0.10804970602E+03  0.00000000000E+00 0. -1.
      99926    2    1    2    0    0  0.14210854715E-13  0.00000000000E+00  0.32752886763E+03  0.54362827968E+03  0.43388540807E+03 0.  0.
      99925    2    3    3    0    0 -0.80573923621E+02  0.40827212147E+02  0.18794233137E+03  0.33556355988E+03  0.26290980275E+03 0.  0.
         25    1    4    4    0    0 -0.80830038467E+01  0.24182786362E+02  0.57055367147E+02  0.13983191741E+03  0.12509000000E+03 0.  0.
         25    1    3    3    0    0  0.80573923621E+02 -0.40827212147E+02  0.13958653626E+03  0.20806471980E+03  0.12509000000E+03 0.  0.
         25    1    4    4    0    0 -0.72490919774E+02  0.16644425785E+02  0.13088696422E+03  0.19573164246E+03  0.12509000000E+03 0.  0.
<mgrwt>
<rscale>  2 0.43388541E+03</rscale>
<asrwt>0</asrwt>
<pdfrwt beam="1">  1       21 0.64055672E-01 0.43388541E+03</pdfrwt>
<pdfrwt beam="2">  1       21 0.15889663E-01 0.43388541E+03</pdfrwt>
<totfact> 0.73881344E+04</totfact>
</mgrwt>
</event>
<event>
 7    0  0.4831799E-002  0.4570609E+03  0.7546771E-02  0.1025637E+00
         21   -1    0    0  502  501  0.00000000000E+00  0.00000000000E+00  0.32236186813E+03  0.32236186813E+03  0.00000000000E+00 0. -1.
         21   -1    0    0  501  502 -0.00000000000E+00 -0.00000000000E+00 -0.16201097832E+03  0.16201097832E+03  0.00000000000E+00 0. -1.
      99926    2    1    2    0    0  0.00000000000E+00  0.14210854715E-13  0.16035088981E+03  0.48437284644E+03  0.45706087834E+03 0.  0.
      99925    2    3    3    0    0 -0.72203927665E+02 -0.78838626774E+02  0.55546684465E+02  0.28928218598E+03  0.26300154511E+03 0.  0.
         25    1    3    3    0    0  0.72203927665E+02  0.78838626774E+02  0.10480420534E+03  0.19509066046E+03  0.12509000000E+03 0.  0.
         25    1    4    4    0    0 -0.42727648432E+02 -0.67350669823E+02  0.60359333191E+02  0.16016404674E+03  0.12509000000E+03 0.  0.
         25    1    4    4    0    0 -0.29476279233E+02 -0.11487956951E+02 -0.48126487266E+01  0.12911813924E+03  0.12509000000E+03 0.  0.
<mgrwt>
<rscale>  2 0.45706088E+03</rscale>
<asrwt>0</asrwt>
<pdfrwt beam="1">  1       21 0.47406157E-01 0.45706088E+03</pdfrwt>
<pdfrwt beam="2">  1       21 0.23825144E-01 0.45706088E+03</pdfrwt>
<totfact> 0.65308181E+04</totfact>
</mgrwt>
</event>
<event>
 7    0  0.4831799E-002  0.4506487E+03  0.7546771E-02  0.1027529E+00
         21   -1    0    0  502  501  0.00000000000E+00  0.00000000000E+00  0.17559625757E+03  0.17559625757E+03  0.00000000000E+00 0. -1.
         21   -1    0    0  501  502 -0.00000000000E+00 -0.00000000000E+00 -0.28913517620E+03  0.28913517620E+03  0.00000000000E+00 0. -1.
      99926    2    1    2    0    0  0.00000000000E+00  0.00000000000E+00 -0.11353891862E+03  0.46473143377E+03  0.45064866525E+03 0.  0.
      99925    2    3    3    0    0  0.39269083885E+02  0.10254189256E+03 -0.68809475217E+02  0.29237966590E+03  0.26209583071E+03 0.  0.
         25    1    4    4    0    0 -0.15735770709E+02  0.53962921075E+02 -0.16145167818E+02  0.13808615381E+03  0.12509000000E+03 0.  0.
         25    1    3    3    0    0 -0.39269083885E+02 -0.10254189256E+03 -0.44729443405E+02  0.17235176787E+03  0.12509000000E+03 0.  0.
         25    1    4    4    0    0  0.55004854595E+02  0.48578971487E+02 -0.52664307399E+02  0.15429351209E+03  0.12509000000E+03 0.  0.
<mgrwt>
<rscale>  2 0.45064867E+03</rscale>
<asrwt>0</asrwt>
<pdfrwt beam="1">  1       21 0.25822979E-01 0.45064867E+03</pdfrwt>
<pdfrwt beam="2">  1       21 0.42519879E-01 0.45064867E+03</pdfrwt>
<totfact> 0.70222385E+04</totfact>
</mgrwt>
</event>
<event>
 7    0  0.4831799E-002  0.4620552E+03  0.7546771E-02  0.1024187E+00
         21   -1    0    0  502  501  0.00000000000E+00  0.00000000000E+00  0.23878506858E+03  0.23878506858E+03  0.00000000000E+00 0.  1.
         21   -1    0    0  501  502 -0.00000000000E+00 -0.00000000000E+00 -0.22352215131E+03  0.22352215131E+03  0.00000000000E+00 0.  1.
      99926    2    1    2    0    0  0.00000000000E+00  0.00000000000E+00  0.15262917263E+02  0.46230721989E+03  0.46205520116E+03 0.  0.
      99925    2    3    3    0    0  0.67491014730E+02 -0.83485247201E+02  0.62464885591E+02  0.29084189545E+03  0.26298730511E+03 0.  0.
         25    1    4    4    0    0  0.44010681337E+02 -0.59727550690E+02  0.69475918064E+02  0.16117919119E+03  0.12509000000E+03 0.  0.
         25    1    3    3    0    0 -0.67491014730E+02  0.83485247201E+02 -0.47201968328E+02  0.17146532444E+03  0.12509000000E+03 0.  0.
         25    1    4    4    0    0  0.23480333393E+02 -0.23757696511E+02 -0.70110324723E+01  0.12966270426E+03  0.12509000000E+03 0.  0.
<mgrwt>
<rscale>  2 0.46205520E+03</rscale>
<asrwt>0</asrwt>
<pdfrwt beam="1">  1       21 0.35115451E-01 0.46205520E+03</pdfrwt>
<pdfrwt beam="2">  1       21 0.32870905E-01 0.46205520E+03</pdfrwt>
<totfact> 0.64316250E+04</totfact>
</mgrwt>
</event>
<event>
 7    0  0.4831799E-002  0.4404034E+03  0.7546771E-02  0.1030623E+00
         21   -1    0    0  502  501  0.00000000000E+00  0.00000000000E+00  0.80712395679E+02  0.80712395679E+02  0.00000000000E+00 0. -1.
         21   -1    0    0  501  502 -0.00000000000E+00 -0.00000000000E+00 -0.60076017042E+03  0.60076017042E+03  0.00000000000E+00 0. -1.
      99926    2    1    2    0    0  0.00000000000E+00 -0.26645352591E-14 -0.52004777474E+03  0.68147256610E+03  0.44040341771E+03 0.  0.
      99925    2    3    3    0    0  0.39065832593E+02  0.71511354782E+01 -0.47191142212E+03  0.54168023956E+03  0.26294450668E+03 0.  0.
         25    1    4    4    0    0  0.89278898748E+01  0.35968478142E+02 -0.19028881924E+03  0.23071796953E+03  0.12509000000E+03 0.  0.
         25    1    4    4    0    0  0.30137942718E+02 -0.28817342664E+02 -0.28162260289E+03  0.31096227003E+03  0.12509000000E+03 0.  0.
         25    1    3    3    0    0 -0.39065832593E+02 -0.71511354782E+01 -0.48136352623E+02  0.13979232654E+03  0.12509000000E+03 0.  0.
<mgrwt>
<rscale>  2 0.44040342E+03</rscale>
<asrwt>0</asrwt>
<pdfrwt beam="1">  1       21 0.11869470E-01 0.44040342E+03</pdfrwt>
<pdfrwt beam="2">  1       21 0.88347083E-01 0.44040342E+03</pdfrwt>
<totfact> 0.60589707E+04</totfact>
</mgrwt>
</event>
<event>
 7    0  0.4831799E-002  0.4586553E+03  0.7546771E-02  0.1025172E+00
         21   -1    0    0  502  501  0.00000000000E+00  0.00000000000E+00  0.41044411372E+02  0.41044411372E+02  0.00000000000E+00 0. -1.
         21   -1    0    0  501  502 -0.00000000000E+00 -0.00000000000E+00 -0.12813238245E+04  0.12813238245E+04  0.00000000000E+00 0. -1.
      99926    2    1    2    0    0  0.35527136788E-14 -0.71054273576E-14 -0.12402794131E+04  0.13223682359E+04  0.45865534839E+03 0.  0.
      99925    2    3    3    0    0 -0.31831500253E+02  0.54206598855E+02 -0.49486229662E+03  0.56391864266E+03  0.26299038604E+03 0.  0.
         25    1    3    3    0    0  0.31831500253E+02 -0.54206598855E+02 -0.74541711648E+03  0.75844959319E+03  0.12509000000E+03 0.  0.
         25    1    4    4    0    0 -0.49140713697E+01  0.59742113431E+02 -0.30294934067E+03  0.33319525706E+03  0.12509000000E+03 0.  0.
         25    1    4    4    0    0 -0.26917428883E+02 -0.55355145765E+01 -0.19191295596E+03  0.23072338560E+03  0.12509000000E+03 0.  0.
<mgrwt>
<rscale>  2 0.45865535E+03</rscale>
<asrwt>0</asrwt>
<pdfrwt beam="1">  1       21 0.60359421E-02 0.45865535E+03</pdfrwt>
<pdfrwt beam="2">  1       21 0.18843000E+00 0.45865535E+03</pdfrwt>
<totfact> 0.27676871E+04</totfact>
</mgrwt>
</event>
<event>
 7    0  0.4831799E-002  0.4550056E+03  0.7546771E-02  0.1026240E+00
         21   -1    0    0  502  501  0.00000000000E+00  0.00000000000E+00  0.47101038644E+02  0.47101038644E+02  0.00000000000E+00 0. -1.
         21   -1    0    0  501  502 -0.00000000000E+00 -0.00000000000E+00 -0.10988616684E+04  0.10988616684E+04  0.00000000000E+00 0. -1.
      99926    2    1    2    0    0 -0.14210854715E-13  0.71054273576E-14 -0.10517606298E+04  0.11459627071E+04  0.45500560836E+03 0.  0.
      99925    2    3    3    0    0  0.66488365945E+02 -0.46952592335E+02 -0.46419427783E+03  0.53973917175E+03  0.26309085354E+03 0.  0.
         25    1    4    4    0    0  0.17083232610E+02  0.62603316168E+00 -0.27669278282E+03  0.30413587904E+03  0.12509000000E+03 0.  0.
         25    1    4    4    0    0  0.49405133335E+02 -0.47578625497E+02 -0.18750149500E+03  0.23560329270E+03  0.12509000000E+03 0.  0.
         25    1    3    3    0    0 -0.66488365945E+02  0.46952592335E+02 -0.58756635195E+03  0.60622353533E+03  0.12509000000E+03 0.  0.
<mgrwt>
<rscale>  2 0.45500561E+03</rscale>
<asrwt>0</asrwt>
<pdfrwt beam="1">  1       21 0.69266240E-02 0.45500561E+03</pdfrwt>
<pdfrwt beam="2">  1       21 0.16159729E+00 0.45500561E+03</pdfrwt>
<totfact> 0.33915969E+04</totfact>
</mgrwt>
</event>
<event>
 7    0  0.4831799E-002  0.4524239E+03  0.7546771E-02  0.1027002E+00
         21   -1    0    0  502  501  0.00000000000E+00  0.00000000000E+00  0.59647823593E+02  0.59647823593E+02  0.00000000000E+00 0. -1.
         21   -1    0    0  501  502 -0.00000000000E+00 -0.00000000000E+00 -0.85789980539E+03  0.85789980539E+03  0.00000000000E+00 0. -1.
      99926    2    1    2    0    0 -0.11102230246E-14 -0.14210854715E-13 -0.79825198179E+03  0.91754762898E+03  0.45242394389E+03 0.  0.
      99925    2    3    3    0    0  0.10543562956E+01  0.98500032006E+02 -0.40060316170E+03  0.48920727343E+03  0.26294009819E+03 0.  0.
         25    1    3    3    0    0 -0.10543562956E+01 -0.98500032006E+02 -0.39764882009E+03  0.42834035555E+03  0.12509000000E+03 0.  0.
         25    1    4    4    0    0  0.18752777609E+02  0.87129204952E+02 -0.20725453972E+03  0.25796340313E+03  0.12509000000E+03 0.  0.
         25    1    4    4    0    0 -0.17698421314E+02  0.11370827054E+02 -0.19334862198E+03  0.23124387029E+03  0.12509000000E+03 0.  0.
<mgrwt>
<rscale>  2 0.45242394E+03</rscale>
<asrwt>0</asrwt>
<pdfrwt beam="1">  1       21 0.87717391E-02 0.45242394E+03</pdfrwt>
<pdfrwt beam="2">  1       21 0.12616173E+00 0.45242394E+03</pdfrwt>
<totfact> 0.43350704E+04</totfact>
</mgrwt>
</event>
<event>
 7    0  0.4831799E-002  0.4502049E+03  0.7546771E-02  0.1027661E+00
         21   -1    0    0  502  501  0.00000000000E+00  0.00000000000E+00  0.17162375037E+03  0.17162375037E+03  0.00000000000E+00 0.  1.
         21   -1    0    0  501  502 -0.00000000000E+00 -0.00000000000E+00 -0.29524536706E+03  0.29524536706E+03  0.00000000000E+00 0.  1.
      99926    2    1    2    0    0 -0.14210854715E-13  0.00000000000E+00 -0.12362161669E+03  0.46686911743E+03  0.45020491856E+03 0.  0.
      99925    2    3    3    0    0 -0.98461331500E+02 -0.40007699156E+02 -0.10113481319E+03  0.30119348789E+03  0.26304755637E+03 0.  0.
         25    1    4    4    0    0 -0.76981031844E+02  0.21992411397E+01 -0.30865140327E+02  0.15010356729E+03  0.12509000000E+03 0.  0.
         25    1    4    4    0    0 -0.21480299656E+02 -0.42206940296E+02 -0.70269672862E+02  0.15108992060E+03  0.12509000000E+03 0.  0.
         25    1    3    3    0    0  0.98461331500E+02  0.40007699156E+02 -0.22486803499E+02  0.16567562954E+03  0.12509000000E+03 0.  0.
<mgrwt>
<rscale>  2 0.45020492E+03</rscale>
<asrwt>0</asrwt>
<pdfrwt beam="1">  1       21 0.25238787E-01 0.45020492E+03</pdfrwt>
<pdfrwt beam="2">  1       21 0.43418436E-01 0.45020492E+03</pdfrwt>
<totfact> 0.70305908E+04</totfact>
</mgrwt>
</event>
<event>
 7    0  0.4831799E-002  0.4576767E+03  0.7546771E-02  0.1025457E+00
         21   -1    0    0  502  501  0.00000000000E+00  0.00000000000E+00  0.48994404184E+03  0.48994404184E+03  0.00000000000E+00 0. -1.
         21   -1    0    0  501  502 -0.00000000000E+00 -0.00000000000E+00 -0.10688361858E+03  0.10688361858E+03  0.00000000000E+00 0. -1.
      99926    2    1    2    0    0 -0.71054273576E-14 -0.88817841970E-15  0.38306042327E+03  0.59682766042E+03  0.45767670726E+03 0.  0.
      99925    2    3    3    0    0 -0.51663059044E+02  0.54139433144E+01  0.10576722822E+03  0.28822207627E+03  0.26303398303E+03 0.  0.
         25    1    4    4    0    0 -0.29211886660E+02 -0.29723588292E+02  0.26858354989E+02  0.13455744259E+03  0.12509000000E+03 0.  0.
         25    1    4    4    0    0 -0.22451172384E+02  0.35137531606E+02  0.78908873233E+02  0.15366463368E+03  0.12509000000E+03 0.  0.
         25    1    3    3    0    0  0.51663059044E+02 -0.54139433144E+01  0.27729319504E+03  0.30860558415E+03  0.12509000000E+03 0.  0.
<mgrwt>
<rscale>  2 0.45767671E+03</rscale>
<asrwt>0</asrwt>
<pdfrwt beam="1">  1       21 0.72050594E-01 0.45767671E+03</pdfrwt>
<pdfrwt beam="2">  1       21 0.15718179E-01 0.45767671E+03</pdfrwt>
<totfact> 0.57644968E+04</totfact>
</mgrwt>
</event>
<event>
 7    0  0.4831799E-002  0.4393715E+03  0.7546771E-02  0.1030940E+00
         21   -1    0    0  502  501  0.00000000000E+00  0.00000000000E+00  0.10596623595E+03  0.10596623595E+03  0.00000000000E+00 0. -1.
         21   -1    0    0  501  502 -0.00000000000E+00 -0.00000000000E+00 -0.45544537703E+03  0.45544537703E+03  0.00000000000E+00 0. -1.
      99926    2    1    2    0    0 -0.14210854715E-13  0.00000000000E+00 -0.34947914108E+03  0.56141161297E+03  0.43937151607E+03 0.  0.
      99925    2    3    3    0    0 -0.72849755455E+02 -0.53376492080E+02 -0.27101400306E+03  0.38832081957E+03  0.26303675082E+03 0.  0.
         25    1    3    3    0    0  0.72849755455E+02  0.53376492080E+02 -0.78465138022E+02  0.17309079340E+03  0.12509000000E+03 0.  0.
         25    1    4    4    0    0 -0.19850925292E+02  0.11927975754E+02 -0.11753463674E+03  0.17319998491E+03  0.12509000000E+03 0.  0.
         25    1    4    4    0    0 -0.52998830162E+02 -0.65304467834E+02 -0.15347936632E+03  0.21512083466E+03  0.12509000000E+03 0.  0.
<mgrwt>
<rscale>  2 0.43937152E+03</rscale>
<asrwt>0</asrwt>
<pdfrwt beam="1">  1       21 0.15583270E-01 0.43937152E+03</pdfrwt>
<pdfrwt beam="2">  1       21 0.66977260E-01 0.43937152E+03</pdfrwt>
<totfact> 0.69295287E+04</totfact>
</mgrwt>
</event>
<event>
 7    0  0.4831799E-002  0.4569889E+03  0.7546771E-02  0.1025658E+00
         21   -1    0    0  502  501  0.00000000000E+00  0.00000000000E+00  0.48269356928E+03  0.48269356928E+03  0.00000000000E+00 0.  1.
         21   -1    0    0  501  502 -0.00000000000E+00 -0.00000000000E+00 -0.10816326492E+03  0.10816326492E+03  0.00000000000E+00 0.  1.
      99926    2    1    2    0    0 -0.17763568394E-14  0.00000000000E+00  0.37453030437E+03  0.59085683420E+03  0.45698889443E+03 0.  0.
      99925    2    3    3    0    0 -0.10734036195E+02 -0.11455694153E+03  0.24176017827E+03  0.37518595793E+03  0.26282695229E+03 0.  0.
         25    1    4    4    0    0 -0.19545907237E+02 -0.19325578693E+02  0.90326397577E+02  0.15672232349E+03  0.12509000000E+03 0.  0.
         25    1    4    4    0    0  0.88118710420E+01 -0.95231362835E+02  0.15143378069E+03  0.21846363444E+03  0.12509000000E+03 0.  0.
         25    1    3    3    0    0  0.10734036195E+02  0.11455694153E+03  0.13277012610E+03  0.21567087627E+03  0.12509000000E+03 0.  0.
<mgrwt>
<rscale>  2 0.45698889E+03</rscale>
<asrwt>0</asrwt>
<pdfrwt beam="1">  1       21 0.70984348E-01 0.45698889E+03</pdfrwt>
<pdfrwt beam="2">  1       21 0.15906363E-01 0.45698889E+03</pdfrwt>
<totfact> 0.58322419E+04</totfact>
</mgrwt>
</event>
<event>
 7    0  0.4831799E-002  0.4598438E+03  0.7546771E-02  0.1024827E+00
         21   -1    0    0  502  501  0.00000000000E+00  0.00000000000E+00  0.70851523363E+03  0.70851523363E+03  0.00000000000E+00 0.  1.
         21   -1    0    0  501  502 -0.00000000000E+00 -0.00000000000E+00 -0.74612484287E+02  0.74612484287E+02  0.00000000000E+00 0.  1.
      99926    2    1    2    0    0  0.44408920985E-15  0.00000000000E+00  0.63390274934E+03  0.78312771791E+03  0.45984380712E+03 0.  0.
      99925    2    3    3    0    0 -0.29330159942E+01  0.10927153641E+03  0.47121129640E+03  0.55060914185E+03  0.26302370613E+03 0.  0.
         25    1    4    4    0    0 -0.26621318042E+02  0.77205667859E+02  0.29712219605E+03  0.33256355364E+03  0.12509000000E+03 0.  0.
         25    1    4    4    0    0  0.23688302047E+02  0.32065868551E+02  0.17408910034E+03  0.21804558821E+03  0.12509000000E+03 0.  0.
         25    1    3    3    0    0  0.29330159942E+01 -0.10927153641E+03  0.16269145294E+03  0.23251857606E+03  0.12509000000E+03 0.  0.
<mgrwt>
<rscale>  2 0.45984381E+03</rscale>
<asrwt>0</asrwt>
<pdfrwt beam="1">  1       21 0.10419341E+00 0.45984381E+03</pdfrwt>
<pdfrwt beam="2">  1       21 0.10972425E-01 0.45984381E+03</pdfrwt>
<totfact> 0.46787456E+04</totfact>
</mgrwt>
</event>
<event>
 7    0  0.4831799E-002  0.4551564E+03  0.7546771E-02  0.1026195E+00
         21   -1    0    0  502  501  0.00000000000E+00  0.00000000000E+00  0.36451953887E+03  0.36451953887E+03  0.00000000000E+00 0. -1.
         21   -1    0    0  501  502 -0.00000000000E+00 -0.00000000000E+00 -0.14208249247E+03  0.14208249247E+03  0.00000000000E+00 0. -1.
      99926    2    1    2    0    0  0.14210854715E-13  0.00000000000E+00  0.22243704641E+03  0.50660203134E+03  0.45515643305E+03 0.  0.
      99925    2    3    3    0    0 -0.10248937240E+03 -0.17052238634E+02  0.18997525043E+03  0.34078247099E+03  0.26314871549E+03 0.  0.
         25    1    3    3    0    0  0.10248937240E+03  0.17052238634E+02  0.32461795973E+02  0.16581956035E+03  0.12509000000E+03 0.  0.
         25    1    4    4    0    0 -0.91298050619E+01 -0.77060501192E+01  0.71283844281E+02  0.14447017375E+03  0.12509000000E+03 0.  0.
         25    1    4    4    0    0 -0.93359567334E+02 -0.93461885150E+01  0.11869140615E+03  0.19631229724E+03  0.12509000000E+03 0.  0.
<mgrwt>
<rscale>  2 0.45515643E+03</rscale>
<asrwt>0</asrwt>
<pdfrwt beam="1">  1       21 0.53605814E-01 0.45515643E+03</pdfrwt>
<pdfrwt beam="2">  1       21 0.20894484E-01 0.45515643E+03</pdfrwt>
<totfact> 0.64728888E+04</totfact>
</mgrwt>
</event>
<event>
 7    0  0.4831799E-002  0.4557817E+03  0.7546771E-02  0.1026012E+00
         21   -1    0    0  502  501  0.00000000000E+00  0.00000000000E+00  0.16688783115E+03  0.16688783115E+03  0.00000000000E+00 0. -1.
         21   -1    0    0  501  502 -0.00000000000E+00 -0.00000000000E+00 -0.31119246483E+03  0.31119246483E+03  0.00000000000E+00 0. -1.
      99926    2    1    2    0    0  0.00000000000E+00  0.14210854715E-13 -0.14430463368E+03  0.47808029598E+03  0.45578168250E+03 0.  0.
      99925    2    3    3    0    0  0.56113212442E+02 -0.96904443799E+02 -0.11280301918E+03  0.30726160948E+03  0.26295629236E+03 0.  0.
         25    1    4    4    0    0  0.68871031653E+02 -0.58706104766E+02 -0.60690156265E+02  0.16589282355E+03  0.12509000000E+03 0.  0.
         25    1    3    3    0    0 -0.56113212442E+02  0.96904443799E+02 -0.31501614503E+02  0.17081868649E+03  0.12509000000E+03 0.  0.
         25    1    4    4    0    0 -0.12757819211E+02 -0.38198339033E+02 -0.52112862912E+02  0.14136878593E+03  0.12509000000E+03 0.  0.
<mgrwt>
<rscale>  2 0.45578168E+03</rscale>
<asrwt>0</asrwt>
<pdfrwt beam="1">  1       21 0.24542328E-01 0.45578168E+03</pdfrwt>
<pdfrwt beam="2">  1       21 0.45763597E-01 0.45578168E+03</pdfrwt>
<totfact> 0.66427029E+04</totfact>
</mgrwt>
</event>
<event>
 7    0  0.4831799E-002  0.4457218E+03  0.7546771E-02  0.1029006E+00
         21   -1    0    0  502  501  0.00000000000E+00  0.00000000000E+00  0.49343446094E+02  0.49343446094E+02  0.00000000000E+00 0.  1.
         21   -1    0    0  501  502 -0.00000000000E+00 -0.00000000000E+00 -0.10065569824E+04  0.10065569824E+04  0.00000000000E+00 0.  1.
      99926    2    1    2    0    0  0.00000000000E+00 -0.71054273576E-14 -0.95721353635E+03  0.10559004285E+04  0.44572184242E+03 0.  0.
      99925    2    3    3    0    0 -0.50125035933E+02 -0.36621059832E+02 -0.80584883373E+03  0.84995771187E+03  0.26302499479E+03 0.  0.
         25    1    4    4    0    0 -0.27724155343E+02  0.19750618287E+02 -0.43503058385E+03  0.45393593457E+03  0.12509000000E+03 0.  0.
         25    1    4    4    0    0 -0.22400880591E+02 -0.56371678119E+02 -0.37081824988E+03  0.39602177729E+03  0.12509000000E+03 0.  0.
         25    1    3    3    0    0  0.50125035933E+02  0.36621059832E+02 -0.15136470261E+03  0.20594271667E+03  0.12509000000E+03 0.  0.
<mgrwt>
<rscale>  2 0.44572184E+03</rscale>
<asrwt>0</asrwt>
<pdfrwt beam="1">  1       21 0.72563894E-02 0.44572184E+03</pdfrwt>
<pdfrwt beam="2">  1       21 0.14802308E+00 0.44572184E+03</pdfrwt>
<totfact> 0.39871544E+04</totfact>
</mgrwt>
</event>
<event>
 7    0  0.4831799E-002  0.4536223E+03  0.7546771E-02  0.1026647E+00
         21   -1    0    0  502  501  0.00000000000E+00  0.00000000000E+00  0.20802461853E+04  0.20802461853E+04  0.00000000000E+00 0. -1.
         21   -1    0    0  501  502 -0.00000000000E+00 -0.00000000000E+00 -0.24729425019E+02  0.24729425019E+02  0.00000000000E+00 0. -1.
      99926    2    1    2    0    0  0.00000000000E+00  0.71054273576E-14  0.20555167602E+04  0.21049756103E+04  0.45362227484E+03 0.  0.
      99925    2    3    3    0    0  0.69456785428E+02 -0.42838283643E+02  0.94007699391E+03  0.97958112655E+03  0.26301153099E+03 0.  0.
         25    1    3    3    0    0 -0.69456785428E+02  0.42838283643E+02  0.11154397663E+04  0.11253944837E+04  0.12509000000E+03 0.  0.
         25    1    4    4    0    0  0.19741856924E+02 -0.41137533565E+02  0.35325725600E+03  0.37751852220E+03  0.12509000000E+03 0.  0.
         25    1    4    4    0    0  0.49714928503E+02 -0.17007500775E+01  0.58681973791E+03  0.60206260435E+03  0.12509000000E+03 0.  0.
<mgrwt>
<rscale>  2 0.45362227E+03</rscale>
<asrwt>0</asrwt>
<pdfrwt beam="1">  1       21 0.30591844E+00 0.45362227E+03</pdfrwt>
<pdfrwt beam="2">  1       21 0.36366816E-02 0.45362227E+03</pdfrwt>
<totfact> 0.12200507E+04</totfact>
</mgrwt>
</event>
<event>
 7    0  0.4831799E-002  0.4556882E+03  0.7546771E-02  0.1026039E+00
         21   -1    0    0  502  501  0.00000000000E+00  0.00000000000E+00  0.14250266241E+03  0.14250266241E+03  0.00000000000E+00 0.  1.
         21   -1    0    0  501  502 -0.00000000000E+00 -0.00000000000E+00 -0.36429445427E+03  0.36429445427E+03  0.00000000000E+00 0.  1.
      99926    2    1    2    0    0  0.00000000000E+00  0.00000000000E+00 -0.22179179185E+03  0.50679711668E+03  0.45568818126E+03 0.  0.
      99925    2    3    3    0    0 -0.17820179157E+02 -0.10642536142E+03 -0.17959001261E+03  0.33629076897E+03  0.26304941043E+03 0.  0.
         25    1    4    4    0    0  0.30202730606E+02 -0.39930829422E+02 -0.85517322509E+02  0.15958507644E+03  0.12509000000E+03 0.  0.
         25    1    3    3    0    0  0.17820179157E+02  0.10642536142E+03 -0.42201779247E+02  0.17050634771E+03  0.12509000000E+03 0.  0.
         25    1    4    4    0    0 -0.48022909763E+02 -0.66494532001E+02 -0.94072690097E+02  0.17670569252E+03  0.12509000000E+03 0.  0.
<mgrwt>
<rscale>  2 0.45568818E+03</rscale>
<asrwt>0</asrwt>
<pdfrwt beam="1">  1       21 0.20956274E-01 0.45568818E+03</pdfrwt>
<pdfrwt beam="2">  1       21 0.53572713E-01 0.45568818E+03</pdfrwt>
<totfact> 0.64443019E+04</totfact>
</mgrwt>
</event>
<event>
 7    0  0.4831799E-002  0.4437942E+03  0.7546771E-02  0.1029589E+00
         21   -1    0    0  502  501  0.00000000000E+00  0.00000000000E+00  0.73705362188E+03  0.73705362188E+03  0.00000000000E+00 0. -1.
         21   -1    0    0  501  502 -0.00000000000E+00 -0.00000000000E+00 -0.66804266246E+02  0.66804266246E+02  0.00000000000E+00 0. -1.
      99926    2    1    2    0    0  0.00000000000E+00  0.00000000000E+00  0.67024935563E+03  0.80385788812E+03  0.44379421535E+03 0.  0.
      99925    2    3    3    0    0  0.49527702591E+02 -0.73766591191E+02  0.33348774430E+03  0.43378979403E+03  0.26280221937E+03 0.  0.
         25    1    3    3    0    0 -0.49527702591E+02  0.73766591191E+02  0.33676161133E+03  0.37006809409E+03  0.12509000000E+03 0.  0.
         25    1    4    4    0    0 -0.12868566458E+02 -0.18659551210E+02  0.14964681263E+03  0.19635543151E+03  0.12509000000E+03 0.  0.
         25    1    4    4    0    0  0.62396269049E+02 -0.55107039981E+02  0.18384093167E+03  0.23743436252E+03  0.12509000000E+03 0.  0.
<mgrwt>
<rscale>  2 0.44379422E+03</rscale>
<asrwt>0</asrwt>
<pdfrwt beam="1">  1       21 0.10839023E+00 0.44379422E+03</pdfrwt>
<pdfrwt beam="2">  1       21 0.98241572E-02 0.44379422E+03</pdfrwt>
<totfact> 0.52003293E+04</totfact>
</mgrwt>
</event>
<event>
 7    0  0.4831799E-002  0.4552824E+03  0.7546771E-02  0.1026158E+00
         21   -1    0    0  502  501  0.00000000000E+00  0.00000000000E+00  0.50120964445E+03  0.50120964445E+03  0.00000000000E+00 0. -1.
         21   -1    0    0  501  502 -0.00000000000E+00 -0.00000000000E+00 -0.10339090602E+03  0.10339090602E+03  0.00000000000E+00 0. -1.
      99926    2    1    2    0    0  0.00000000000E+00 -0.35527136788E-14  0.39781873843E+03  0.60460055046E+03  0.45528241452E+03 0.  0.
      99925    2    3    3    0    0  0.86287756639E+02 -0.19363745738E+02  0.34487675359E+03  0.44251756723E+03  0.26279514939E+03 0.  0.
         25    1    4    4    0    0  0.34085481805E+02  0.16241337043E+02  0.11919786300E+03  0.17686503256E+03  0.12509000000E+03 0.  0.
         25    1    3    3    0    0 -0.86287756639E+02  0.19363745738E+02  0.52941984843E+02  0.16208298323E+03  0.12509000000E+03 0.  0.
         25    1    4    4    0    0  0.52202274834E+02 -0.35605082782E+02  0.22567889059E+03  0.26565253467E+03  0.12509000000E+03 0.  0.
<mgrwt>
<rscale>  2 0.45528241E+03</rscale>
<asrwt>0</asrwt>
<pdfrwt beam="1">  1       21 0.73707300E-01 0.45528241E+03</pdfrwt>
<pdfrwt beam="2">  1       21 0.15204545E-01 0.45528241E+03</pdfrwt>
<totfact> 0.58265875E+04</totfact>
</mgrwt>
</event>
<event>
 7    0  0.4831799E-002  0.4570924E+03  0.7546771E-02  0.1025628E+00
         21   -1    0    0  502  501  0.00000000000E+00  0.00000000000E+00  0.35340641109E+03  0.35340641109E+03  0.00000000000E+00 0.  1.
         21   -1    0    0  501  502 -0.00000000000E+00 -0.00000000000E+00 -0.14779968164E+03  0.14779968164E+03  0.00000000000E+00 0.  1.
      99926    2    1    2    0    0  0.00000000000E+00 -0.71054273576E-14  0.20560672945E+03  0.50120609273E+03  0.45709235412E+03 0.  0.
      99925    2    3    3    0    0 -0.51380581284E+02  0.51338121708E+02  0.22706643372E+03  0.35497479006E+03  0.26300640560E+03 0.  0.
         25    1    3    3    0    0  0.51380581284E+02 -0.51338121708E+02 -0.21459704264E+02  0.14623130267E+03  0.12509000000E+03 0.  0.
         25    1    4    4    0    0 -0.66095035651E+02  0.32378968637E+02  0.11202378701E+03  0.18334063462E+03  0.12509000000E+03 0.  0.
         25    1    4    4    0    0  0.14714454367E+02  0.18959153070E+02  0.11504264671E+03  0.17163415544E+03  0.12509000000E+03 0.  0.
<mgrwt>
<rscale>  2 0.45709235E+03</rscale>
<asrwt>0</asrwt>
<pdfrwt beam="1">  1       21 0.51971531E-01 0.45709235E+03</pdfrwt>
<pdfrwt beam="2">  1       21 0.21735247E-01 0.45709235E+03</pdfrwt>
<totfact> 0.64114487E+04</totfact>
</mgrwt>
</event>
<event>
 7    0  0.4831799E-002  0.4493801E+03  0.7546771E-02  0.1027907E+00
         21   -1    0    0  502  501  0.00000000000E+00  0.00000000000E+00  0.13972618743E+03  0.13972618743E+03  0.00000000000E+00 0.  1.
         21   -1    0    0  501  502 -0.00000000000E+00 -0.00000000000E+00 -0.36131822213E+03  0.36131822213E+03  0.00000000000E+00 0.  1.
      99926    2    1    2    0    0  0.00000000000E+00 -0.22204460493E-15 -0.22159203470E+03  0.50104440955E+03  0.44938009580E+03 0.  0.
      99925    2    3    3    0    0  0.76562261645E+02  0.15800910022E+01 -0.22481877589E+03  0.35433995647E+03  0.26296206222E+03 0.  0.
         25    1    3    3    0    0 -0.76562261645E+02 -0.15800910022E+01  0.32267411844E+01  0.14670445308E+03  0.12509000000E+03 0.  0.
         25    1    4    4    0    0  0.66385005285E+02  0.16025829343E+02 -0.15268964213E+03  0.20886701761E+03  0.12509000000E+03 0.  0.
         25    1    4    4    0    0  0.10177256360E+02 -0.14445738341E+02 -0.72129133756E+02  0.14547293886E+03  0.12509000000E+03 0.  0.
<mgrwt>
<rscale>  2 0.44938010E+03</rscale>
<asrwt>0</asrwt>
<pdfrwt beam="1">  1       21 0.20547969E-01 0.44938010E+03</pdfrwt>
<pdfrwt beam="2">  1       21 0.53135032E-01 0.44938010E+03</pdfrwt>
<totfact> 0.68188686E+04</totfact>
</mgrwt>
</event>
<event>
 7    0  0.4831799E-002  0.4566588E+03  0.7546771E-02  0.1025755E+00
         21   -1    0    0  502  501  0.00000000000E+00  0.00000000000E+00  0.12983325567E+04  0.12983325567E+04  0.00000000000E+00 0. -1.
         21   -1    0    0  501  502 -0.00000000000E+00 -0.00000000000E+00 -0.40154830716E+02  0.40154830716E+02  0.00000000000E+00 0. -1.
      99926    2    1    2    0    0  0.00000000000E+00  0.14210854715E-13  0.12581777259E+04  0.13384873874E+04  0.45665883995E+03 0.  0.
      99925    2    3    3    0    0  0.86837385757E+02 -0.73848098531E+02  0.75356786771E+03  0.80625351928E+03  0.26303218982E+03 0.  0.
         25    1    4    4    0    0  0.24749588709E+01 -0.30066752139E+02  0.37114853926E+03  0.39282169148E+03  0.12509000000E+03 0.  0.
         25    1    3    3    0    0 -0.86837385757E+02  0.73848098531E+02  0.50460985823E+03  0.53223386810E+03  0.12509000000E+03 0.  0.
         25    1    4    4    0    0  0.84362426886E+02 -0.43781346392E+02  0.38241932845E+03  0.41343182780E+03  0.12509000000E+03 0.  0.
<mgrwt>
<rscale>  2 0.45665884E+03</rscale>
<asrwt>0</asrwt>
<pdfrwt beam="1">  1       21 0.19093123E+00 0.45665884E+03</pdfrwt>
<pdfrwt beam="2">  1       21 0.59051230E-02 0.45665884E+03</pdfrwt>
<totfact> 0.27658711E+04</totfact>
</mgrwt>
</event>
<event>
 7    0  0.4831799E-002  0.4508249E+03  0.7546771E-02  0.1027476E+00
         21   -1    0    0  502  501  0.00000000000E+00  0.00000000000E+00  0.45650414593E+03  0.45650414593E+03  0.00000000000E+00 0.  1.
         21   -1    0    0  501  502 -0.00000000000E+00 -0.00000000000E+00 -0.11130409825E+03  0.11130409825E+03  0.00000000000E+00 0.  1.
      99926    2    1    2    0    0  0.00000000000E+00  0.00000000000E+00  0.34520004768E+03  0.56780824418E+03  0.45082494302E+03 0.  0.
      99925    2    3    3    0    0  0.96141196147E+02  0.40661108027E+02  0.17750089679E+03  0.33399855959E+03  0.26296770551E+03 0.  0.
         25    1    4    4    0    0  0.41229885916E+02  0.18223052136E+02  0.13426564681E+03  0.18896231141E+03  0.12509000000E+03 0.  0.
         25    1    3    3    0    0 -0.96141196147E+02 -0.40661108027E+02  0.16769915089E+03  0.23380968460E+03  0.12509000000E+03 0.  0.
         25    1    4    4    0    0  0.54911310230E+02  0.22438055892E+02  0.43235249981E+02  0.14503624817E+03  0.12509000000E+03 0.  0.
<mgrwt>
<rscale>  2 0.45082494E+03</rscale>
<asrwt>0</asrwt>
<pdfrwt beam="1">  1       21 0.67132962E-01 0.45082494E+03</pdfrwt>
<pdfrwt beam="2">  1       21 0.16368250E-01 0.45082494E+03</pdfrwt>
<totfact> 0.62751186E+04</totfact>
</mgrwt>
</event>
<event>
 6    0  0.4831799E-002  0.4525948E+03  0.7546771E-02  0.1026951E+00
         21   -1    0    0  502  501  0.00000000000E+00  0.00000000000E+00  0.33998071591E+03  0.33998071591E+03  0.00000000000E+00 0. -1.
         21   -1    0    0  501  502 -0.00000000000E+00 -0.00000000000E+00 -0.15062767617E+03  0.15062767617E+03  0.00000000000E+00 0. -1.
      99926    2    1    2    0    0  0.00000000000E+00 -0.71054273576E-14  0.18935303974E+03  0.49060839208E+03  0.45259476435E+03 0.  0.
         25    1    3    3    0    0 -0.78371830243E+02  0.33072993133E+02  0.14164966287E+03  0.20723923794E+03  0.12509000000E+03 0.  0.
         25    1    3    3    0    0  0.59195124394E+02 -0.58481205548E+02  0.24485927309E+02  0.15222083593E+03  0.12509000000E+03 0.  0.
         25    1    3    3    0    0  0.19176705849E+02  0.25408212414E+02  0.23217449561E+02  0.13114831821E+03  0.12509000000E+03 0.  0.
<mgrwt>
<rscale>  2 0.45259476E+03</rscale>
<asrwt>0</asrwt>
<pdfrwt beam="1">  1       21 0.49997164E-01 0.45259476E+03</pdfrwt>
<pdfrwt beam="2">  1       21 0.22151129E-01 0.45259476E+03</pdfrwt>
<totfact> 0.67209806E+04</totfact>
</mgrwt>
</event>
<event>
 7    0  0.4831799E-002  0.4541723E+03  0.7546771E-02  0.1026485E+00
         21   -1    0    0  502  501  0.00000000000E+00  0.00000000000E+00  0.10222006741E+03  0.10222006741E+03  0.00000000000E+00 0. -1.
         21   -1    0    0  501  502 -0.00000000000E+00 -0.00000000000E+00 -0.50448138103E+03  0.50448138103E+03  0.00000000000E+00 0. -1.
      99926    2    1    2    0    0  0.00000000000E+00  0.00000000000E+00 -0.40226131363E+03  0.60670144844E+03  0.45417230552E+03 0.  0.
      99925    2    3    3    0    0  0.74060384036E+02  0.70626835807E+02 -0.19148876754E+03  0.34109710980E+03  0.26307071255E+03 0.  0.
         25    1    4    4    0    0  0.38687568244E+02 -0.56701008417E+01 -0.99052671305E+02  0.16427969373E+03  0.12509000000E+03 0.  0.
         25    1    3    3    0    0 -0.74060384036E+02 -0.70626835807E+02 -0.21077254608E+03  0.26560433864E+03  0.12509000000E+03 0.  0.
         25    1    4    4    0    0  0.35372815793E+02  0.76296936649E+02 -0.92436096237E+02  0.17681741607E+03  0.12509000000E+03 0.  0.
<mgrwt>
<rscale>  2 0.45417231E+03</rscale>
<asrwt>0</asrwt>
<pdfrwt beam="1">  1       21 0.15032363E-01 0.45417231E+03</pdfrwt>
<pdfrwt beam="2">  1       21 0.74188437E-01 0.45417231E+03</pdfrwt>
<totfact> 0.58650208E+04</totfact>
</mgrwt>
</event>
<event>
 7    0  0.4831799E-002  0.5103659E+03  0.7546771E-02  0.1011108E+00
         21   -1    0    0  502  501  0.00000000000E+00  0.00000000000E+00  0.66309540407E+03  0.66309540407E+03  0.00000000000E+00 0. -1.
         21   -1    0    0  501  502 -0.00000000000E+00 -0.00000000000E+00 -0.98203571797E+02  0.98203571797E+02  0.00000000000E+00 0. -1.
      99926    2    1    2    0    0  0.00000000000E+00  0.00000000000E+00  0.56489183227E+03  0.76129897587E+03  0.51036589667E+03 0.  0.
      99925    2    3    3    0    0 -0.67043672072E+02  0.13007217823E+03  0.43536269754E+03  0.52926680060E+03  0.26300008041E+03 0.  0.
         25    1    4    4    0    0 -0.91762914573E+01  0.29762925094E+02  0.21474274792E+03  0.25046355407E+03  0.12509000000E+03 0.  0.
         25    1    3    3    0    0  0.67043672072E+02 -0.13007217823E+03  0.12952913473E+03  0.23203217527E+03  0.12509000000E+03 0.  0.
         25    1    4    4    0    0 -0.57867380615E+02  0.10030925314E+03  0.22061994962E+03  0.27880324653E+03  0.12509000000E+03 0.  0.
<mgrwt>
<rscale>  2 0.51036590E+03</rscale>
<asrwt>0</asrwt>
<pdfrwt beam="1">  1       21 0.97514028E-01 0.51036590E+03</pdfrwt>
<pdfrwt beam="2">  1       21 0.14441702E-01 0.51036590E+03</pdfrwt>
<totfact> 0.32877053E+04</totfact>
</mgrwt>
</event>
<event>
 7    0  0.4831799E-002  0.4482565E+03  0.7546771E-02  0.1028243E+00
         21   -1    0    0  502  501  0.00000000000E+00  0.00000000000E+00  0.20862872914E+03  0.20862872914E+03  0.00000000000E+00 0.  1.
         21   -1    0    0  501  502 -0.00000000000E+00 -0.00000000000E+00 -0.24077930751E+03  0.24077930751E+03  0.00000000000E+00 0.  1.
      99926    2    1    2    0    0  0.00000000000E+00  0.00000000000E+00 -0.32150578367E+02  0.44940803664E+03  0.44825653783E+03 0.  0.
      99925    2    3    3    0    0 -0.50040515262E+02 -0.86355076826E+02  0.17506965141E+02  0.28185317342E+03  0.26300848861E+03 0.  0.
         25    1    4    4    0    0 -0.45687783631E+02 -0.69350740812E+02 -0.16468036987E+02  0.15104834712E+03  0.12509000000E+03 0.  0.
         25    1    3    3    0    0  0.50040515262E+02  0.86355076826E+02 -0.49657543509E+02  0.16755486322E+03  0.12509000000E+03 0.  0.
         25    1    4    4    0    0 -0.43527316313E+01 -0.17004336014E+02  0.33975002128E+02  0.13080482631E+03  0.12509000000E+03 0.  0.
<mgrwt>
<rscale>  2 0.44825654E+03</rscale>
<asrwt>0</asrwt>
<pdfrwt beam="1">  1       21 0.30680695E-01 0.44825654E+03</pdfrwt>
<pdfrwt beam="2">  1       21 0.35408722E-01 0.44825654E+03</pdfrwt>
<totfact> 0.72796056E+04</totfact>
</mgrwt>
</event>
<event>
 7    0  0.4831799E-002  0.4426636E+03  0.7546771E-02  0.1029933E+00
         21   -1    0    0  502  501  0.00000000000E+00  0.00000000000E+00  0.44638868212E+03  0.44638868212E+03  0.00000000000E+00 0.  1.
         21   -1    0    0  501  502 -0.00000000000E+00 -0.00000000000E+00 -0.10974239883E+03  0.10974239883E+03  0.00000000000E+00 0.  1.
      99926    2    1    2    0    0  0.00000000000E+00  0.00000000000E+00  0.33664628328E+03  0.55613108095E+03  0.44266359592E+03 0.  0.
      99925    2    3    3    0    0  0.48875340350E+02 -0.88662341187E+02  0.21277173213E+03  0.35304926945E+03  0.26291094885E+03 0.  0.
         25    1    3    3    0    0 -0.48875340350E+02  0.88662341187E+02  0.12387455115E+03  0.20308181150E+03  0.12509000000E+03 0.  0.
         25    1    4    4    0    0  0.61371325559E+02 -0.27981070395E+02  0.10509532046E+03  0.17675382424E+03  0.12509000000E+03 0.  0.
         25    1    4    4    0    0 -0.12495985209E+02 -0.60681270792E+02  0.10767641167E+03  0.17629544521E+03  0.12509000000E+03 0.  0.
<mgrwt>
<rscale>  2 0.44266360E+03</rscale>
<asrwt>0</asrwt>
<pdfrwt beam="1">  1       21 0.65645394E-01 0.44266360E+03</pdfrwt>
<pdfrwt beam="2">  1       21 0.16138588E-01 0.44266360E+03</pdfrwt>
<totfact> 0.67845576E+04</totfact>
</mgrwt>
</event>
<event>
 7    0  0.4831799E-002  0.4642784E+03  0.7546771E-02  0.1023548E+00
         21   -1    0    0  502  501  0.00000000000E+00  0.00000000000E+00  0.12090398351E+03  0.12090398351E+03  0.00000000000E+00 0.  1.
         21   -1    0    0  501  502 -0.00000000000E+00 -0.00000000000E+00 -0.44571416015E+03  0.44571416015E+03  0.00000000000E+00 0.  1.
      99926    2    1    2    0    0  0.00000000000E+00  0.00000000000E+00 -0.32481017663E+03  0.56661814366E+03  0.46427844004E+03 0.  0.
      99925    2    3    3    0    0 -0.86031656626E+02 -0.65359393257E+02 -0.27092961917E+03  0.39276786670E+03  0.26304076174E+03 0.  0.
         25    1    3    3    0    0  0.86031656626E+02  0.65359393257E+02 -0.53880557462E+02  0.17385027697E+03  0.12509000000E+03 0.  0.
         25    1    4    4    0    0 -0.18319050870E+02 -0.49078505695E+02 -0.93239675174E+02  0.16457652467E+03  0.12509000000E+03 0.  0.
         25    1    4    4    0    0 -0.67712605756E+02 -0.16280887562E+02 -0.17768994400E+03  0.22819134203E+03  0.12509000000E+03 0.  0.
<mgrwt>
<rscale>  2 0.46427844E+03</rscale>
<asrwt>0</asrwt>
<pdfrwt beam="1">  1       21 0.17779997E-01 0.46427844E+03</pdfrwt>
<pdfrwt beam="2">  1       21 0.65546201E-01 0.46427844E+03</pdfrwt>
<totfact> 0.56518575E+04</totfact>
</mgrwt>
</event>
<event>
 7    0  0.4831799E-002  0.4646927E+03  0.7546771E-02  0.1023429E+00
         21   -1    0    0  502  501  0.00000000000E+00  0.00000000000E+00  0.12791315150E+03  0.12791315150E+03  0.00000000000E+00 0. -1.
         21   -1    0    0  501  502 -0.00000000000E+00 -0.00000000000E+00 -0.42204278470E+03  0.42204278470E+03  0.00000000000E+00 0. -1.
      99926    2    1    2    0    0  0.00000000000E+00  0.14210854715E-13 -0.29412963320E+03  0.54995593620E+03  0.46469268409E+03 0.  0.
      99925    2    3    3    0    0 -0.16270571445E+02  0.12080366815E+03 -0.17976901080E+03  0.34118784049E+03  0.26312352141E+03 0.  0.
         25    1    4    4    0    0  0.22473095970E+02  0.85909875799E+02 -0.80862412820E+02  0.17341218155E+03  0.12509000000E+03 0.  0.
         25    1    4    4    0    0 -0.38743667415E+02  0.34893792350E+02 -0.98906597975E+02  0.16777565894E+03  0.12509000000E+03 0.  0.
         25    1    3    3    0    0  0.16270571445E+02 -0.12080366815E+03 -0.11436062240E+03  0.20876809572E+03  0.12509000000E+03 0.  0.
<mgrwt>
<rscale>  2 0.46469268E+03</rscale>
<asrwt>0</asrwt>
<pdfrwt beam="1">  1       21 0.18810758E-01 0.46469268E+03</pdfrwt>
<pdfrwt beam="2">  1       21 0.62065114E-01 0.46469268E+03</pdfrwt>
<totfact> 0.57343248E+04</totfact>
</mgrwt>
</event>
<event>
 7    0  0.4831799E-002  0.4613817E+03  0.7546771E-02  0.1024381E+00
         21   -1    0    0  502  501  0.00000000000E+00  0.00000000000E+00  0.59926505366E+03  0.59926505366E+03  0.00000000000E+00 0. -1.
         21   -1    0    0  501  502 -0.00000000000E+00 -0.00000000000E+00 -0.88805893536E+02  0.88805893536E+02  0.00000000000E+00 0. -1.
      99926    2    1    2    0    0 -0.71054273576E-14 -0.71054273576E-14  0.51045916013E+03  0.68807094720E+03  0.46138170122E+03 0.  0.
      99925    2    3    3    0    0 -0.30235369267E+02 -0.56168658493E+02  0.46931772747E+03  0.54175204434E+03  0.26299629746E+03 0.  0.
         25    1    4    4    0    0 -0.33490293400E+02  0.18434487545E+01  0.18601532132E+03  0.22665878743E+03  0.12509000000E+03 0.  0.
         25    1    4    4    0    0  0.32549241330E+01 -0.58012107248E+02  0.28330240615E+03  0.31509325691E+03  0.12509000000E+03 0.  0.
         25    1    3    3    0    0  0.30235369267E+02  0.56168658493E+02  0.41141432656E+02  0.14631890285E+03  0.12509000000E+03 0.  0.
<mgrwt>
<rscale>  2 0.46138170E+03</rscale>
<asrwt>0</asrwt>
<pdfrwt beam="1">  1       21 0.88127212E-01 0.46138170E+03</pdfrwt>
<pdfrwt beam="2">  1       21 0.13059690E-01 0.46138170E+03</pdfrwt>
<totfact> 0.50946586E+04</totfact>
</mgrwt>
</event>
<event>
 7    0  0.4831799E-002  0.4398299E+03  0.7546771E-02  0.1030799E+00
         21   -1    0    0  502  501  0.00000000000E+00  0.00000000000E+00  0.25097359828E+03  0.25097359828E+03  0.00000000000E+00 0.  1.
         21   -1    0    0  501  502 -0.00000000000E+00 -0.00000000000E+00 -0.19269987116E+03  0.19269987116E+03  0.00000000000E+00 0.  1.
      99926    2    1    2    0    0 -0.88817841970E-15  0.00000000000E+00  0.58273727114E+02  0.44367346944E+03  0.43982987645E+03 0.  0.
      99925    2    3    3    0    0 -0.59318581138E+01  0.34817639841E+02  0.12969771097E+03  0.29536180923E+03  0.26300123030E+03 0.  0.
         25    1    4    4    0    0 -0.40275086283E+02  0.61124365591E+01  0.52050865569E+02  0.14147877990E+03  0.12509000000E+03 0.  0.
         25    1    3    3    0    0  0.59318581138E+01 -0.34817639841E+02 -0.71423983852E+02  0.14831166021E+03  0.12509000000E+03 0.  0.
         25    1    4    4    0    0  0.34343228169E+02  0.28705203282E+02  0.77646845396E+02  0.15388302933E+03  0.12509000000E+03 0.  0.
<mgrwt>
<rscale>  2 0.43982988E+03</rscale>
<asrwt>0</asrwt>
<pdfrwt beam="1">  1       21 0.36907882E-01 0.43982988E+03</pdfrwt>
<pdfrwt beam="2">  1       21 0.28338217E-01 0.43982988E+03</pdfrwt>
<totfact> 0.78457858E+04</totfact>
</mgrwt>
</event>
<event>
 7    0  0.4831799E-002  0.4587355E+03  0.7546771E-02  0.1025149E+00
         21   -1    0    0  502  501  0.00000000000E+00  0.00000000000E+00  0.97644195761E+02  0.97644195761E+02  0.00000000000E+00 0. -1.
         21   -1    0    0  501  502 -0.00000000000E+00 -0.00000000000E+00 -0.53878855581E+03  0.53878855581E+03  0.00000000000E+00 0. -1.
      99926    2    1    2    0    0  0.35527136788E-14 -0.35527136788E-14 -0.44114436005E+03  0.63643275157E+03  0.45873554568E+03 0.  0.
      99925    2    3    3    0    0 -0.17293149095E+02  0.18522724962E+02 -0.43453397074E+03  0.50863075748E+03  0.26314127648E+03 0.  0.
         25    1    3    3    0    0  0.17293149095E+02 -0.18522724962E+02 -0.66103893100E+01  0.12780199409E+03  0.12509000000E+03 0.  0.
         25    1    4    4    0    0  0.90382647502E+01  0.43380657848E+02 -0.19291646098E+03  0.23415345550E+03  0.12509000000E+03 0.  0.
         25    1    4    4    0    0 -0.26331413845E+02 -0.24857932886E+02 -0.24161750976E+03  0.27447730198E+03  0.12509000000E+03 0.  0.
<mgrwt>
<rscale>  2 0.45873555E+03</rscale>
<asrwt>0</asrwt>
<pdfrwt beam="1">  1       21 0.14359440E-01 0.45873555E+03</pdfrwt>
<pdfrwt beam="2">  1       21 0.79233611E-01 0.45873555E+03</pdfrwt>
<totfact> 0.54854663E+04</totfact>
</mgrwt>
</event>
<event>
 7    0  0.4831799E-002  0.4628053E+03  0.7546771E-02  0.1023971E+00
         21   -1    0    0  502  501  0.00000000000E+00  0.00000000000E+00  0.27156521650E+03  0.27156521650E+03  0.00000000000E+00 0.  1.
         21   -1    0    0  501  502 -0.00000000000E+00 -0.00000000000E+00 -0.19717985196E+03  0.19717985196E+03  0.00000000000E+00 0.  1.
      99926    2    1    2    0    0  0.00000000000E+00  0.14210854715E-13  0.74385364544E+02  0.46874506846E+03  0.46280531193E+03 0.  0.
      99925    2    3    3    0    0 -0.94807630642E+02  0.74535177650E+02  0.48255256426E+02  0.29303431129E+03  0.26267195946E+03 0.  0.
         25    1    4    4    0    0 -0.54643798443E+02  0.40988792742E+02  0.64554003919E+02  0.15646326521E+03  0.12509000000E+03 0.  0.
         25    1    4    4    0    0 -0.40163832200E+02  0.33546384907E+02 -0.16298747493E+02  0.13657104608E+03  0.12509000000E+03 0.  0.
         25    1    3    3    0    0  0.94807630642E+02 -0.74535177650E+02  0.26130108118E+02  0.17571075717E+03  0.12509000000E+03 0.  0.
<mgrwt>
<rscale>  2 0.46280531E+03</rscale>
<asrwt>0</asrwt>
<pdfrwt beam="1">  1       21 0.39936062E-01 0.46280531E+03</pdfrwt>
<pdfrwt beam="2">  1       21 0.28997037E-01 0.46280531E+03</pdfrwt>
<totfact> 0.63500553E+04</totfact>
</mgrwt>
</event>
<event>
 7    0  0.4831799E-002  0.4456246E+03  0.7546771E-02  0.1029035E+00
         21   -1    0    0  502  501  0.00000000000E+00  0.00000000000E+00  0.55850918531E+03  0.55850918531E+03  0.00000000000E+00 0. -1.
         21   -1    0    0  501  502 -0.00000000000E+00 -0.00000000000E+00 -0.88889008193E+02  0.88889008193E+02  0.00000000000E+00 0. -1.
      99926    2    1    2    0    0 -0.35527136788E-14  0.00000000000E+00  0.46962017712E+03  0.64739819350E+03  0.44562462925E+03 0.  0.
      99925    2    3    3    0    0  0.21873888514E+02 -0.77259095729E+02  0.39444089838E+03  0.48082428521E+03  0.26298466887E+03 0.  0.
         25    1    3    3    0    0 -0.21873888514E+02  0.77259095729E+02  0.75179278735E+02  0.16657390829E+03  0.12509000000E+03 0.  0.
         25    1    4    4    0    0  0.32111531347E+02 -0.17997612055E+02  0.24033295811E+03  0.27342732734E+03  0.12509000000E+03 0.  0.
         25    1    4    4    0    0 -0.10237642833E+02 -0.59261483674E+02  0.15410794028E+03  0.20739695787E+03  0.12509000000E+03 0.  0.
<mgrwt>
<rscale>  2 0.44562463E+03</rscale>
<asrwt>0</asrwt>
<pdfrwt beam="1">  1       21 0.82133701E-01 0.44562463E+03</pdfrwt>
<pdfrwt beam="2">  1       21 0.13071913E-01 0.44562463E+03</pdfrwt>
<totfact> 0.60180743E+04</totfact>
</mgrwt>
</event>
<event>
 7    0  0.4831799E-002  0.4665757E+03  0.7546771E-02  0.1022891E+00
         21   -1    0    0  502  501  0.00000000000E+00  0.00000000000E+00  0.52671337505E+03  0.52671337505E+03  0.00000000000E+00 0. -1.
         21   -1    0    0  501  502 -0.00000000000E+00 -0.00000000000E+00 -0.10332605062E+03  0.10332605062E+03  0.00000000000E+00 0. -1.
      99926    2    1    2    0    0 -0.44408920985E-15  0.14210854715E-13  0.42338732442E+03  0.63003942567E+03  0.46657566526E+03 0.  0.
      99925    2    3    3    0    0 -0.32617934550E+01  0.11750261002E+03  0.31585457710E+03  0.42748498235E+03  0.26298629928E+03 0.  0.
         25    1    4    4    0    0  0.39286699557E+00  0.17680111095E+02  0.16220634413E+03  0.20559948164E+03  0.12509000000E+03 0.  0.
         25    1    3    3    0    0  0.32617934550E+01 -0.11750261002E+03  0.10753274733E+03  0.20255444332E+03  0.12509000000E+03 0.  0.
         25    1    4    4    0    0 -0.36546604506E+01  0.99822498930E+02  0.15364823297E+03  0.22188550072E+03  0.12509000000E+03 0.  0.
<mgrwt>
<rscale>  2 0.46657567E+03</rscale>
<asrwt>0</asrwt>
<pdfrwt beam="1">  1       21 0.77457848E-01 0.46657567E+03</pdfrwt>
<pdfrwt beam="2">  1       21 0.15195008E-01 0.46657567E+03</pdfrwt>
<totfact> 0.51953215E+04</totfact>
</mgrwt>
</event>
<event>
 7    0  0.4831799E-002  0.4558734E+03  0.7546771E-02  0.1025985E+00
         21   -1    0    0  502  501  0.00000000000E+00  0.00000000000E+00  0.11010747573E+03  0.11010747573E+03  0.00000000000E+00 0.  1.
         21   -1    0    0  501  502 -0.00000000000E+00 -0.00000000000E+00 -0.47185846804E+03  0.47185846804E+03  0.00000000000E+00 0.  1.
      99926    2    1    2    0    0  0.14210854715E-13 -0.14210854715E-13 -0.36175099231E+03  0.58196594376E+03  0.45587342461E+03 0.  0.
      99925    2    3    3    0    0 -0.93387684499E+02  0.65325181116E+02 -0.22496695528E+03  0.36437453817E+03  0.26300196613E+03 0.  0.
         25    1    3    3    0    0  0.93387684499E+02 -0.65325181116E+02 -0.13678403703E+03  0.21759140560E+03  0.12509000000E+03 0.  0.
         25    1    4    4    0    0 -0.28649117395E+02  0.22676730523E+02 -0.60492807206E+02  0.14367287099E+03  0.12509000000E+03 0.  0.
         25    1    4    4    0    0 -0.64738567104E+02  0.42648450593E+02 -0.16447414808E+03  0.22070166718E+03  0.12509000000E+03 0.  0.
<mgrwt>
<rscale>  2 0.45587342E+03</rscale>
<asrwt>0</asrwt>
<pdfrwt beam="1">  1       21 0.16192276E-01 0.45587342E+03</pdfrwt>
<pdfrwt beam="2">  1       21 0.69390951E-01 0.45587342E+03</pdfrwt>
<totfact> 0.59391130E+04</totfact>
</mgrwt>
</event>
<event>
 7    0  0.4831799E-002  0.4529072E+03  0.7546771E-02  0.1026859E+00
         21   -1    0    0  502  501  0.00000000000E+00  0.00000000000E+00  0.10151169836E+04  0.10151169836E+04  0.00000000000E+00 0. -1.
         21   -1    0    0  501  502 -0.00000000000E+00 -0.00000000000E+00 -0.50517568992E+02  0.50517568992E+02  0.00000000000E+00 0. -1.
      99926    2    1    2    0    0  0.35527136788E-14 -0.11102230246E-14  0.96459941461E+03  0.10656345526E+04  0.45290724108E+03 0.  0.
      99925    2    3    3    0    0 -0.18010486738E+02  0.13466423291E+01  0.86625933759E+03  0.90549564437E+03  0.26304169050E+03 0.  0.
         25    1    4    4    0    0 -0.39067410244E+02  0.21584702999E+02  0.50107128732E+03  0.51837448338E+03  0.12509000000E+03 0.  0.
         25    1    3    3    0    0  0.18010486738E+02 -0.13466423291E+01  0.98340077024E+02  0.16013890822E+03  0.12509000000E+03 0.  0.
         25    1    4    4    0    0  0.21056923506E+02 -0.20238060670E+02  0.36518805027E+03  0.38712116099E+03  0.12509000000E+03 0.  0.
<mgrwt>
<rscale>  2 0.45290724E+03</rscale>
<asrwt>0</asrwt>
<pdfrwt beam="1">  1       21 0.14928190E+00 0.45290724E+03</pdfrwt>
<pdfrwt beam="2">  1       21 0.74290549E-02 0.45290724E+03</pdfrwt>
<totfact> 0.37314594E+04</totfact>
</mgrwt>
</event>
<event>
 7    0  0.4831799E-002  0.4535527E+03  0.7546771E-02  0.1026668E+00
         21   -1    0    0  502  501  0.00000000000E+00  0.00000000000E+00  0.58118464024E+03  0.58118464024E+03  0.00000000000E+00 0. -1.
         21   -1    0    0  501  502 -0.00000000000E+00 -0.00000000000E+00 -0.88487410915E+02  0.88487410915E+02  0.00000000000E+00 0. -1.
      99926    2    1    2    0    0  0.14210854715E-13  0.00000000000E+00  0.49269722933E+03  0.66967205116E+03  0.45355274921E+03 0.  0.
      99925    2    3    3    0    0 -0.92461432983E+02  0.60951000135E+02  0.28676302988E+03  0.40449184148E+03  0.26290012078E+03 0.  0.
         25    1    3    3    0    0  0.92461432983E+02 -0.60951000135E+02  0.20593419945E+03  0.26518020968E+03  0.12509000000E+03 0.  0.
         25    1    4    4    0    0 -0.73003763752E+02  0.59245028386E+02  0.18312282938E+03  0.24087548993E+03  0.12509000000E+03 0.  0.
         25    1    4    4    0    0 -0.19457669231E+02  0.17059717491E+01  0.10364020050E+03  0.16361635154E+03  0.12509000000E+03 0.  0.
<mgrwt>
<rscale>  2 0.45355275E+03</rscale>
<asrwt>0</asrwt>
<pdfrwt beam="1">  1       21 0.85468328E-01 0.45355275E+03</pdfrwt>
<pdfrwt beam="2">  1       21 0.13012855E-01 0.45355275E+03</pdfrwt>
<totfact> 0.55207914E+04</totfact>
</mgrwt>
</event>
<event>
 7    0  0.4831799E-002  0.4597800E+03  0.7546771E-02  0.1024845E+00
         21   -1    0    0  502  501  0.00000000000E+00  0.00000000000E+00  0.88091981676E+02  0.88091981676E+02  0.00000000000E+00 0.  1.
         21   -1    0    0  501  502 -0.00000000000E+00 -0.00000000000E+00 -0.59993439487E+03  0.59993439487E+03  0.00000000000E+00 0.  1.
      99926    2    1    2    0    0  0.00000000000E+00  0.00000000000E+00 -0.51184241320E+03  0.68802637655E+03  0.45977998965E+03 0.  0.
      99925    2    3    3    0    0  0.41465015599E+02 -0.96493891176E+02 -0.24213020979E+03  0.37271288283E+03  0.26316807554E+03 0.  0.
         25    1    4    4    0    0  0.20856891620E+02 -0.68204706868E+02 -0.17458712623E+03  0.22630745616E+03  0.12509000000E+03 0.  0.
         25    1    3    3    0    0 -0.41465015599E+02  0.96493891176E+02 -0.26971220341E+03  0.31531349372E+03  0.12509000000E+03 0.  0.
         25    1    4    4    0    0  0.20608123979E+02 -0.28289184308E+02 -0.67543083554E+02  0.14640542667E+03  0.12509000000E+03 0.  0.
<mgrwt>
<rscale>  2 0.45977999E+03</rscale>
<asrwt>0</asrwt>
<pdfrwt beam="1">  1       21 0.12954703E-01 0.45977999E+03</pdfrwt>
<pdfrwt beam="2">  1       21 0.88225645E-01 0.45977999E+03</pdfrwt>
<totfact> 0.51588916E+04</totfact>
</mgrwt>
</event>
<event>
 7    0  0.4831799E-002  0.4558039E+03  0.7546771E-02  0.1026005E+00
         21   -1    0    0  502  501  0.00000000000E+00  0.00000000000E+00  0.65646533240E+02  0.65646533240E+02  0.00000000000E+00 0.  1.
         21   -1    0    0  501  502 -0.00000000000E+00 -0.00000000000E+00 -0.79119635841E+03  0.79119635841E+03  0.00000000000E+00 0.  1.
      99926    2    1    2    0    0  0.00000000000E+00 -0.14210854715E-13 -0.72554982517E+03  0.85684289164E+03  0.45580389661E+03 0.  0.
      99925    2    3    3    0    0 -0.53275100444E+02 -0.71458920966E+02 -0.32319273402E+03  0.42616511116E+03  0.26309417502E+03 0.  0.
         25    1    4    4    0    0 -0.31578675500E+02 -0.30609255796E+02 -0.99672648517E+02  0.16588033111E+03  0.12509000000E+03 0.  0.
         25    1    3    3    0    0  0.53275100444E+02  0.71458920966E+02 -0.40235709114E+03  0.43067778049E+03  0.12509000000E+03 0.  0.
         25    1    4    4    0    0 -0.21696424944E+02 -0.40849665170E+02 -0.22352008551E+03  0.26028478005E+03  0.12509000000E+03 0.  0.
<mgrwt>
<rscale>  2 0.45580390E+03</rscale>
<asrwt>0</asrwt>
<pdfrwt beam="1">  1       21 0.96539023E-02 0.45580390E+03</pdfrwt>
<pdfrwt beam="2">  1       21 0.11635240E+00 0.45580390E+03</pdfrwt>
<totfact> 0.44851306E+04</totfact>
</mgrwt>
</event>
<event>
 7    0  0.4831799E-002  0.4533737E+03  0.7546771E-02  0.1026721E+00
         21   -1    0    0  502  501  0.00000000000E+00  0.00000000000E+00  0.29733411659E+03  0.29733411659E+03  0.00000000000E+00 0.  1.
         21   -1    0    0  501  502 -0.00000000000E+00 -0.00000000000E+00 -0.17282554795E+03  0.17282554795E+03  0.00000000000E+00 0.  1.
      99926    2    1    2    0    0 -0.28865798640E-14 -0.10547118734E-14  0.12450856864E+03  0.47015966454E+03  0.45337371615E+03 0.  0.
      99925    2    3    3    0    0  0.69207837755E+00 -0.23593376935E+00 -0.37271204804E+02  0.26565847180E+03  0.26302993422E+03 0.  0.
         25    1    4    4    0    0 -0.35020799410E+02  0.11734613175E+02 -0.24171952260E+01  0.13045117274E+03  0.12509000000E+03 0.  0.
         25    1    4    4    0    0  0.35712877788E+02 -0.11970546944E+02 -0.34854009578E+02  0.13520729905E+03  0.12509000000E+03 0.  0.
         25    1    3    3    0    0 -0.69207837755E+00  0.23593376935E+00  0.16177977345E+03  0.20450119274E+03  0.12509000000E+03 0.  0.
<mgrwt>
<rscale>  2 0.45337372E+03</rscale>
<asrwt>0</asrwt>
<pdfrwt beam="1">  1       21 0.43725605E-01 0.45337372E+03</pdfrwt>
<pdfrwt beam="2">  1       21 0.25415522E-01 0.45337372E+03</pdfrwt>
<totfact> 0.68300824E+04</totfact>
</mgrwt>
</event>
<event>
 7    0  0.4831799E-002  0.4553987E+03  0.7546771E-02  0.1026124E+00
         21   -1    0    0  502  501  0.00000000000E+00  0.00000000000E+00  0.62115734153E+03  0.62115734153E+03  0.00000000000E+00 0.  1.
         21   -1    0    0  501  502 -0.00000000000E+00 -0.00000000000E+00 -0.83468369000E+02  0.83468369000E+02  0.00000000000E+00 0.  1.
      99926    2    1    2    0    0  0.00000000000E+00 -0.17763568394E-14  0.53768897253E+03  0.70462571053E+03  0.45539868331E+03 0.  0.
      99925    2    3    3    0    0 -0.61003082330E+02 -0.61642734272E+01  0.48589652246E+03  0.55600087982E+03  0.26321507080E+03 0.  0.
         25    1    4    4    0    0 -0.16644096439E+02  0.32685693605E+02  0.26617889797E+03  0.29638504405E+03  0.12509000000E+03 0.  0.
         25    1    4    4    0    0 -0.44358985891E+02 -0.38849967032E+02  0.21971762449E+03  0.25961583576E+03  0.12509000000E+03 0.  0.
         25    1    3    3    0    0  0.61003082330E+02  0.61642734272E+01  0.51792450068E+02  0.14862483071E+03  0.12509000000E+03 0.  0.
<mgrwt>
<rscale>  2 0.45539868E+03</rscale>
<asrwt>0</asrwt>
<pdfrwt beam="1">  1       21 0.91346665E-01 0.45539868E+03</pdfrwt>
<pdfrwt beam="2">  1       21 0.12274760E-01 0.45539868E+03</pdfrwt>
<totfact> 0.52487672E+04</totfact>
</mgrwt>
</event>
<event>
 7    0  0.4831799E-002  0.4510743E+03  0.7546771E-02  0.1027402E+00
         21   -1    0    0  502  501  0.00000000000E+00  0.00000000000E+00  0.40414460035E+03  0.40414460035E+03  0.00000000000E+00 0. -1.
         21   -1    0    0  501  502 -0.00000000000E+00 -0.00000000000E+00 -0.12586339244E+03  0.12586339244E+03  0.00000000000E+00 0. -1.
      99926    2    1    2    0    0 -0.71054273576E-14  0.00000000000E+00  0.27828120790E+03  0.53000799279E+03  0.45107431954E+03 0.  0.
      99925    2    3    3    0    0  0.52262928512E+02  0.85549109674E+02  0.22767587808E+03  0.36190543073E+03  0.26284819092E+03 0.  0.
         25    1    4    4    0    0  0.60132336651E+02  0.30588569651E+02  0.92686026424E+02  0.16967547289E+03  0.12509000000E+03 0.  0.
         25    1    4    4    0    0 -0.78694081391E+01  0.54960540022E+02  0.13498985166E+03  0.19222995785E+03  0.12509000000E+03 0.  0.
         25    1    3    3    0    0 -0.52262928512E+02 -0.85549109674E+02  0.50605329823E+02  0.16810256205E+03  0.12509000000E+03 0.  0.
<mgrwt>
<rscale>  2 0.45107432E+03</rscale>
<asrwt>0</asrwt>
<pdfrwt beam="1">  1       21 0.59433029E-01 0.45107432E+03</pdfrwt>
<pdfrwt beam="2">  1       21 0.18509323E-01 0.45107432E+03</pdfrwt>
<totfact> 0.65210161E+04</totfact>
</mgrwt>
</event>
<event>
 7    0  0.4831799E-002  0.4579715E+03  0.7546771E-02  0.1025371E+00
         21   -1    0    0  502  501  0.00000000000E+00  0.00000000000E+00  0.18202318257E+04  0.18202318257E+04  0.00000000000E+00 0.  1.
         21   -1    0    0  501  502 -0.00000000000E+00 -0.00000000000E+00 -0.28806475235E+02  0.28806475235E+02  0.00000000000E+00 0.  1.
      99926    2    1    2    0    0 -0.13322676296E-14  0.00000000000E+00  0.17914253505E+04  0.18490383010E+04  0.45797145330E+03 0.  0.
      99925    2    3    3    0    0  0.36046826376E+01  0.59442085622E+02  0.72272749965E+03  0.77139784155E+03  0.26300805294E+03 0.  0.
         25    1    4    4    0    0 -0.33577967306E+02  0.23735430296E+02  0.41094254845E+03  0.43152304315E+03  0.12509000000E+03 0.  0.
         25    1    4    4    0    0  0.37182649944E+02  0.35706655326E+02  0.31178495120E+03  0.33987479840E+03  0.12509000000E+03 0.  0.
         25    1    3    3    0    0 -0.36046826376E+01 -0.59442085622E+02  0.10686978508E+04  0.10776404594E+04  0.12509000000E+03 0.  0.
<mgrwt>
<rscale>  2 0.45797145E+03</rscale>
<asrwt>0</asrwt>
<pdfrwt beam="1">  1       21 0.26768107E+00 0.45797145E+03</pdfrwt>
<pdfrwt beam="2">  1       21 0.42362476E-02 0.45797145E+03</pdfrwt>
<totfact> 0.15963889E+04</totfact>
</mgrwt>
</event>
<event>
 7    0  0.4831799E-002  0.4778512E+03  0.7546771E-02  0.1019727E+00
         21   -1    0    0  502  501  0.00000000000E+00  0.00000000000E+00  0.77904377628E+02  0.77904377628E+02  0.00000000000E+00 0. -1.
         21   -1    0    0  501  502 -0.00000000000E+00 -0.00000000000E+00 -0.73276297579E+03  0.73276297579E+03  0.00000000000E+00 0. -1.
      99926    2    1    2    0    0  0.14210854715E-13  0.71054273576E-14 -0.65485859816E+03  0.81066735342E+03  0.47785120520E+03 0.  0.
      99925    2    3    3    0    0  0.70907503621E+02  0.46131022377E+02 -0.57944679273E+03  0.64187637678E+03  0.26285119777E+03 0.  0.
         25    1    4    4    0    0  0.43773068216E+01  0.39438163744E+02 -0.23114136539E+03  0.26579760810E+03  0.12509000000E+03 0.  0.
         25    1    4    4    0    0  0.66530196800E+02  0.66928586323E+01 -0.34830542734E+03  0.37607876869E+03  0.12509000000E+03 0.  0.
         25    1    3    3    0    0 -0.70907503621E+02 -0.46131022377E+02 -0.75411805431E+02  0.16879097664E+03  0.12509000000E+03 0.  0.
<mgrwt>
<rscale>  2 0.47785121E+03</rscale>
<asrwt>0</asrwt>
<pdfrwt beam="1">  1       21 0.11456526E-01 0.47785121E+03</pdfrwt>
<pdfrwt beam="2">  1       21 0.10775926E+00 0.47785121E+03</pdfrwt>
<totfact> 0.39650429E+04</totfact>
</mgrwt>
</event>
<event>
 7    0  0.4831799E-002  0.4525925E+03  0.7546771E-02  0.1026952E+00
         21   -1    0    0  502  501  0.00000000000E+00  0.00000000000E+00  0.12430708662E+03  0.12430708662E+03  0.00000000000E+00 0.  1.
         21   -1    0    0  501  502 -0.00000000000E+00 -0.00000000000E+00 -0.41196354833E+03  0.41196354833E+03  0.00000000000E+00 0.  1.
      99926    2    1    2    0    0 -0.17763568394E-14 -0.14210854715E-13 -0.28765646172E+03  0.53627063495E+03  0.45259248109E+03 0.  0.
      99925    2    3    3    0    0 -0.83163599996E+01 -0.65086466892E+02 -0.28731655540E+03  0.39501542742E+03  0.26302276494E+03 0.  0.
         25    1    3    3    0    0  0.83163599996E+01  0.65086466892E+02 -0.33990631239E+00  0.14125520752E+03  0.12509000000E+03 0.  0.
         25    1    4    4    0    0 -0.28598103009E+02 -0.19496756771E+02 -0.18450411372E+03  0.22558202743E+03  0.12509000000E+03 0.  0.
         25    1    4    4    0    0  0.20281743010E+02 -0.45589710120E+02 -0.10281244169E+03  0.16943339999E+03  0.12509000000E+03 0.  0.
<mgrwt>
<rscale>  2 0.45259248E+03</rscale>
<asrwt>0</asrwt>
<pdfrwt beam="1">  1       21 0.18280454E-01 0.45259248E+03</pdfrwt>
<pdfrwt beam="2">  1       21 0.60582874E-01 0.45259248E+03</pdfrwt>
<totfact> 0.63993666E+04</totfact>
</mgrwt>
</event>
<event>
 7    0  0.4831799E-002  0.4592455E+03  0.7546771E-02  0.1025000E+00
         21   -1    0    0  502  501  0.00000000000E+00  0.00000000000E+00  0.59383774962E+03  0.59383774962E+03  0.00000000000E+00 0. -1.
         21   -1    0    0  501  502 -0.00000000000E+00 -0.00000000000E+00 -0.88789582524E+02  0.88789582524E+02  0.00000000000E+00 0. -1.
      99926    2    1    2    0    0  0.00000000000E+00 -0.17763568394E-14  0.50504816709E+03  0.68262733214E+03  0.45924549372E+03 0.  0.
      99925    2    3    3    0    0 -0.10013916174E+03  0.14437001269E+02  0.40421997109E+03  0.49275866192E+03  0.26302287953E+03 0.  0.
         25    1    4    4    0    0 -0.39841103496E+02  0.19357660368E+02  0.13225095415E+03  0.18734955436E+03  0.12509000000E+03 0.  0.
         25    1    3    3    0    0  0.10013916174E+03 -0.14437001269E+02  0.10082819601E+03  0.18986867022E+03  0.12509000000E+03 0.  0.
         25    1    4    4    0    0 -0.60298058248E+02 -0.49206590988E+01  0.27196901693E+03  0.30540910757E+03  0.12509000000E+03 0.  0.
<mgrwt>
<rscale>  2 0.45924549E+03</rscale>
<asrwt>0</asrwt>
<pdfrwt beam="1">  1       21 0.87329079E-01 0.45924549E+03</pdfrwt>
<pdfrwt beam="2">  1       21 0.13057292E-01 0.45924549E+03</pdfrwt>
<totfact> 0.52092637E+04</totfact>
</mgrwt>
</event>
<event>
 7    0  0.4831799E-002  0.4501345E+03  0.7546771E-02  0.1027682E+00
         21   -1    0    0  502  501  0.00000000000E+00  0.00000000000E+00  0.11010196380E+04  0.11010196380E+04  0.00000000000E+00 0. -1.
         21   -1    0    0  501  502 -0.00000000000E+00 -0.00000000000E+00 -0.46007603651E+02  0.46007603651E+02  0.00000000000E+00 0. -1.
      99926    2    1    2    0    0  0.14210854715E-13 -0.35527136788E-14  0.10550120343E+04  0.11470272416E+04  0.45013453596E+03 0.  0.
      99925    2    3    3    0    0  0.76235339183E+02 -0.28332681672E+02  0.48216810823E+03  0.55507095983E+03  0.26268444580E+03 0.  0.
         25    1    3    3    0    0 -0.76235339183E+02  0.28332681672E+02  0.57284392609E+03  0.59195628178E+03  0.12509000000E+03 0.  0.
         25    1    4    4    0    0  0.26574028670E+02  0.10480345837E+02  0.29142450503E+03  0.31842073877E+03  0.12509000000E+03 0.  0.
         25    1    4    4    0    0  0.49661310513E+02 -0.38813027509E+02  0.19074360320E+03  0.23665022106E+03  0.12509000000E+03 0.  0.
<mgrwt>
<rscale>  2 0.45013454E+03</rscale>
<asrwt>0</asrwt>
<pdfrwt beam="1">  1       21 0.16191464E+00 0.45013454E+03</pdfrwt>
<pdfrwt beam="2">  1       21 0.67658248E-02 0.45013454E+03</pdfrwt>
<totfact> 0.35197684E+04</totfact>
</mgrwt>
</event>
<event>
 7    0  0.4831799E-002  0.4674939E+03  0.7546771E-02  0.1022630E+00
         21   -1    0    0  502  501  0.00000000000E+00  0.00000000000E+00  0.16414785051E+03  0.16414785051E+03  0.00000000000E+00 0.  1.
         21   -1    0    0  501  502 -0.00000000000E+00 -0.00000000000E+00 -0.33285622297E+03  0.33285622297E+03  0.00000000000E+00 0.  1.
      99926    2    1    2    0    0  0.00000000000E+00  0.00000000000E+00 -0.16870837246E+03  0.49700407348E+03  0.46749388672E+03 0.  0.
      99925    2    3    3    0    0  0.65445497294E+02  0.65556880964E+02 -0.19310426143E+03  0.33944936788E+03  0.26335489328E+03 0.  0.
         25    1    3    3    0    0 -0.65445497294E+02 -0.65556880964E+02  0.24395888972E+02  0.15755470560E+03  0.12509000000E+03 0.  0.
         25    1    4    4    0    0  0.53050940668E+02  0.27932676098E+02 -0.55765716509E+02  0.14950571875E+03  0.12509000000E+03 0.  0.
         25    1    4    4    0    0  0.12394556625E+02  0.37624204866E+02 -0.13733854493E+03  0.18994364914E+03  0.12509000000E+03 0.  0.
<mgrwt>
<rscale>  2 0.46749389E+03</rscale>
<asrwt>0</asrwt>
<pdfrwt beam="1">  1       21 0.24139390E-01 0.46749389E+03</pdfrwt>
<pdfrwt beam="2">  1       21 0.48949444E-01 0.46749389E+03</pdfrwt>
<totfact> 0.59370896E+04</totfact>
</mgrwt>
</event>
<event>
 7    0  0.4831799E-002  0.4499390E+03  0.7546771E-02  0.1027740E+00
         21   -1    0    0  502  501  0.00000000000E+00  0.00000000000E+00  0.52817311378E+03  0.52817311378E+03  0.00000000000E+00 0. -1.
         21   -1    0    0  501  502 -0.00000000000E+00 -0.00000000000E+00 -0.95823260431E+02  0.95823260431E+02  0.00000000000E+00 0. -1.
      99926    2    1    2    0    0  0.00000000000E+00  0.00000000000E+00  0.43234985335E+03  0.62399637421E+03  0.44993897290E+03 0.  0.
      99925    2    3    3    0    0  0.94362918630E+02  0.20245517420E+02  0.34161762794E+03  0.44180393140E+03  0.26300925592E+03 0.  0.
         25    1    3    3    0    0 -0.94362918630E+02 -0.20245517420E+02  0.90732225408E+02  0.18219244281E+03  0.12509000000E+03 0.  0.
         25    1    4    4    0    0  0.11489869326E+02  0.31955090396E+02  0.15473008710E+03  0.20184660724E+03  0.12509000000E+03 0.  0.
         25    1    4    4    0    0  0.82873049304E+02 -0.11709572976E+02  0.18688754084E+03  0.23995732417E+03  0.12509000000E+03 0.  0.
<mgrwt>
<rscale>  2 0.44993897E+03</rscale>
<asrwt>0</asrwt>
<pdfrwt beam="1">  1       21 0.77672516E-01 0.44993897E+03</pdfrwt>
<pdfrwt beam="2">  1       21 0.14091656E-01 0.44993897E+03</pdfrwt>
<totfact> 0.59569875E+04</totfact>
</mgrwt>
</event>
<event>
 7    0  0.4831799E-002  0.4566889E+03  0.7546771E-02  0.1025746E+00
         21   -1    0    0  502  501  0.00000000000E+00  0.00000000000E+00  0.49341674115E+02  0.49341674115E+02  0.00000000000E+00 0. -1.
         21   -1    0    0  501  502 -0.00000000000E+00 -0.00000000000E+00 -0.10567372012E+04  0.10567372012E+04  0.00000000000E+00 0. -1.
      99926    2    1    2    0    0  0.00000000000E+00  0.00000000000E+00 -0.10073955271E+04  0.11060788753E+04  0.45668887705E+03 0.  0.
      99925    2    3    3    0    0 -0.10406641767E+03 -0.35276683341E+02 -0.55347855752E+03  0.62258907497E+03  0.26306725180E+03 0.  0.
         25    1    3    3    0    0  0.10406641767E+03  0.35276683341E+02 -0.45391696955E+03  0.48348980033E+03  0.12509000000E+03 0.  0.
         25    1    4    4    0    0 -0.40098433103E+02  0.14569443153E+02 -0.31145072644E+03  0.33833299589E+03  0.12509000000E+03 0.  0.
         25    1    4    4    0    0 -0.63967984566E+02 -0.49846126495E+02 -0.24202783108E+03  0.28425607908E+03  0.12509000000E+03 0.  0.
<mgrwt>
<rscale>  2 0.45668888E+03</rscale>
<asrwt>0</asrwt>
<pdfrwt beam="1">  1       21 0.72561285E-02 0.45668888E+03</pdfrwt>
<pdfrwt beam="2">  1       21 0.15540253E+00 0.45668888E+03</pdfrwt>
<totfact> 0.34822112E+04</totfact>
</mgrwt>
</event>
<event>
 7    0  0.4831799E-002  0.4538338E+03  0.7546771E-02  0.1026585E+00
         21   -1    0    0  502  501  0.00000000000E+00  0.00000000000E+00  0.19896279618E+03  0.19896279618E+03  0.00000000000E+00 0.  1.
         21   -1    0    0  501  502 -0.00000000000E+00 -0.00000000000E+00 -0.25879852240E+03  0.25879852240E+03  0.00000000000E+00 0.  1.
      99926    2    1    2    0    0  0.00000000000E+00  0.14210854715E-13 -0.59835726222E+02  0.45776131857E+03  0.45383379188E+03 0.  0.
      99925    2    3    3    0    0  0.64411165985E+02 -0.87888243495E+02 -0.64211678610E+02  0.29181012482E+03  0.26297693365E+03 0.  0.
         25    1    4    4    0    0  0.63622833902E+01 -0.29270065267E+02  0.40628780004E+00  0.12862693552E+03  0.12509000000E+03 0.  0.
         25    1    4    4    0    0  0.58048882594E+02 -0.58618178228E+02 -0.64617966410E+02  0.16318318931E+03  0.12509000000E+03 0.  0.
         25    1    3    3    0    0 -0.64411165985E+02  0.87888243495E+02  0.43759523878E+01  0.16595119375E+03  0.12509000000E+03 0.  0.
<mgrwt>
<rscale>  2 0.45383379E+03</rscale>
<asrwt>0</asrwt>
<pdfrwt beam="1">  1       21 0.29259235E-01 0.45383379E+03</pdfrwt>
<pdfrwt beam="2">  1       21 0.38058606E-01 0.45383379E+03</pdfrwt>
<totfact> 0.68983355E+04</totfact>
</mgrwt>
</event>
<event>
 7    0  0.4831799E-002  0.4580460E+03  0.7546771E-02  0.1025349E+00
         21   -1    0    0  502  501  0.00000000000E+00  0.00000000000E+00  0.15548629050E+03  0.15548629050E+03  0.00000000000E+00 0.  1.
         21   -1    0    0  501  502 -0.00000000000E+00 -0.00000000000E+00 -0.33733866958E+03  0.33733866958E+03  0.00000000000E+00 0.  1.
      99926    2    1    2    0    0  0.00000000000E+00  0.00000000000E+00 -0.18185237908E+03  0.49282496007E+03  0.45804601678E+03 0.  0.
      99925    2    3    3    0    0 -0.19444224106E+02  0.97522441125E+02 -0.49993042795E+02  0.28564605902E+03  0.26306969102E+03 0.  0.
         25    1    3    3    0    0  0.19444224106E+02 -0.97522441125E+02 -0.13185933629E+03  0.20717890105E+03  0.12509000000E+03 0.  0.
         25    1    4    4    0    0 -0.98048461319E+01  0.66133643953E+02 -0.63914553931E+02  0.15557111613E+03  0.12509000000E+03 0.  0.
         25    1    4    4    0    0 -0.96393779745E+01  0.31388797172E+02  0.13921511137E+02  0.13007494289E+03  0.12509000000E+03 0.  0.
<mgrwt>
<rscale>  2 0.45804602E+03</rscale>
<asrwt>0</asrwt>
<pdfrwt beam="1">  1       21 0.22865631E-01 0.45804602E+03</pdfrwt>
<pdfrwt beam="2">  1       21 0.49608627E-01 0.45804602E+03</pdfrwt>
<totfact> 0.64210914E+04</totfact>
</mgrwt>
</event>
<event>
 7    0  0.4831799E-002  0.4544593E+03  0.7546771E-02  0.1026401E+00
         21   -1    0    0  502  501  0.00000000000E+00  0.00000000000E+00  0.51599026279E+03  0.51599026279E+03  0.00000000000E+00 0. -1.
         21   -1    0    0  501  502 -0.00000000000E+00 -0.00000000000E+00 -0.10006646284E+03  0.10006646284E+03  0.00000000000E+00 0. -1.
      99926    2    1    2    0    0  0.14210854715E-13  0.00000000000E+00  0.41592379995E+03  0.61605672563E+03  0.45445932913E+03 0.  0.
      99925    2    3    3    0    0 -0.73997838968E+02  0.41198115960E+01  0.37675621444E+03  0.46547697641E+03  0.26311768743E+03 0.  0.
         25    1    4    4    0    0 -0.76081204845E+01  0.73436765767E+01  0.12844894212E+03  0.17960638049E+03  0.12509000000E+03 0.  0.
         25    1    3    3    0    0  0.73997838968E+02 -0.41198115960E+01  0.39167585512E+02  0.15057974922E+03  0.12509000000E+03 0.  0.
         25    1    4    4    0    0 -0.66389718483E+02 -0.32238649806E+01  0.24830727232E+03  0.28587059592E+03  0.12509000000E+03 0.  0.
<mgrwt>
<rscale>  2 0.45445933E+03</rscale>
<asrwt>0</asrwt>
<pdfrwt beam="1">  1       21 0.75880920E-01 0.45445933E+03</pdfrwt>
<pdfrwt beam="2">  1       21 0.14715656E-01 0.45445933E+03</pdfrwt>
<totfact> 0.57947700E+04</totfact>
</mgrwt>
</event>
<event>
 7    0  0.4831799E-002  0.4505900E+03  0.7546771E-02  0.1027546E+00
         21   -1    0    0  502  501  0.00000000000E+00  0.00000000000E+00  0.55593166495E+02  0.55593166495E+02  0.00000000000E+00 0.  1.
         21   -1    0    0  501  502 -0.00000000000E+00 -0.00000000000E+00 -0.91302309203E+03  0.91302309203E+03  0.00000000000E+00 0.  1.
      99926    2    1    2    0    0  0.00000000000E+00  0.00000000000E+00 -0.85742992554E+03  0.96861625853E+03  0.45059003437E+03 0.  0.
      99925    2    3    3    0    0  0.75289319644E+02 -0.54631704463E+02 -0.41979673319E+03  0.50404826142E+03  0.26302518485E+03 0.  0.
         25    1    4    4    0    0  0.19834643092E+02 -0.59325492471E+02 -0.18037130741E+03  0.22824163459E+03  0.12509000000E+03 0.  0.
         25    1    4    4    0    0  0.55454676552E+02  0.46937880075E+01 -0.23942542577E+03  0.27580662683E+03  0.12509000000E+03 0.  0.
         25    1    3    3    0    0 -0.75289319644E+02  0.54631704463E+02 -0.43763319235E+03  0.46456799710E+03  0.12509000000E+03 0.  0.
<mgrwt>
<rscale>  2 0.45059003E+03</rscale>
<asrwt>0</asrwt>
<pdfrwt beam="1">  1       21 0.81754659E-02 0.45059003E+03</pdfrwt>
<pdfrwt beam="2">  1       21 0.13426810E+00 0.45059003E+03</pdfrwt>
<totfact> 0.41819359E+04</totfact>
</mgrwt>
</event>
<event>
 7    0  0.4831799E-002  0.4807552E+03  0.7546771E-02  0.1018928E+00
         21   -1    0    0  502  501  0.00000000000E+00  0.00000000000E+00  0.49613805308E+03  0.49613805308E+03  0.00000000000E+00 0. -1.
         21   -1    0    0  501  502 -0.00000000000E+00 -0.00000000000E+00 -0.11646232129E+03  0.11646232129E+03  0.00000000000E+00 0. -1.
      99926    2    1    2    0    0 -0.35527136788E-14  0.00000000000E+00  0.37967573179E+03  0.61260037438E+03  0.48075519485E+03 0.  0.
      99925    2    3    3    0    0  0.19787605054E+02 -0.41202221714E+02  0.39690289889E+03  0.47831167130E+03  0.26298473600E+03 0.  0.
         25    1    4    4    0    0 -0.30075045530E+02 -0.26515351696E+02  0.18859148295E+03  0.22982999757E+03  0.12509000000E+03 0.  0.
         25    1    3    3    0    0 -0.19787605054E+02  0.41202221714E+02 -0.17227167097E+02  0.13428870308E+03  0.12509000000E+03 0.  0.
         25    1    4    4    0    0  0.49862650584E+02 -0.14686870018E+02  0.20831141593E+03  0.24848167373E+03  0.12509000000E+03 0.  0.
<mgrwt>
<rscale>  2 0.48075519E+03</rscale>
<asrwt>0</asrwt>
<pdfrwt beam="1">  1       21 0.72961478E-01 0.48075519E+03</pdfrwt>
<pdfrwt beam="2">  1       21 0.17126812E-01 0.48075519E+03</pdfrwt>
<totfact> 0.47485297E+04</totfact>
</mgrwt>
</event>
<event>
 7    0  0.4831799E-002  0.4566188E+03  0.7546771E-02  0.1025766E+00
         21   -1    0    0  502  501  0.00000000000E+00  0.00000000000E+00  0.21427243022E+03  0.21427243022E+03  0.00000000000E+00 0.  1.
         21   -1    0    0  501  502 -0.00000000000E+00 -0.00000000000E+00 -0.24326593345E+03  0.24326593345E+03  0.00000000000E+00 0.  1.
      99926    2    1    2    0    0  0.00000000000E+00 -0.14210854715E-13 -0.28993503230E+02  0.45753836367E+03  0.45661880272E+03 0.  0.
      99925    2    3    3    0    0  0.37164677134E+02 -0.10565461909E+03  0.69479610519E+01  0.28583102918E+03  0.26288208634E+03 0.  0.
         25    1    4    4    0    0  0.23785973485E+01 -0.12401831960E+02 -0.17717138565E+01  0.12573826081E+03  0.12509000000E+03 0.  0.
         25    1    3    3    0    0 -0.37164677134E+02  0.10565461909E+03 -0.35941464282E+02  0.17170733449E+03  0.12509000000E+03 0.  0.
         25    1    4    4    0    0  0.34786079785E+02 -0.93252787132E+02  0.87196749084E+01  0.16009276837E+03  0.12509000000E+03 0.  0.
<mgrwt>
<rscale>  2 0.45661880E+03</rscale>
<asrwt>0</asrwt>
<pdfrwt beam="1">  1       21 0.31510652E-01 0.45661880E+03</pdfrwt>
<pdfrwt beam="2">  1       21 0.35774402E-01 0.45661880E+03</pdfrwt>
<totfact> 0.67484412E+04</totfact>
</mgrwt>
</event>
<event>
 7    0  0.4831799E-002  0.4995119E+03  0.7546771E-02  0.1013906E+00
         21   -1    0    0  502  501  0.00000000000E+00  0.00000000000E+00  0.65302290564E+02  0.65302290564E+02  0.00000000000E+00 0.  1.
         21   -1    0    0  501  502 -0.00000000000E+00 -0.00000000000E+00 -0.95521977975E+03  0.95521977975E+03  0.00000000000E+00 0.  1.
      99926    2    1    2    0    0  0.00000000000E+00  0.00000000000E+00 -0.88991748919E+03  0.10205220703E+04  0.49951192022E+03 0.  0.
      99925    2    3    3    0    0 -0.66993684786E+02  0.10288369078E+03 -0.71977306488E+03  0.77624796024E+03  0.26346617091E+03 0.  0.
         25    1    4    4    0    0 -0.70564809177E+02  0.73568957725E+02 -0.42852397048E+03  0.45789964535E+03  0.12509000000E+03 0.  0.
         25    1    3    3    0    0  0.66993684786E+02 -0.10288369078E+03 -0.17014442430E+03  0.24427411007E+03  0.12509000000E+03 0.  0.
         25    1    4    4    0    0  0.35711243911E+01  0.29314733059E+02 -0.29124909441E+03  0.31834831489E+03  0.12509000000E+03 0.  0.
<mgrwt>
<rscale>  2 0.49951192E+03</rscale>
<asrwt>0</asrwt>
<pdfrwt beam="1">  1       21 0.96032792E-02 0.49951192E+03</pdfrwt>
<pdfrwt beam="2">  1       21 0.14047348E+00 0.49951192E+03</pdfrwt>
<totfact> 0.27499770E+04</totfact>
</mgrwt>
</event>
<event>
 7    0  0.4831799E-002  0.4594558E+03  0.7546771E-02  0.1024939E+00
         21   -1    0    0  502  501  0.00000000000E+00  0.00000000000E+00  0.19753720507E+03  0.19753720507E+03  0.00000000000E+00 0. -1.
         21   -1    0    0  501  502 -0.00000000000E+00 -0.00000000000E+00 -0.26716444195E+03  0.26716444195E+03  0.00000000000E+00 0. -1.
      99926    2    1    2    0    0 -0.17763568394E-14  0.00000000000E+00 -0.69627236877E+02  0.46470164702E+03  0.45945583969E+03 0.  0.
      99925    2    3    3    0    0 -0.15157881949E+02 -0.10322174135E+03  0.10660424794E+02  0.28310289705E+03  0.26296219574E+03 0.  0.
         25    1    3    3    0    0  0.15157881949E+02  0.10322174135E+03 -0.80287661671E+02  0.18159874997E+03  0.12509000000E+03 0.  0.
         25    1    4    4    0    0 -0.81128115580E+01 -0.89643685073E+02 -0.13815658269E+02  0.15472617263E+03  0.12509000000E+03 0.  0.
         25    1    4    4    0    0 -0.70450703914E+01 -0.13578056279E+02  0.24476083063E+02  0.12837672441E+03  0.12509000000E+03 0.  0.
<mgrwt>
<rscale>  2 0.45945584E+03</rscale>
<asrwt>0</asrwt>
<pdfrwt beam="1">  1       21 0.29049589E-01 0.45945584E+03</pdfrwt>
<pdfrwt beam="2">  1       21 0.39288888E-01 0.45945584E+03</pdfrwt>
<totfact> 0.65481353E+04</totfact>
</mgrwt>
</event>
<event>
 7    0  0.4831799E-002  0.4541487E+03  0.7546771E-02  0.1026492E+00
         21   -1    0    0  502  501  0.00000000000E+00  0.00000000000E+00  0.16586542764E+03  0.16586542764E+03  0.00000000000E+00 0.  1.
         21   -1    0    0  501  502 -0.00000000000E+00 -0.00000000000E+00 -0.31087102071E+03  0.31087102071E+03  0.00000000000E+00 0.  1.
      99926    2    1    2    0    0  0.00000000000E+00 -0.71054273576E-14 -0.14500559307E+03  0.47673644835E+03  0.45414867518E+03 0.  0.
      99925    2    3    3    0    0 -0.37062917148E+02  0.48760364623E+02 -0.19019537455E+03  0.33030947872E+03  0.26301870322E+03 0.  0.
         25    1    4    4    0    0  0.19815688003E+02  0.16049250525E+02 -0.10546515640E+03  0.16559180912E+03  0.12509000000E+03 0.  0.
         25    1    3    3    0    0  0.37062917148E+02 -0.48760364623E+02  0.45189781481E+02  0.14642696963E+03  0.12509000000E+03 0.  0.
         25    1    4    4    0    0 -0.56878605151E+02  0.32711114098E+02 -0.84730218157E+02  0.16471766960E+03  0.12509000000E+03 0.  0.
<mgrwt>
<rscale>  2 0.45414868E+03</rscale>
<asrwt>0</asrwt>
<pdfrwt beam="1">  1       21 0.24391975E-01 0.45414868E+03</pdfrwt>
<pdfrwt beam="2">  1       21 0.45716326E-01 0.45414868E+03</pdfrwt>
<totfact> 0.67392634E+04</totfact>
</mgrwt>
</event>
<event>
 7    0  0.4831799E-002  0.4476813E+03  0.7546771E-02  0.1028416E+00
         21   -1    0    0  502  501  0.00000000000E+00  0.00000000000E+00  0.11202062908E+03  0.11202062908E+03  0.00000000000E+00 0.  1.
         21   -1    0    0  501  502 -0.00000000000E+00 -0.00000000000E+00 -0.44728040215E+03  0.44728040215E+03  0.00000000000E+00 0.  1.
      99926    2    1    2    0    0  0.14210854715E-13 -0.71054273576E-14 -0.33525977307E+03  0.55930103123E+03  0.44768127959E+03 0.  0.
      99925    2    3    3    0    0 -0.88591354192E+02  0.37336554251E+02 -0.15611860042E+03  0.32059302098E+03  0.26299129526E+03 0.  0.
         25    1    4    4    0    0 -0.36140102481E+02 -0.21564399372E+02 -0.68316375626E+02  0.14861280431E+03  0.12509000000E+03 0.  0.
         25    1    3    3    0    0  0.88591354192E+02 -0.37336554251E+02 -0.17914117264E+03  0.23870801025E+03  0.12509000000E+03 0.  0.
         25    1    4    4    0    0 -0.52451251711E+02  0.58900953623E+02 -0.87802224795E+02  0.17198021666E+03  0.12509000000E+03 0.  0.
<mgrwt>
<rscale>  2 0.44768128E+03</rscale>
<asrwt>0</asrwt>
<pdfrwt beam="1">  1       21 0.16473622E-01 0.44768128E+03</pdfrwt>
<pdfrwt beam="2">  1       21 0.65776530E-01 0.44768128E+03</pdfrwt>
<totfact> 0.64934265E+04</totfact>
</mgrwt>
</event>
<event>
 7    0  0.4831799E-002  0.4569251E+03  0.7546771E-02  0.1025677E+00
         21   -1    0    0  502  501  0.00000000000E+00  0.00000000000E+00  0.22432515040E+03  0.22432515040E+03  0.00000000000E+00 0.  1.
         21   -1    0    0  501  502 -0.00000000000E+00 -0.00000000000E+00 -0.23267627373E+03  0.23267627373E+03  0.00000000000E+00 0.  1.
      99926    2    1    2    0    0  0.35527136788E-14  0.00000000000E+00 -0.83511233275E+01  0.45700142414E+03  0.45692511465E+03 0.  0.
      99925    2    3    3    0    0  0.19745286611E+02  0.61017737555E+02 -0.10080465775E+03  0.28875100135E+03  0.26287358391E+03 0.  0.
         25    1    4    4    0    0  0.45146191086E+02  0.11555038674E+02 -0.55369336324E+02  0.14451632777E+03  0.12509000000E+03 0.  0.
         25    1    4    4    0    0 -0.25400904475E+02  0.49462698881E+02 -0.45435321429E+02  0.14423467358E+03  0.12509000000E+03 0.  0.
         25    1    3    3    0    0 -0.19745286611E+02 -0.61017737555E+02  0.92453534425E+02  0.16825042279E+03  0.12509000000E+03 0.  0.
<mgrwt>
<rscale>  2 0.45692511E+03</rscale>
<asrwt>0</asrwt>
<pdfrwt beam="1">  1       21 0.32988993E-01 0.45692511E+03</pdfrwt>
<pdfrwt beam="2">  1       21 0.34217099E-01 0.45692511E+03</pdfrwt>
<totfact> 0.67358801E+04</totfact>
</mgrwt>
</event>
<event>
 7    0  0.4831799E-002  0.4445394E+03  0.7546771E-02  0.1029363E+00
         21   -1    0    0  502  501  0.00000000000E+00  0.00000000000E+00  0.35768065308E+03  0.35768065308E+03  0.00000000000E+00 0.  1.
         21   -1    0    0  501  502 -0.00000000000E+00 -0.00000000000E+00 -0.13812269405E+03  0.13812269405E+03  0.00000000000E+00 0.  1.
      99926    2    1    2    0    0  0.00000000000E+00  0.71054273576E-14  0.21955795904E+03  0.49580334713E+03  0.44453938144E+03 0.  0.
      99925    2    3    3    0    0 -0.91020523420E+02 -0.38570891492E+02  0.10753858647E+03  0.30094879295E+03  0.26312198510E+03 0.  0.
         25    1    3    3    0    0  0.91020523420E+02  0.38570891492E+02  0.11201937257E+03  0.19485455418E+03  0.12509000000E+03 0.  0.
         25    1    4    4    0    0 -0.81610420191E+02 -0.14984306512E+01  0.69361578996E+02  0.16468467664E+03  0.12509000000E+03 0.  0.
         25    1    4    4    0    0 -0.94101032294E+01 -0.37072460840E+02  0.38177007476E+02  0.13626411632E+03  0.12509000000E+03 0.  0.
<mgrwt>
<rscale>  2 0.44453938E+03</rscale>
<asrwt>0</asrwt>
<pdfrwt beam="1">  1       21 0.52600096E-01 0.44453938E+03</pdfrwt>
<pdfrwt beam="2">  1       21 0.20312161E-01 0.44453938E+03</pdfrwt>
<totfact> 0.71305908E+04</totfact>
</mgrwt>
</event>
<event>
 7    0  0.4831799E-002  0.4498252E+03  0.7546771E-02  0.1027774E+00
         21   -1    0    0  502  501  0.00000000000E+00  0.00000000000E+00  0.18768010050E+03  0.18768010050E+03  0.00000000000E+00 0.  1.
         21   -1    0    0  501  502 -0.00000000000E+00 -0.00000000000E+00 -0.26953133302E+03  0.26953133302E+03  0.00000000000E+00 0.  1.
      99926    2    1    2    0    0 -0.35527136788E-14  0.00000000000E+00 -0.81851232521E+02  0.45721143353E+03  0.44982515568E+03 0.  0.
      99925    2    3    3    0    0 -0.95821487947E+01 -0.88217418614E+02 -0.11478341664E+03  0.30034790248E+03  0.26298193715E+03 0.  0.
         25    1    3    3    0    0  0.95821487947E+01  0.88217418614E+02  0.32932184115E+02  0.15686353105E+03  0.12509000000E+03 0.  0.
         25    1    4    4    0    0 -0.36829610205E+02 -0.23744617474E+02 -0.38760758445E+02  0.13809464704E+03  0.12509000000E+03 0.  0.
         25    1    4    4    0    0  0.27247461411E+02 -0.64472801140E+02 -0.76022658191E+02  0.16225325543E+03  0.12509000000E+03 0.  0.
<mgrwt>
<rscale>  2 0.44982516E+03</rscale>
<asrwt>0</asrwt>
<pdfrwt beam="1">  1       21 0.27600015E-01 0.44982516E+03</pdfrwt>
<pdfrwt beam="2">  1       21 0.39636960E-01 0.44982516E+03</pdfrwt>
<totfact> 0.71279613E+04</totfact>
</mgrwt>
</event>
<event>
 7    0  0.4831799E-002  0.4617489E+03  0.7546771E-02  0.1024275E+00
         21   -1    0    0  502  501  0.00000000000E+00  0.00000000000E+00  0.47643297764E+03  0.47643297764E+03  0.00000000000E+00 0. -1.
         21   -1    0    0  501  502 -0.00000000000E+00 -0.00000000000E+00 -0.11187937101E+03  0.11187937101E+03  0.00000000000E+00 0. -1.
      99926    2    1    2    0    0  0.00000000000E+00  0.00000000000E+00  0.36455360664E+03  0.58831234865E+03  0.46174894419E+03 0.  0.
      99925    2    3    3    0    0  0.73552566266E+02 -0.37261901330E+02  0.33807082743E+03  0.43617006331E+03  0.26297150125E+03 0.  0.
         25    1    4    4    0    0  0.10166449491E+02 -0.18425927858E+02  0.20992786904E+03  0.24527553855E+03  0.12509000000E+03 0.  0.
         25    1    4    4    0    0  0.63386116775E+02 -0.18835973472E+02  0.12814295839E+03  0.19089452476E+03  0.12509000000E+03 0.  0.
         25    1    3    3    0    0 -0.73552566266E+02  0.37261901330E+02  0.26482779212E+02  0.15214228534E+03  0.12509000000E+03 0.  0.
<mgrwt>
<rscale>  2 0.46174894E+03</rscale>
<asrwt>0</asrwt>
<pdfrwt beam="1">  1       21 0.70063673E-01 0.46174894E+03</pdfrwt>
<pdfrwt beam="2">  1       21 0.16452849E-01 0.46174894E+03</pdfrwt>
<totfact> 0.56337524E+04</totfact>
</mgrwt>
</event>
<event>
 7    0  0.4831799E-002  0.4653795E+03  0.7546771E-02  0.1023232E+00
         21   -1    0    0  502  501  0.00000000000E+00  0.00000000000E+00  0.19006791953E+03  0.19006791953E+03  0.00000000000E+00 0. -1.
         21   -1    0    0  501  502 -0.00000000000E+00 -0.00000000000E+00 -0.28486934848E+03  0.28486934848E+03  0.00000000000E+00 0. -1.
      99926    2    1    2    0    0 -0.71054273576E-14  0.00000000000E+00 -0.94801428949E+02  0.47493726801E+03  0.46537951998E+03 0.  0.
      99925    2    3    3    0    0  0.45520825017E+02 -0.58433700514E+02 -0.15878575812E+03  0.31610356458E+03  0.26310055814E+03 0.  0.
         25    1    4    4    0    0 -0.57227551133E+01 -0.14794438782E+02 -0.10544247341E+03  0.16436924482E+03  0.12509000000E+03 0.  0.
         25    1    3    3    0    0 -0.45520825017E+02  0.58433700514E+02  0.63984329170E+02  0.15883370343E+03  0.12509000000E+03 0.  0.
         25    1    4    4    0    0  0.51243580130E+02 -0.43639261732E+02 -0.53343284708E+02  0.15173431976E+03  0.12509000000E+03 0.  0.
<mgrwt>
<rscale>  2 0.46537952E+03</rscale>
<asrwt>0</asrwt>
<pdfrwt beam="1">  1       21 0.27951165E-01 0.46537952E+03</pdfrwt>
<pdfrwt beam="2">  1       21 0.41892551E-01 0.46537952E+03</pdfrwt>
<totfact> 0.61818731E+04</totfact>
</mgrwt>
</event>
<event>
 7    0  0.4831799E-002  0.4312021E+03  0.7546771E-02  0.1033481E+00
         21   -1    0    0  502  501  0.00000000000E+00  0.00000000000E+00  0.45746065778E+02  0.45746065778E+02  0.00000000000E+00 0.  1.
         21   -1    0    0  501  502 -0.00000000000E+00 -0.00000000000E+00 -0.10161268412E+04  0.10161268412E+04  0.00000000000E+00 0.  1.
      99926    2    1    2    0    0  0.00000000000E+00  0.00000000000E+00 -0.97038077547E+03  0.10618729070E+04  0.43120206548E+03 0.  0.
      99925    2    3    3    0    0  0.60928591193E+02 -0.62880165072E+02 -0.66416939605E+03  0.71970463648E+03  0.26303529940E+03 0.  0.
         25    1    3    3    0    0 -0.60928591193E+02  0.62880165072E+02 -0.30621137941E+03  0.34216827054E+03  0.12509000000E+03 0.  0.
         25    1    4    4    0    0 -0.53150605454E+01 -0.41050813363E+02 -0.36411496192E+03  0.38722168424E+03  0.12509000000E+03 0.  0.
         25    1    4    4    0    0  0.66243651738E+02 -0.21829351709E+02 -0.30005443413E+03  0.33248295224E+03  0.12509000000E+03 0.  0.
<mgrwt>
<rscale>  2 0.43120207E+03</rscale>
<asrwt>0</asrwt>
<pdfrwt beam="1">  1       21 0.67273617E-02 0.43120207E+03</pdfrwt>
<pdfrwt beam="2">  1       21 0.14943044E+00 0.43120207E+03</pdfrwt>
<totfact> 0.44563580E+04</totfact>
</mgrwt>
</event>
<event>
 7    0  0.4831799E-002  0.4531226E+03  0.7546771E-02  0.1026795E+00
         21   -1    0    0  502  501  0.00000000000E+00  0.00000000000E+00  0.11401115147E+04  0.11401115147E+04  0.00000000000E+00 0.  1.
         21   -1    0    0  501  502 -0.00000000000E+00 -0.00000000000E+00 -0.45021940947E+02  0.45021940947E+02  0.00000000000E+00 0.  1.
      99926    2    1    2    0    0  0.71054273576E-14  0.71054273576E-14  0.10950895737E+04  0.11851334556E+04  0.45312264692E+03 0.  0.
      99925    2    3    3    0    0 -0.51179433857E+02 -0.35401928466E+02  0.44898556803E+03  0.52409599431E+03  0.26308922433E+03 0.  0.
         25    1    3    3    0    0  0.51179433857E+02  0.35401928466E+02  0.64610400570E+03  0.66103746132E+03  0.12509000000E+03 0.  0.
         25    1    4    4    0    0 -0.47178553469E+02  0.21486158435E+01  0.17217961459E+03  0.21799945009E+03  0.12509000000E+03 0.  0.
         25    1    4    4    0    0 -0.40008803877E+01 -0.37550544310E+02  0.27680595344E+03  0.30609654422E+03  0.12509000000E+03 0.  0.
<mgrwt>
<rscale>  2 0.45312265E+03</rscale>
<asrwt>0</asrwt>
<pdfrwt beam="1">  1       21 0.16766344E+00 0.45312265E+03</pdfrwt>
<pdfrwt beam="2">  1       21 0.66208744E-02 0.45312265E+03</pdfrwt>
<totfact> 0.33112396E+04</totfact>
</mgrwt>
</event>
<event>
 7    0  0.4831799E-002  0.4556547E+03  0.7546771E-02  0.1026049E+00
         21   -1    0    0  502  501  0.00000000000E+00  0.00000000000E+00  0.49592916189E+03  0.49592916189E+03  0.00000000000E+00 0.  1.
         21   -1    0    0  501  502 -0.00000000000E+00 -0.00000000000E+00 -0.10466270996E+03  0.10466270996E+03  0.00000000000E+00 0.  1.
      99926    2    1    2    0    0  0.00000000000E+00  0.00000000000E+00  0.39126645193E+03  0.60059187185E+03  0.45565465007E+03 0.  0.
      99925    2    3    3    0    0  0.10994066633E+03 -0.25038403139E+02  0.22597811070E+03  0.36462234926E+03  0.26300091126E+03 0.  0.
         25    1    3    3    0    0 -0.10994066633E+03  0.25038403139E+02  0.16528834123E+03  0.23596952259E+03  0.12509000000E+03 0.  0.
         25    1    4    4    0    0  0.50692005993E+02 -0.52550248915E+02  0.12114267902E+03  0.18882336961E+03  0.12509000000E+03 0.  0.
         25    1    4    4    0    0  0.59248660337E+02  0.27511845776E+02  0.10483543169E+03  0.17579897965E+03  0.12509000000E+03 0.  0.
<mgrwt>
<rscale>  2 0.45565465E+03</rscale>
<asrwt>0</asrwt>
<pdfrwt beam="1">  1       21 0.72930758E-01 0.45565465E+03</pdfrwt>
<pdfrwt beam="2">  1       21 0.15391575E-01 0.45565465E+03</pdfrwt>
<totfact> 0.58339505E+04</totfact>
</mgrwt>
</event>
<event>
 7    0  0.4831799E-002  0.4519559E+03  0.7546771E-02  0.1027140E+00
         21   -1    0    0  502  501  0.00000000000E+00  0.00000000000E+00  0.53549198529E+03  0.53549198529E+03  0.00000000000E+00 0. -1.
         21   -1    0    0  501  502 -0.00000000000E+00 -0.00000000000E+00 -0.95362840064E+02  0.95362840064E+02  0.00000000000E+00 0. -1.
      99926    2    1    2    0    0 -0.71054273576E-14  0.00000000000E+00  0.44012914523E+03  0.63085482536E+03  0.45195591178E+03 0.  0.
      99925    2    3    3    0    0  0.50366521380E+02  0.97423222717E+02  0.28605344465E+03  0.40410628532E+03  0.26352845357E+03 0.  0.
         25    1    4    4    0    0 -0.63390732489E+00  0.43030512607E+02  0.18256081978E+03  0.22545063289E+03  0.12509000000E+03 0.  0.
         25    1    3    3    0    0 -0.50366521380E+02 -0.97423222717E+02  0.15407570058E+03  0.22674854004E+03  0.12509000000E+03 0.  0.
         25    1    4    4    0    0  0.51000428705E+02  0.54392710110E+02  0.10349262487E+03  0.17865565242E+03  0.12509000000E+03 0.  0.
<mgrwt>
<rscale>  2 0.45195591E+03</rscale>
<asrwt>0</asrwt>
<pdfrwt beam="1">  1       21 0.78748820E-01 0.45195591E+03</pdfrwt>
<pdfrwt beam="2">  1       21 0.14023947E-01 0.45195591E+03</pdfrwt>
<totfact> 0.58204185E+04</totfact>
</mgrwt>
</event>
<event>
 6    0  0.4831799E-002  0.4541778E+03  0.7546771E-02  0.1026483E+00
         21   -1    0    0  502  501  0.00000000000E+00  0.00000000000E+00  0.75620957667E+02  0.75620957667E+02  0.00000000000E+00 0. -1.
         21   -1    0    0  501  502 -0.00000000000E+00 -0.00000000000E+00 -0.68194535262E+03  0.68194535262E+03  0.00000000000E+00 0. -1.
      99926    2    1    2    0    0 -0.88817841970E-15  0.00000000000E+00 -0.60632439495E+03  0.75756631029E+03  0.45417776538E+03 0.  0.
         25    1    3    3    0    0  0.69909808432E+01 -0.11044513408E+03 -0.17996902205E+03  0.24552669601E+03  0.12509000000E+03 0.  0.
         25    1    3    3    0    0  0.28276266162E+02  0.75072820668E+02 -0.23460292564E+03  0.27770760964E+03  0.12509000000E+03 0.  0.
         25    1    3    3    0    0 -0.35267247005E+02  0.35372313414E+02 -0.19175244726E+03  0.23433200464E+03  0.12509000000E+03 0.  0.
<mgrwt>
<rscale>  2 0.45417777E+03</rscale>
<asrwt>0</asrwt>
<pdfrwt beam="1">  1       21 0.11120730E-01 0.45417777E+03</pdfrwt>
<pdfrwt beam="2">  1       21 0.10028608E+00 0.45417777E+03</pdfrwt>
<totfact> 0.50208488E+04</totfact>
</mgrwt>
</event>
<event>
 7    0  0.4831799E-002  0.4596646E+03  0.7546771E-02  0.1024879E+00
         21   -1    0    0  502  501  0.00000000000E+00  0.00000000000E+00  0.76536373093E+03  0.76536373093E+03  0.00000000000E+00 0.  1.
         21   -1    0    0  501  502 -0.00000000000E+00 -0.00000000000E+00 -0.69016708217E+02  0.69016708217E+02  0.00000000000E+00 0.  1.
      99926    2    1    2    0    0  0.71054273576E-14 -0.35527136788E-14  0.69634702271E+03  0.83438043914E+03  0.45966459641E+03 0.  0.
      99925    2    3    3    0    0  0.59747334614E+02 -0.25731971670E+02  0.25869105866E+03  0.37457381747E+03  0.26296882429E+03 0.  0.
         25    1    4    4    0    0  0.70474631231E+02 -0.20832526018E+02  0.14525812944E+03  0.20530002449E+03  0.12509000000E+03 0.  0.
         25    1    4    4    0    0 -0.10727296617E+02 -0.48994456525E+01  0.11343292921E+03  0.16927379298E+03  0.12509000000E+03 0.  0.
         25    1    3    3    0    0 -0.59747334614E+02  0.25731971670E+02  0.43765596405E+03  0.45980662167E+03  0.12509000000E+03 0.  0.
<mgrwt>
<rscale>  2 0.45966460E+03</rscale>
<asrwt>0</asrwt>
<pdfrwt beam="1">  1       21 0.11255348E+00 0.45966460E+03</pdfrwt>
<pdfrwt beam="2">  1       21 0.10149516E-01 0.45966460E+03</pdfrwt>
<totfact> 0.44495468E+04</totfact>
</mgrwt>
</event>
<event>
 7    0  0.4831799E-002  0.4509522E+03  0.7546771E-02  0.1027438E+00
         21   -1    0    0  502  501  0.00000000000E+00  0.00000000000E+00  0.19154608385E+03  0.19154608385E+03  0.00000000000E+00 0. -1.
         21   -1    0    0  501  502 -0.00000000000E+00 -0.00000000000E+00 -0.26541636636E+03  0.26541636636E+03  0.00000000000E+00 0. -1.
      99926    2    1    2    0    0  0.14210854715E-13  0.00000000000E+00 -0.73870282505E+02  0.45696245021E+03  0.45095217292E+03 0.  0.
      99925    2    3    3    0    0 -0.97558176403E+02  0.25861179528E+02 -0.40460616141E+01  0.28172167780E+03  0.26299113053E+03 0.  0.
         25    1    4    4    0    0 -0.82350911927E+02  0.27335570826E+02  0.19626464556E+02  0.15349792291E+03  0.12509000000E+03 0.  0.
         25    1    4    4    0    0 -0.15207264475E+02 -0.14743912977E+01 -0.23672526171E+02  0.12822375489E+03  0.12509000000E+03 0.  0.
         25    1    3    3    0    0  0.97558176403E+02 -0.25861179528E+02 -0.69824220891E+02  0.17524077240E+03  0.12509000000E+03 0.  0.
<mgrwt>
<rscale>  2 0.45095217E+03</rscale>
<asrwt>0</asrwt>
<pdfrwt beam="1">  1       21 0.28168542E-01 0.45095217E+03</pdfrwt>
<pdfrwt beam="2">  1       21 0.39031818E-01 0.45095217E+03</pdfrwt>
<totfact> 0.70655771E+04</totfact>
</mgrwt>
</event>
<event>
 7    0  0.4831799E-002  0.4573552E+03  0.7546771E-02  0.1025551E+00
         21   -1    0    0  502  501  0.00000000000E+00  0.00000000000E+00  0.77798633769E+03  0.77798633769E+03  0.00000000000E+00 0. -1.
         21   -1    0    0  501  502 -0.00000000000E+00 -0.00000000000E+00 -0.67216394122E+02  0.67216394122E+02  0.00000000000E+00 0. -1.
      99926    2    1    2    0    0  0.00000000000E+00  0.00000000000E+00  0.71076994357E+03  0.84520273181E+03  0.45735516306E+03 0.  0.
      99925    2    3    3    0    0  0.91657458546E+02  0.34735139820E+02  0.55906532767E+03  0.62549970901E+03  0.26284639186E+03 0.  0.
         25    1    4    4    0    0  0.22429950738E+02 -0.12407789722E+02  0.29676623793E+03  0.32307083436E+03  0.12509000000E+03 0.  0.
         25    1    4    4    0    0  0.69227507808E+02  0.47142929542E+02  0.26229908974E+03  0.30242887465E+03  0.12509000000E+03 0.  0.
         25    1    3    3    0    0 -0.91657458546E+02 -0.34735139820E+02  0.15170461590E+03  0.21970302280E+03  0.12509000000E+03 0.  0.
<mgrwt>
<rscale>  2 0.45735516E+03</rscale>
<asrwt>0</asrwt>
<pdfrwt beam="1">  1       21 0.11440975E+00 0.45735516E+03</pdfrwt>
<pdfrwt beam="2">  1       21 0.98847643E-02 0.45735516E+03</pdfrwt>
<totfact> 0.44820867E+04</totfact>
</mgrwt>
</event>
<event>
 7    0  0.4831799E-002  0.4483939E+03  0.7546771E-02  0.1028202E+00
         21   -1    0    0  502  501  0.00000000000E+00  0.00000000000E+00  0.15979616317E+03  0.15979616317E+03  0.00000000000E+00 0. -1.
         21   -1    0    0  501  502 -0.00000000000E+00 -0.00000000000E+00 -0.31455242466E+03  0.31455242466E+03  0.00000000000E+00 0. -1.
      99926    2    1    2    0    0  0.14210854715E-13  0.00000000000E+00 -0.15475626150E+03  0.47434858783E+03  0.44839389191E+03 0.  0.
      99925    2    3    3    0    0  0.96094144588E+02 -0.87231404813E+01 -0.14658516712E+03  0.31615739753E+03  0.26297929765E+03 0.  0.
         25    1    3    3    0    0 -0.96094144588E+02  0.87231404813E+01 -0.81710943801E+01  0.15819119030E+03  0.12509000000E+03 0.  0.
         25    1    4    4    0    0  0.75055815134E+02  0.60213338404E+01 -0.11154199270E+03  0.18373556020E+03  0.12509000000E+03 0.  0.
         25    1    4    4    0    0  0.21038329454E+02 -0.14744474322E+02 -0.35043174415E+02  0.13242183733E+03  0.12509000000E+03 0.  0.
<mgrwt>
<rscale>  2 0.44839389E+03</rscale>
<asrwt>0</asrwt>
<pdfrwt beam="1">  1       21 0.23499436E-01 0.44839389E+03</pdfrwt>
<pdfrwt beam="2">  1       21 0.46257708E-01 0.44839389E+03</pdfrwt>
<totfact> 0.70751336E+04</totfact>
</mgrwt>
</event>
<event>
 7    0  0.4831799E-002  0.4522667E+03  0.7546771E-02  0.1027048E+00
         21   -1    0    0  502  501  0.00000000000E+00  0.00000000000E+00  0.16217331311E+03  0.16217331311E+03  0.00000000000E+00 0. -1.
         21   -1    0    0  501  502 -0.00000000000E+00 -0.00000000000E+00 -0.31531878030E+03  0.31531878030E+03  0.00000000000E+00 0. -1.
      99926    2    1    2    0    0  0.35527136788E-14  0.00000000000E+00 -0.15314546719E+03  0.47749209342E+03  0.45226669693E+03 0.  0.
      99925    2    3    3    0    0 -0.28466051193E+02  0.96613030088E+02 -0.48446126597E+02  0.28577914739E+03  0.26301768048E+03 0.  0.
         25    1    4    4    0    0 -0.49037548452E+02  0.28437501598E+02 -0.16352049215E+02  0.13830499004E+03  0.12509000000E+03 0.  0.
         25    1    3    3    0    0  0.28466051193E+02 -0.96613030088E+02 -0.10469934059E+03  0.19171294603E+03  0.12509000000E+03 0.  0.
         25    1    4    4    0    0  0.20571497259E+02  0.68175528490E+02 -0.32094077382E+02  0.14747415735E+03  0.12509000000E+03 0.  0.
<mgrwt>
<rscale>  2 0.45226670E+03</rscale>
<asrwt>0</asrwt>
<pdfrwt beam="1">  1       21 0.23849017E-01 0.45226670E+03</pdfrwt>
<pdfrwt beam="2">  1       21 0.46370409E-01 0.45226670E+03</pdfrwt>
<totfact> 0.68354041E+04</totfact>
</mgrwt>
</event>
<event>
 7    0  0.4831799E-002  0.4206593E+03  0.7546771E-02  0.1036852E+00
         21   -1    0    0  502  501  0.00000000000E+00  0.00000000000E+00  0.12113134814E+03  0.12113134814E+03  0.00000000000E+00 0. -1.
         21   -1    0    0  501  502 -0.00000000000E+00 -0.00000000000E+00 -0.36521142181E+03  0.36521142181E+03  0.00000000000E+00 0. -1.
      99926    2    1    2    0    0  0.00000000000E+00 -0.14210854715E-13 -0.24408007367E+03  0.48634276994E+03  0.42065925345E+03 0.  0.
      99925    2    3    3    0    0 -0.34857387638E+02  0.68224901808E+02 -0.16057002907E+03  0.31754967071E+03  0.26303114727E+03 0.  0.
         25    1    4    4    0    0 -0.13864560508E+02  0.37986347529E+02 -0.33911695424E+02  0.13576707931E+03  0.12509000000E+03 0.  0.
         25    1    4    4    0    0 -0.20992827131E+02  0.30238554279E+02 -0.12665833364E+03  0.18178259140E+03  0.12509000000E+03 0.  0.
         25    1    3    3    0    0  0.34857387638E+02 -0.68224901808E+02 -0.83510044603E+02  0.16879309923E+03  0.12509000000E+03 0.  0.
<mgrwt>
<rscale>  2 0.42065925E+03</rscale>
<asrwt>0</asrwt>
<pdfrwt beam="1">  1       21 0.17813434E-01 0.42065925E+03</pdfrwt>
<pdfrwt beam="2">  1       21 0.53707562E-01 0.42065925E+03</pdfrwt>
<totfact> 0.87846558E+04</totfact>
</mgrwt>
</event>
<event>
 7    0  0.4831799E-002  0.4443910E+03  0.7546771E-02  0.1029408E+00
         21   -1    0    0  502  501  0.00000000000E+00  0.00000000000E+00  0.20087743442E+03  0.20087743442E+03  0.00000000000E+00 0. -1.
         21   -1    0    0  501  502 -0.00000000000E+00 -0.00000000000E+00 -0.24577592010E+03  0.24577592010E+03  0.00000000000E+00 0. -1.
      99926    2    1    2    0    0  0.22204460493E-15  0.00000000000E+00 -0.44898485685E+02  0.44665335452E+03  0.44439098223E+03 0.  0.
      99925    2    3    3    0    0 -0.16532635215E+01 -0.99765677725E+02 -0.23088462612E+01  0.28107162480E+03  0.26275464556E+03 0.  0.
         25    1    4    4    0    0 -0.27414115582E+02 -0.31126093453E+02  0.23313993881E+02  0.13383354526E+03  0.12509000000E+03 0.  0.
         25    1    3    3    0    0  0.16532635215E+01  0.99765677725E+02 -0.42589639424E+02  0.16558172972E+03  0.12509000000E+03 0.  0.
         25    1    4    4    0    0  0.25760852061E+02 -0.68639584272E+02 -0.25622840142E+02  0.14723807953E+03  0.12509000000E+03 0.  0.
<mgrwt>
<rscale>  2 0.44439098E+03</rscale>
<asrwt>0</asrwt>
<pdfrwt beam="1">  1       21 0.29540800E-01 0.44439098E+03</pdfrwt>
<pdfrwt beam="2">  1       21 0.36143517E-01 0.44439098E+03</pdfrwt>
<totfact> 0.75339585E+04</totfact>
</mgrwt>
</event>
<event>
 7    0  0.4831799E-002  0.4153614E+03  0.7546771E-02  0.1038587E+00
         21   -1    0    0  502  501  0.00000000000E+00  0.00000000000E+00  0.58827960501E+02  0.58827960501E+02  0.00000000000E+00 0. -1.
         21   -1    0    0  501  502 -0.00000000000E+00 -0.00000000000E+00 -0.73317647016E+03  0.73317647016E+03  0.00000000000E+00 0. -1.
      99926    2    1    2    0    0 -0.14210854715E-13 -0.88817841970E-15 -0.67434850966E+03  0.79200443066E+03  0.41536141577E+03 0.  0.
      99925    2    3    3    0    0 -0.69201944434E+02  0.30391040937E+01 -0.45830876501E+03  0.53293142042E+03  0.26300347815E+03 0.  0.
         25    1    4    4    0    0 -0.17445751456E+02 -0.31346371006E+02 -0.18763142110E+03  0.22834186542E+03  0.12509000000E+03 0.  0.
         25    1    4    4    0    0 -0.51756192979E+02  0.34385475099E+02 -0.27067734391E+03  0.30458955500E+03  0.12509000000E+03 0.  0.
         25    1    3    3    0    0  0.69201944434E+02 -0.30391040937E+01 -0.21603974465E+03  0.25907301024E+03  0.12509000000E+03 0.  0.
<mgrwt>
<rscale>  2 0.41536142E+03</rscale>
<asrwt>0</asrwt>
<pdfrwt beam="1">  1       21 0.86511710E-02 0.41536142E+03</pdfrwt>
<pdfrwt beam="2">  1       21 0.10782006E+00 0.41536142E+03</pdfrwt>
<totfact> 0.66571225E+04</totfact>
</mgrwt>
</event>
<event>
 7    0  0.4831799E-002  0.4455535E+03  0.7546771E-02  0.1029056E+00
         21   -1    0    0  502  501  0.00000000000E+00  0.00000000000E+00  0.86644768322E+03  0.86644768322E+03  0.00000000000E+00 0.  1.
         21   -1    0    0  501  502 -0.00000000000E+00 -0.00000000000E+00 -0.57279255260E+02  0.57279255260E+02  0.00000000000E+00 0.  1.
      99926    2    1    2    0    0  0.00000000000E+00  0.14210854715E-13  0.80916842796E+03  0.92372693848E+03  0.44555348957E+03 0.  0.
      99925    2    3    3    0    0 -0.57678858042E+02  0.86498772397E+02  0.51641338127E+03  0.58882111029E+03  0.26309433913E+03 0.  0.
         25    1    4    4    0    0  0.92328788133E+01  0.25253036001E+02  0.25008000569E+03  0.28091009100E+03  0.12509000000E+03 0.  0.
         25    1    4    4    0    0 -0.66911736855E+02  0.61245736396E+02  0.26633337558E+03  0.30791101929E+03  0.12509000000E+03 0.  0.
         25    1    3    3    0    0  0.57678858042E+02 -0.86498772397E+02  0.29275504669E+03  0.33490582819E+03  0.12509000000E+03 0.  0.
<mgrwt>
<rscale>  2 0.44555349E+03</rscale>
<asrwt>0</asrwt>
<pdfrwt beam="1">  1       21 0.12741877E+00 0.44555349E+03</pdfrwt>
<pdfrwt beam="2">  1       21 0.84234204E-02 0.44555349E+03</pdfrwt>
<totfact> 0.45493063E+04</totfact>
</mgrwt>
</event>
<event>
 7    0  0.4831799E-002  0.4555073E+03  0.7546771E-02  0.1026092E+00
         21   -1    0    0  502  501  0.00000000000E+00  0.00000000000E+00  0.48193437832E+03  0.48193437832E+03  0.00000000000E+00 0. -1.
         21   -1    0    0  501  502 -0.00000000000E+00 -0.00000000000E+00 -0.10763235672E+03  0.10763235672E+03  0.00000000000E+00 0. -1.
      99926    2    1    2    0    0  0.22204460493E-15  0.00000000000E+00  0.37430202160E+03  0.58956673504E+03  0.45550733440E+03 0.  0.
      99925    2    3    3    0    0  0.15422186470E+01  0.51468926677E+01  0.38243530711E+03  0.46409750624E+03  0.26287042860E+03 0.  0.
         25    1    4    4    0    0 -0.25241394591E+02  0.93735792154E+01  0.24428473846E+03  0.27576717269E+03  0.12509000000E+03 0.  0.
         25    1    3    3    0    0 -0.15422186470E+01 -0.51468926677E+01 -0.81332855102E+01  0.12546922880E+03  0.12509000000E+03 0.  0.
         25    1    4    4    0    0  0.26783613238E+02 -0.42266865477E+01  0.13815056864E+03  0.18833033355E+03  0.12509000000E+03 0.  0.
<mgrwt>
<rscale>  2 0.45550733E+03</rscale>
<asrwt>0</asrwt>
<pdfrwt beam="1">  1       21 0.70872702E-01 0.45550733E+03</pdfrwt>
<pdfrwt beam="2">  1       21 0.15828288E-01 0.45550733E+03</pdfrwt>
<totfact> 0.59087814E+04</totfact>
</mgrwt>
</event>
<event>
 7    0  0.4831799E-002  0.4689326E+03  0.7546771E-02  0.1022222E+00
         21   -1    0    0  502  501  0.00000000000E+00  0.00000000000E+00  0.87341870054E+03  0.87341870054E+03  0.00000000000E+00 0.  1.
         21   -1    0    0  501  502 -0.00000000000E+00 -0.00000000000E+00 -0.62941697351E+02  0.62941697351E+02  0.00000000000E+00 0.  1.
      99926    2    1    2    0    0  0.00000000000E+00  0.00000000000E+00  0.81047700319E+03  0.93636039789E+03  0.46893264126E+03 0.  0.
      99925    2    3    3    0    0  0.43630704685E+02  0.11676206841E+03  0.53800760023E+03  0.61166961782E+03  0.26296487304E+03 0.  0.
         25    1    3    3    0    0 -0.43630704685E+02 -0.11676206841E+03  0.27246940296E+03  0.32469078007E+03  0.12509000000E+03 0.  0.
         25    1    4    4    0    0  0.22028591349E+02  0.77285282274E+02  0.36004764335E+03  0.38953830013E+03  0.12509000000E+03 0.  0.
         25    1    4    4    0    0  0.21602113336E+02  0.39476786138E+02  0.17795995688E+03  0.22213131769E+03  0.12509000000E+03 0.  0.
<mgrwt>
<rscale>  2 0.46893264E+03</rscale>
<asrwt>0</asrwt>
<pdfrwt beam="1">  1       21 0.12844392E+00 0.46893264E+03</pdfrwt>
<pdfrwt beam="2">  1       21 0.92561325E-02 0.46893264E+03</pdfrwt>
<totfact> 0.37446167E+04</totfact>
</mgrwt>
</event>
<event>
 6    0  0.4831799E-002  0.4528954E+03  0.7546771E-02  0.1026862E+00
         21   -1    0    0  502  501  0.00000000000E+00  0.00000000000E+00  0.61056149229E+03  0.61056149229E+03  0.00000000000E+00 0.  1.
         21   -1    0    0  501  502 -0.00000000000E+00 -0.00000000000E+00 -0.83985910082E+02  0.83985910082E+02  0.00000000000E+00 0.  1.
      99926    2    1    2    0    0  0.00000000000E+00  0.00000000000E+00  0.52657558221E+03  0.69454740237E+03  0.45289540775E+03 0.  0.
         25    1    3    3    0    0 -0.37546194887E+02 -0.19240173593E+02  0.13731982965E+03  0.19048397503E+03  0.12509000000E+03 0.  0.
         25    1    3    3    0    0 -0.48766320959E+02  0.71077968969E+02  0.24461852350E+03  0.28795131858E+03  0.12509000000E+03 0.  0.
         25    1    3    3    0    0  0.86312515846E+02 -0.51837795376E+02  0.14463722906E+03  0.21611210876E+03  0.12509000000E+03 0.  0.
<mgrwt>
<rscale>  2 0.45289541E+03</rscale>
<asrwt>0</asrwt>
<pdfrwt beam="1">  1       21 0.89788453E-01 0.45289541E+03</pdfrwt>
<pdfrwt beam="2">  1       21 0.12350869E-01 0.45289541E+03</pdfrwt>
<totfact> 0.54090495E+04</totfact>
</mgrwt>
</event>
<event>
 7    0  0.4831799E-002  0.4677178E+03  0.7546771E-02  0.1022566E+00
         21   -1    0    0  502  501  0.00000000000E+00  0.00000000000E+00  0.11451371636E+03  0.11451371636E+03  0.00000000000E+00 0.  1.
         21   -1    0    0  501  502 -0.00000000000E+00 -0.00000000000E+00 -0.47758459378E+03  0.47758459378E+03  0.00000000000E+00 0.  1.
      99926    2    1    2    0    0  0.00000000000E+00 -0.14210854715E-13 -0.36307087741E+03  0.59209831014E+03  0.46771780685E+03 0.  0.
      99925    2    3    3    0    0  0.66561144056E+01  0.12314090785E+03 -0.25054733069E+03  0.38349091882E+03  0.26283708425E+03 0.  0.
         25    1    4    4    0    0 -0.43798392860E+01  0.21774701275E+02 -0.88806117984E+02  0.15500759755E+03  0.12509000000E+03 0.  0.
         25    1    4    4    0    0  0.11035953692E+02  0.10136620658E+03 -0.16174121271E+03  0.22848332127E+03  0.12509000000E+03 0.  0.
         25    1    3    3    0    0 -0.66561144056E+01 -0.12314090785E+03 -0.11252354672E+03  0.20860739132E+03  0.12509000000E+03 0.  0.
<mgrwt>
<rscale>  2 0.46771781E+03</rscale>
<asrwt>0</asrwt>
<pdfrwt beam="1">  1       21 0.16840252E-01 0.46771781E+03</pdfrwt>
<pdfrwt beam="2">  1       21 0.70233030E-01 0.46771781E+03</pdfrwt>
<totfact> 0.53575608E+04</totfact>
</mgrwt>
</event>
<event>
 7    0  0.4831799E-002  0.4603424E+03  0.7546771E-02  0.1024682E+00
         21   -1    0    0  502  501  0.00000000000E+00  0.00000000000E+00  0.36556831308E+03  0.36556831308E+03  0.00000000000E+00 0.  1.
         21   -1    0    0  501  502 -0.00000000000E+00 -0.00000000000E+00 -0.14492167315E+03  0.14492167315E+03  0.00000000000E+00 0.  1.
      99926    2    1    2    0    0  0.00000000000E+00  0.00000000000E+00  0.22064663993E+03  0.51048998623E+03  0.46034235774E+03 0.  0.
      99925    2    3    3    0    0 -0.52492055387E+02  0.94821621274E+02  0.86000494500E+02  0.29712727084E+03  0.26294861529E+03 0.  0.
         25    1    4    4    0    0  0.11813191198E+02  0.28376553032E+02  0.36409735426E+02  0.13385797392E+03  0.12509000000E+03 0.  0.
         25    1    3    3    0    0  0.52492055387E+02 -0.94821621274E+02  0.13464614543E+03  0.21336271539E+03  0.12509000000E+03 0.  0.
         25    1    4    4    0    0 -0.64305246585E+02  0.66445068242E+02  0.49590759075E+02  0.16326929692E+03  0.12509000000E+03 0.  0.
<mgrwt>
<rscale>  2 0.46034236E+03</rscale>
<asrwt>0</asrwt>
<pdfrwt beam="1">  1       21 0.53760046E-01 0.46034236E+03</pdfrwt>
<pdfrwt beam="2">  1       21 0.21312011E-01 0.46034236E+03</pdfrwt>
<totfact> 0.61874342E+04</totfact>
</mgrwt>
</event>
<event>
 7    0  0.4831799E-002  0.4672531E+03  0.7546771E-02  0.1022698E+00
         21   -1    0    0  502  501  0.00000000000E+00  0.00000000000E+00  0.52725788714E+03  0.52725788714E+03  0.00000000000E+00 0.  1.
         21   -1    0    0  501  502 -0.00000000000E+00 -0.00000000000E+00 -0.10351931550E+03  0.10351931550E+03  0.00000000000E+00 0.  1.
      99926    2    1    2    0    0  0.00000000000E+00  0.00000000000E+00  0.42373857164E+03  0.63077720263E+03  0.46725314581E+03 0.  0.
      99925    2    3    3    0    0 -0.61708954481E+02 -0.91145036523E+02  0.18593903378E+03  0.34041270575E+03  0.26304386176E+03 0.  0.
         25    1    4    4    0    0 -0.45973869969E+02 -0.24295060635E+02  0.53264310406E+02  0.14556250051E+03  0.12509000000E+03 0.  0.
         25    1    4    4    0    0 -0.15735084513E+02 -0.66849975887E+02  0.13267472337E+03  0.19485020524E+03  0.12509000000E+03 0.  0.
         25    1    3    3    0    0  0.61708954481E+02  0.91145036523E+02  0.23779953786E+03  0.29036449689E+03  0.12509000000E+03 0.  0.
<mgrwt>
<rscale>  2 0.46725315E+03</rscale>
<asrwt>0</asrwt>
<pdfrwt beam="1">  1       21 0.77537923E-01 0.46725315E+03</pdfrwt>
<pdfrwt beam="2">  1       21 0.15223429E-01 0.46725315E+03</pdfrwt>
<totfact> 0.51642890E+04</totfact>
</mgrwt>
</event>
<event>
 7    0  0.4831799E-002  0.4584540E+03  0.7546771E-02  0.1025231E+00
         21   -1    0    0  502  501  0.00000000000E+00  0.00000000000E+00  0.17282327919E+03  0.17282327919E+03  0.00000000000E+00 0. -1.
         21   -1    0    0  501  502 -0.00000000000E+00 -0.00000000000E+00 -0.30403894332E+03  0.30403894332E+03  0.00000000000E+00 0. -1.
      99926    2    1    2    0    0  0.00000000000E+00  0.00000000000E+00 -0.13121566413E+03  0.47686222252E+03  0.45845395489E+03 0.  0.
      99925    2    3    3    0    0 -0.34428390554E+02 -0.99920642890E+02 -0.13290246384E+03  0.31309469721E+03  0.26305089921E+03 0.  0.
         25    1    4    4    0    0  0.42131454531E+01 -0.20881228628E+02 -0.35438543980E+02  0.13174663109E+03  0.12509000000E+03 0.  0.
         25    1    4    4    0    0 -0.38641536007E+02 -0.79039414262E+02 -0.97463919861E+02  0.18134806612E+03  0.12509000000E+03 0.  0.
         25    1    3    3    0    0  0.34428390554E+02  0.99920642890E+02  0.16867997086E+01  0.16376752531E+03  0.12509000000E+03 0.  0.
<mgrwt>
<rscale>  2 0.45845395E+03</rscale>
<asrwt>0</asrwt>
<pdfrwt beam="1">  1       21 0.25415188E-01 0.45845395E+03</pdfrwt>
<pdfrwt beam="2">  1       21 0.44711609E-01 0.45845395E+03</pdfrwt>
<totfact> 0.65125768E+04</totfact>
</mgrwt>
</event>
<event>
 7    0  0.4831799E-002  0.4349681E+03  0.7546771E-02  0.1032302E+00
         21   -1    0    0  502  501  0.00000000000E+00  0.00000000000E+00  0.29072779375E+02  0.29072779375E+02  0.00000000000E+00 0.  1.
         21   -1    0    0  501  502 -0.00000000000E+00 -0.00000000000E+00 -0.16269275627E+04  0.16269275627E+04  0.00000000000E+00 0.  1.
      99926    2    1    2    0    0  0.00000000000E+00  0.00000000000E+00 -0.15978547833E+04  0.16560003420E+04  0.43496807280E+03 0.  0.
      99925    2    3    3    0    0 -0.66560472307E+02  0.28725871910E+02 -0.12474352698E+04  0.12769267136E+04  0.26304297663E+03 0.  0.
         25    1    3    3    0    0  0.66560472307E+02 -0.28725871910E+02 -0.35041951352E+03  0.37907362839E+03  0.12509000000E+03 0.  0.
         25    1    4    4    0    0 -0.54273179290E+02  0.26659061896E+01 -0.79586834545E+03  0.80746926656E+03  0.12509000000E+03 0.  0.
         25    1    4    4    0    0 -0.12287293017E+02  0.26059965720E+02 -0.45156692431E+03  0.46945744708E+03  0.12509000000E+03 0.  0.
<mgrwt>
<rscale>  2 0.43496807E+03</rscale>
<asrwt>0</asrwt>
<pdfrwt beam="1">  1       21 0.42754087E-02 0.43496807E+03</pdfrwt>
<pdfrwt beam="2">  1       21 0.23925406E+00 0.43496807E+03</pdfrwt>
<totfact> 0.23665933E+04</totfact>
</mgrwt>
</event>
<event>
 7    0  0.4831799E-002  0.4583579E+03  0.7546771E-02  0.1025259E+00
         21   -1    0    0  502  501  0.00000000000E+00  0.00000000000E+00  0.34677777746E+04  0.34677777746E+04  0.00000000000E+00 0.  1.
         21   -1    0    0  501  502 -0.00000000000E+00 -0.00000000000E+00 -0.15146005340E+02  0.15146005340E+02  0.00000000000E+00 0.  1.
      99926    2    1    2    0    0  0.00000000000E+00  0.00000000000E+00  0.34526317693E+04  0.34829237800E+04  0.45835785448E+03 0.  0.
      99925    2    3    3    0    0  0.41651018054E+02 -0.10809231983E+03  0.21005475050E+04  0.21201332154E+04  0.26314686691E+03 0.  0.
         25    1    4    4    0    0  0.49783834785E+02 -0.65633180027E+02  0.13166143209E+04  0.13251063816E+04  0.12509000000E+03 0.  0.
         25    1    3    3    0    0 -0.41651018054E+02  0.10809231983E+03  0.13520842643E+04  0.13627905645E+04  0.12509000000E+03 0.  0.
         25    1    4    4    0    0 -0.81328167309E+01 -0.42459139807E+02  0.78393318410E+03  0.79502683382E+03  0.12509000000E+03 0.  0.
<mgrwt>
<rscale>  2 0.45835785E+03</rscale>
<asrwt>0</asrwt>
<pdfrwt beam="1">  1       21 0.50996677E+00 0.45835785E+03</pdfrwt>
<pdfrwt beam="2">  1       21 0.22273561E-02 0.45835785E+03</pdfrwt>
<totfact> 0.12982907E+03</totfact>
</mgrwt>
</event>
<event>
 7    0  0.4831799E-002  0.4568720E+03  0.7546771E-02  0.1025692E+00
         21   -1    0    0  502  501  0.00000000000E+00  0.00000000000E+00  0.38141878748E+02  0.38141878748E+02  0.00000000000E+00 0.  1.
         21   -1    0    0  501  502 -0.00000000000E+00 -0.00000000000E+00 -0.13681290452E+04  0.13681290452E+04  0.00000000000E+00 0.  1.
      99926    2    1    2    0    0  0.35527136788E-14  0.00000000000E+00 -0.13299871665E+04  0.14062709240E+04  0.45687202652E+03 0.  0.
      99925    2    3    3    0    0  0.26634619871E+02  0.83787073264E+02 -0.10632340930E+04  0.10988064757E+04  0.26301950115E+03 0.  0.
         25    1    3    3    0    0 -0.26634619871E+02 -0.83787073264E+02 -0.26675307354E+03  0.30746444829E+03  0.12509000000E+03 0.  0.
         25    1    4    4    0    0 -0.17063231982E+02  0.50598156340E+02 -0.63142352703E+03  0.64590595747E+03  0.12509000000E+03 0.  0.
         25    1    4    4    0    0  0.43697851852E+02  0.33188916924E+02 -0.43181056593E+03  0.45290051822E+03  0.12509000000E+03 0.  0.
<mgrwt>
<rscale>  2 0.45687203E+03</rscale>
<asrwt>0</asrwt>
<pdfrwt beam="1">  1       21 0.56091009E-02 0.45687203E+03</pdfrwt>
<pdfrwt beam="2">  1       21 0.20119541E+00 0.45687203E+03</pdfrwt>
<totfact> 0.25788181E+04</totfact>
</mgrwt>
</event>
<event>
 7    0  0.4831799E-002  0.4622590E+03  0.7546771E-02  0.1024128E+00
         21   -1    0    0  502  501  0.00000000000E+00  0.00000000000E+00  0.95277093173E+03  0.95277093173E+03  0.00000000000E+00 0. -1.
         21   -1    0    0  501  502 -0.00000000000E+00 -0.00000000000E+00 -0.56068931882E+02  0.56068931882E+02  0.00000000000E+00 0. -1.
      99926    2    1    2    0    0 -0.35527136788E-14  0.00000000000E+00  0.89670199985E+03  0.10088398636E+04  0.46225901168E+03 0.  0.
      99925    2    3    3    0    0 -0.25901863963E+02  0.11692105841E+03  0.56983513728E+03  0.63893326135E+03  0.26302507165E+03 0.  0.
         25    1    3    3    0    0  0.25901863963E+02 -0.11692105841E+03  0.32686686256E+03  0.36990660226E+03  0.12509000000E+03 0.  0.
         25    1    4    4    0    0  0.72566053976E+01  0.91359262030E+02  0.34521125728E+03  0.37844087165E+03  0.12509000000E+03 0.  0.
         25    1    4    4    0    0 -0.33158469361E+02  0.25561796376E+02  0.22462388001E+03  0.26049238970E+03  0.12509000000E+03 0.  0.
<mgrwt>
<rscale>  2 0.46225901E+03</rscale>
<asrwt>0</asrwt>
<pdfrwt beam="1">  1       21 0.14011336E+00 0.46225901E+03</pdfrwt>
<pdfrwt beam="2">  1       21 0.82454318E-02 0.46225901E+03</pdfrwt>
<totfact> 0.36699806E+04</totfact>
</mgrwt>
</event>
<event>
 7    0  0.4831799E-002  0.4547364E+03  0.7546771E-02  0.1026319E+00
         21   -1    0    0  502  501  0.00000000000E+00  0.00000000000E+00  0.12868624010E+03  0.12868624010E+03  0.00000000000E+00 0. -1.
         21   -1    0    0  501  502 -0.00000000000E+00 -0.00000000000E+00 -0.40172362217E+03  0.40172362217E+03  0.00000000000E+00 0. -1.
      99926    2    1    2    0    0  0.00000000000E+00 -0.14210854715E-13 -0.27303738206E+03  0.53040986227E+03  0.45473641815E+03 0.  0.
      99925    2    3    3    0    0 -0.54205568737E+02 -0.98826896330E+02 -0.16368586826E+03  0.32963570858E+03  0.26298600301E+03 0.  0.
         25    1    4    4    0    0 -0.22823974290E+02 -0.67434872707E+02 -0.42938657582E+02  0.15019864272E+03  0.12509000000E+03 0.  0.
         25    1    4    4    0    0 -0.31381594448E+02 -0.31392023622E+02 -0.12074721068E+03  0.17943706586E+03  0.12509000000E+03 0.  0.
         25    1    3    3    0    0  0.54205568737E+02  0.98826896330E+02 -0.10935151380E+03  0.20077415369E+03  0.12509000000E+03 0.  0.
<mgrwt>
<rscale>  2 0.45473642E+03</rscale>
<asrwt>0</asrwt>
<pdfrwt beam="1">  1       21 0.18924447E-01 0.45473642E+03</pdfrwt>
<pdfrwt beam="2">  1       21 0.59077003E-01 0.45473642E+03</pdfrwt>
<totfact> 0.63310947E+04</totfact>
</mgrwt>
</event>
<event>
 7    0  0.4831799E-002  0.4542566E+03  0.7546771E-02  0.1026460E+00
         21   -1    0    0  502  501  0.00000000000E+00  0.00000000000E+00  0.59698332561E+02  0.59698332561E+02  0.00000000000E+00 0.  1.
         21   -1    0    0  501  502 -0.00000000000E+00 -0.00000000000E+00 -0.86413251140E+03  0.86413251140E+03  0.00000000000E+00 0.  1.
      99926    2    1    2    0    0  0.00000000000E+00 -0.33306690739E-14 -0.80443417884E+03  0.92383084396E+03  0.45425662370E+03 0.  0.
      99925    2    3    3    0    0  0.56868982515E+02 -0.90752150155E+00 -0.30925760619E+03  0.40994150669E+03  0.26301495613E+03 0.  0.
         25    1    4    4    0    0  0.25608780764E+02 -0.28284502604E+02 -0.19884041699E+03  0.23799336602E+03  0.12509000000E+03 0.  0.
         25    1    4    4    0    0  0.31260201751E+02  0.27376981103E+02 -0.11041718920E+03  0.17194814067E+03  0.12509000000E+03 0.  0.
         25    1    3    3    0    0 -0.56868982515E+02  0.90752150155E+00 -0.49517657265E+03  0.51388933728E+03  0.12509000000E+03 0.  0.
<mgrwt>
<rscale>  2 0.45425662E+03</rscale>
<asrwt>0</asrwt>
<pdfrwt beam="1">  1       21 0.87791667E-02 0.45425662E+03</pdfrwt>
<pdfrwt beam="2">  1       21 0.12707831E+00 0.45425662E+03</pdfrwt>
<totfact> 0.42465489E+04</totfact>
</mgrwt>
</event>
<event>
 7    0  0.4831799E-002  0.4533257E+03  0.7546771E-02  0.1026735E+00
         21   -1    0    0  502  501  0.00000000000E+00  0.00000000000E+00  0.10527104486E+03  0.10527104486E+03  0.00000000000E+00 0.  1.
         21   -1    0    0  501  502 -0.00000000000E+00 -0.00000000000E+00 -0.48803594482E+03  0.48803594482E+03  0.00000000000E+00 0.  1.
      99926    2    1    2    0    0  0.00000000000E+00  0.00000000000E+00 -0.38276489995E+03  0.59330698968E+03  0.45332572767E+03 0.  0.
      99925    2    3    3    0    0 -0.66723687019E+02 -0.69757677937E+02 -0.31457686404E+03  0.42121602425E+03  0.26295655849E+03 0.  0.
         25    1    4    4    0    0 -0.32358287511E+02 -0.17613579887E+02 -0.96725850275E+02  0.16235977081E+03  0.12509000000E+03 0.  0.
         25    1    4    4    0    0 -0.34365399508E+02 -0.52144098050E+02 -0.21785101376E+03  0.25885625344E+03  0.12509000000E+03 0.  0.
         25    1    3    3    0    0  0.66723687019E+02  0.69757677937E+02 -0.68188035915E+02  0.17209096543E+03  0.12509000000E+03 0.  0.
<mgrwt>
<rscale>  2 0.45332573E+03</rscale>
<asrwt>0</asrwt>
<pdfrwt beam="1">  1       21 0.15481036E-01 0.45332573E+03</pdfrwt>
<pdfrwt beam="2">  1       21 0.71769991E-01 0.45332573E+03</pdfrwt>
<totfact> 0.59880514E+04</totfact>
</mgrwt>
</event>
<event>
 7    0  0.4831799E-002  0.4440962E+03  0.7546771E-02  0.1029497E+00
         21   -1    0    0  502  501  0.00000000000E+00  0.00000000000E+00  0.29158964661E+03  0.29158964661E+03  0.00000000000E+00 0. -1.
         21   -1    0    0  501  502 -0.00000000000E+00 -0.00000000000E+00 -0.16909161311E+03  0.16909161311E+03  0.00000000000E+00 0. -1.
      99926    2    1    2    0    0 -0.44408920985E-15  0.00000000000E+00  0.12249803351E+03  0.46068125972E+03  0.44409622251E+03 0.  0.
      99925    2    3    3    0    0 -0.27206467088E+01  0.15685836350E+02 -0.27255319804E+02  0.26490837521E+03  0.26302119196E+03 0.  0.
         25    1    4    4    0    0 -0.31150429997E+02 -0.14635741406E+02 -0.29601721141E+02  0.13307262758E+03  0.12509000000E+03 0.  0.
         25    1    4    4    0    0  0.28429783289E+02  0.30321577757E+02  0.23464013368E+01  0.13183574764E+03  0.12509000000E+03 0.  0.
         25    1    3    3    0    0  0.27206467088E+01 -0.15685836350E+02  0.14975335331E+03  0.19577288451E+03  0.12509000000E+03 0.  0.
<mgrwt>
<rscale>  2 0.44409622E+03</rscale>
<asrwt>0</asrwt>
<pdfrwt beam="1">  1       21 0.42880830E-01 0.44409622E+03</pdfrwt>
<pdfrwt beam="2">  1       21 0.24866414E-01 0.44409622E+03</pdfrwt>
<totfact> 0.74362071E+04</totfact>
</mgrwt>
</event>
<event>
 7    0  0.4831799E-002  0.4457157E+03  0.7546771E-02  0.1029007E+00
         21   -1    0    0  502  501  0.00000000000E+00  0.00000000000E+00  0.28407149864E+03  0.28407149864E+03  0.00000000000E+00 0.  1.
         21   -1    0    0  501  502 -0.00000000000E+00 -0.00000000000E+00 -0.17483496628E+03  0.17483496628E+03  0.00000000000E+00 0.  1.
      99926    2    1    2    0    0  0.00000000000E+00  0.00000000000E+00  0.10923653236E+03  0.45890646492E+03  0.44571574298E+03 0.  0.
      99925    2    3    3    0    0 -0.49438235478E+02 -0.36842906555E+02  0.15590539297E+03  0.31184515273E+03  0.26294366095E+03 0.  0.
         25    1    3    3    0    0  0.49438235478E+02  0.36842906555E+02 -0.46668860609E+02  0.14706131218E+03  0.12509000000E+03 0.  0.
         25    1    4    4    0    0 -0.17687445752E+02  0.96442788025E+01  0.41806841376E+02  0.13342105507E+03  0.12509000000E+03 0.  0.
         25    1    4    4    0    0 -0.31750789726E+02 -0.46487185357E+02  0.11409855159E+03  0.17842409766E+03  0.12509000000E+03 0.  0.
<mgrwt>
<rscale>  2 0.44571574E+03</rscale>
<asrwt>0</asrwt>
<pdfrwt beam="1">  1       21 0.41775221E-01 0.44571574E+03</pdfrwt>
<pdfrwt beam="2">  1       21 0.25711024E-01 0.44571574E+03</pdfrwt>
<totfact> 0.73538133E+04</totfact>
</mgrwt>
</event>
<event>
 7    0  0.4831799E-002  0.4544380E+03  0.7546771E-02  0.1026407E+00
         21   -1    0    0  502  501  0.00000000000E+00  0.00000000000E+00  0.30317384957E+02  0.30317384957E+02  0.00000000000E+00 0.  1.
         21   -1    0    0  501  502 -0.00000000000E+00 -0.00000000000E+00 -0.17029328710E+04  0.17029328710E+04  0.00000000000E+00 0.  1.
      99926    2    1    2    0    0  0.00000000000E+00  0.14210854715E-13 -0.16726154860E+04  0.17332502559E+04  0.45443798875E+03 0.  0.
      99925    2    3    3    0    0  0.64655080147E+02  0.77390403016E+02 -0.12446137765E+04  0.12760823159E+04  0.26296971431E+03 0.  0.
         25    1    4    4    0    0  0.30572675474E+01  0.33663015618E+02 -0.71658871054E+03  0.72820974567E+03  0.12509000000E+03 0.  0.
         25    1    3    3    0    0 -0.64655080147E+02 -0.77390403016E+02 -0.42800170955E+03  0.45716793998E+03  0.12509000000E+03 0.  0.
         25    1    4    4    0    0  0.61597812599E+02  0.43727387399E+02 -0.52802506592E+03  0.54787257028E+03  0.12509000000E+03 0.  0.
<mgrwt>
<rscale>  2 0.45443799E+03</rscale>
<asrwt>0</asrwt>
<pdfrwt beam="1">  1       21 0.44584383E-02 0.45443799E+03</pdfrwt>
<pdfrwt beam="2">  1       21 0.25043134E+00 0.45443799E+03</pdfrwt>
<totfact> 0.18659298E+04</totfact>
</mgrwt>
</event>
<event>
 7    0  0.4831799E-002  0.4547799E+03  0.7546771E-02  0.1026306E+00
         21   -1    0    0  502  501  0.00000000000E+00  0.00000000000E+00  0.12064867032E+03  0.12064867032E+03  0.00000000000E+00 0.  1.
         21   -1    0    0  501  502 -0.00000000000E+00 -0.00000000000E+00 -0.42856831394E+03  0.42856831394E+03  0.00000000000E+00 0.  1.
      99926    2    1    2    0    0  0.00000000000E+00  0.00000000000E+00 -0.30791964362E+03  0.54921698426E+03  0.45477993455E+03 0.  0.
      99925    2    3    3    0    0  0.11070419627E+03  0.55209475891E+01 -0.16711983937E+03  0.33068096226E+03  0.26293527370E+03 0.  0.
         25    1    3    3    0    0 -0.11070419627E+03 -0.55209475891E+01 -0.14079980425E+03  0.21853602200E+03  0.12509000000E+03 0.  0.
         25    1    4    4    0    0  0.56549208850E+02  0.43211862765E+02 -0.84518554315E+02  0.16690108516E+03  0.12509000000E+03 0.  0.
         25    1    4    4    0    0  0.54154987418E+02 -0.37690915176E+02 -0.82601285054E+02  0.16377987710E+03  0.12509000000E+03 0.  0.
<mgrwt>
<rscale>  2 0.45477993E+03</rscale>
<asrwt>0</asrwt>
<pdfrwt beam="1">  1       21 0.17742452E-01 0.45477993E+03</pdfrwt>
<pdfrwt beam="2">  1       21 0.63024751E-01 0.45477993E+03</pdfrwt>
<totfact> 0.62026212E+04</totfact>
</mgrwt>
</event>
<event>
 7    0  0.4831799E-002  0.4543649E+03  0.7546771E-02  0.1026428E+00
         21   -1    0    0  502  501  0.00000000000E+00  0.00000000000E+00  0.74025320941E+03  0.74025320941E+03  0.00000000000E+00 0.  1.
         21   -1    0    0  501  502 -0.00000000000E+00 -0.00000000000E+00 -0.69721898439E+02  0.69721898439E+02  0.00000000000E+00 0.  1.
      99926    2    1    2    0    0 -0.71054273576E-14 -0.14210854715E-13  0.67053131097E+03  0.80997510785E+03  0.45436487138E+03 0.  0.
      99925    2    3    3    0    0  0.34654711996E+02 -0.10568646383E+03  0.45366186900E+03  0.53602175295E+03  0.26294419665E+03 0.  0.
         25    1    4    4    0    0  0.42035230770E+02 -0.88720503565E+02  0.25680958124E+03  0.30205456046E+03  0.12509000000E+03 0.  0.
         25    1    4    4    0    0 -0.73805187732E+01 -0.16965960261E+02  0.19685228776E+03  0.23396719249E+03  0.12509000000E+03 0.  0.
         25    1    3    3    0    0 -0.34654711996E+02  0.10568646383E+03  0.21686944197E+03  0.27395335490E+03  0.12509000000E+03 0.  0.
<mgrwt>
<rscale>  2 0.45436487E+03</rscale>
<asrwt>0</asrwt>
<pdfrwt beam="1">  1       21 0.10886076E+00 0.45436487E+03</pdfrwt>
<pdfrwt beam="2">  1       21 0.10253221E-01 0.45436487E+03</pdfrwt>
<totfact> 0.47522518E+04</totfact>
</mgrwt>
</event>
<event>
 7    0  0.4831799E-002  0.4325128E+03  0.7546771E-02  0.1033069E+00
         21   -1    0    0  502  501  0.00000000000E+00  0.00000000000E+00  0.71558606886E+03  0.71558606886E+03  0.00000000000E+00 0.  1.
         21   -1    0    0  501  502 -0.00000000000E+00 -0.00000000000E+00 -0.65354589968E+02  0.65354589968E+02  0.00000000000E+00 0.  1.
      99926    2    1    2    0    0  0.00000000000E+00 -0.14210854715E-13  0.65023147889E+03  0.78094065883E+03  0.43251281654E+03 0.  0.
      99925    2    3    3    0    0 -0.30845969808E+02  0.82407263756E+02  0.38044145521E+03  0.47081714158E+03  0.26304115455E+03 0.  0.
         25    1    4    4    0    0  0.13031004066E+02  0.55008417493E+02  0.23481024640E+03  0.27199097958E+03  0.12509000000E+03 0.  0.
         25    1    4    4    0    0 -0.43876973875E+02  0.27398846263E+02  0.14563120881E+03  0.19882616199E+03  0.12509000000E+03 0.  0.
         25    1    3    3    0    0  0.30845969808E+02 -0.82407263756E+02  0.26979002368E+03  0.31012351725E+03  0.12509000000E+03 0.  0.
<mgrwt>
<rscale>  2 0.43251282E+03</rscale>
<asrwt>0</asrwt>
<pdfrwt beam="1">  1       21 0.10523324E+00 0.43251282E+03</pdfrwt>
<pdfrwt beam="2">  1       21 0.96109695E-02 0.43251282E+03</pdfrwt>
<totfact> 0.58335937E+04</totfact>
</mgrwt>
</event>
<event>
 7    0  0.4831799E-002  0.4556885E+03  0.7546771E-02  0.1026039E+00
         21   -1    0    0  502  501  0.00000000000E+00  0.00000000000E+00  0.12610465427E+03  0.12610465427E+03  0.00000000000E+00 0. -1.
         21   -1    0    0  501  502 -0.00000000000E+00 -0.00000000000E+00 -0.41166605374E+03  0.41166605374E+03  0.00000000000E+00 0. -1.
      99926    2    1    2    0    0 -0.17763568394E-14 -0.71054273576E-14 -0.28556139946E+03  0.53777070801E+03  0.45568851372E+03 0.  0.
      99925    2    3    3    0    0  0.10669029494E+02  0.42055559055E+02 -0.30373171173E+03  0.40412877378E+03  0.26302968435E+03 0.  0.
         25    1    3    3    0    0 -0.10669029494E+02 -0.42055559055E+02  0.18170312264E+02  0.13364193423E+03  0.12509000000E+03 0.  0.
         25    1    4    4    0    0  0.17212427665E+01 -0.14129412816E+02 -0.11387536433E+03  0.16975779713E+03  0.12509000000E+03 0.  0.
         25    1    4    4    0    0  0.89477867272E+01  0.56184971871E+02 -0.18985634739E+03  0.23437097665E+03  0.12509000000E+03 0.  0.
<mgrwt>
<rscale>  2 0.45568851E+03</rscale>
<asrwt>0</asrwt>
<pdfrwt beam="1">  1       21 0.18544802E-01 0.45568851E+03</pdfrwt>
<pdfrwt beam="2">  1       21 0.60539125E-01 0.45568851E+03</pdfrwt>
<totfact> 0.62341535E+04</totfact>
</mgrwt>
</event>
<event>
 7    0  0.4831799E-002  0.4543765E+03  0.7546771E-02  0.1026425E+00
         21   -1    0    0  502  501  0.00000000000E+00  0.00000000000E+00  0.91440118917E+03  0.91440118917E+03  0.00000000000E+00 0.  1.
         21   -1    0    0  501  502 -0.00000000000E+00 -0.00000000000E+00 -0.56446230726E+02  0.56446230726E+02  0.00000000000E+00 0.  1.
      99926    2    1    2    0    0 -0.17763568394E-14  0.00000000000E+00  0.85795495844E+03  0.97084741990E+03  0.45437649807E+03 0.  0.
      99925    2    3    3    0    0 -0.10261947232E+02 -0.98050401527E+02  0.65630778361E+03  0.71388773431E+03  0.26301445124E+03 0.  0.
         25    1    4    4    0    0 -0.32266484110E+02 -0.80837106677E+02  0.33943897986E+03  0.37207807374E+03  0.12509000000E+03 0.  0.
         25    1    4    4    0    0  0.22004536878E+02 -0.17213294850E+02  0.31686880375E+03  0.34180966056E+03  0.12509000000E+03 0.  0.
         25    1    3    3    0    0  0.10261947232E+02  0.98050401527E+02  0.20164717483E+03  0.25695968559E+03  0.12509000000E+03 0.  0.
<mgrwt>
<rscale>  2 0.45437650E+03</rscale>
<asrwt>0</asrwt>
<pdfrwt beam="1">  1       21 0.13447075E+00 0.45437650E+03</pdfrwt>
<pdfrwt beam="2">  1       21 0.83009169E-02 0.45437650E+03</pdfrwt>
<totfact> 0.40505054E+04</totfact>
</mgrwt>
</event>
<event>
 7    0  0.4831799E-002  0.4603119E+03  0.7546771E-02  0.1024691E+00
         21   -1    0    0  502  501  0.00000000000E+00  0.00000000000E+00  0.47995629696E+03  0.47995629696E+03  0.00000000000E+00 0.  1.
         21   -1    0    0  501  502 -0.00000000000E+00 -0.00000000000E+00 -0.11036787476E+03  0.11036787476E+03  0.00000000000E+00 0.  1.
      99926    2    1    2    0    0  0.00000000000E+00 -0.88817841970E-15  0.36958842221E+03  0.59032417172E+03  0.46031187894E+03 0.  0.
      99925    2    3    3    0    0 -0.11413680875E+03  0.46786706056E+01  0.19307426474E+03  0.34567369256E+03  0.26298959856E+03 0.  0.
         25    1    4    4    0    0 -0.76370169386E+02  0.71008759896E+01  0.58155483005E+02  0.15783660385E+03  0.12509000000E+03 0.  0.
         25    1    3    3    0    0  0.11413680875E+03 -0.46786706056E+01  0.17651415747E+03  0.24465047917E+03  0.12509000000E+03 0.  0.
         25    1    4    4    0    0 -0.37766639366E+02 -0.24222053841E+01  0.13491878174E+03  0.18783708870E+03  0.12509000000E+03 0.  0.
<mgrwt>
<rscale>  2 0.46031188E+03</rscale>
<asrwt>0</asrwt>
<pdfrwt beam="1">  1       21 0.70581807E-01 0.46031188E+03</pdfrwt>
<pdfrwt beam="2">  1       21 0.16230570E-01 0.46031188E+03</pdfrwt>
<totfact> 0.56853097E+04</totfact>
</mgrwt>
</event>
<event>
 7    0  0.4831799E-002  0.4577469E+03  0.7546771E-02  0.1025437E+00
         21   -1    0    0  502  501  0.00000000000E+00  0.00000000000E+00  0.10812817183E+03  0.10812817183E+03  0.00000000000E+00 0.  1.
         21   -1    0    0  501  502 -0.00000000000E+00 -0.00000000000E+00 -0.48445334004E+03  0.48445334004E+03  0.00000000000E+00 0.  1.
      99926    2    1    2    0    0  0.14210854715E-13 -0.71054273576E-14 -0.37632516821E+03  0.59258151186E+03  0.45774689073E+03 0.  0.
      99925    2    3    3    0    0  0.10407621645E+03  0.42169360255E+02 -0.27249340850E+03  0.39499948788E+03  0.26298635702E+03 0.  0.
         25    1    4    4    0    0  0.66900462769E+02  0.35531844121E+02 -0.94201636599E+02  0.17395298303E+03  0.12509000000E+03 0.  0.
         25    1    3    3    0    0 -0.10407621645E+03 -0.42169360255E+02 -0.10383175971E+03  0.19758202398E+03  0.12509000000E+03 0.  0.
         25    1    4    4    0    0  0.37175753682E+02  0.66375161346E+01 -0.17829177190E+03  0.22104650486E+03  0.12509000000E+03 0.  0.
<mgrwt>
<rscale>  2 0.45774689E+03</rscale>
<asrwt>0</asrwt>
<pdfrwt beam="1">  1       21 0.15901202E-01 0.45774689E+03</pdfrwt>
<pdfrwt beam="2">  1       21 0.71243139E-01 0.45774689E+03</pdfrwt>
<totfact> 0.57870661E+04</totfact>
</mgrwt>
</event>
<event>
 7    0  0.4831799E-002  0.4715290E+03  0.7546771E-02  0.1021490E+00
         21   -1    0    0  502  501  0.00000000000E+00  0.00000000000E+00  0.25395207845E+03  0.25395207845E+03  0.00000000000E+00 0. -1.
         21   -1    0    0  501  502 -0.00000000000E+00 -0.00000000000E+00 -0.21887947458E+03  0.21887947458E+03  0.00000000000E+00 0. -1.
      99926    2    1    2    0    0  0.00000000000E+00 -0.71054273576E-14  0.35072603875E+02  0.47283155303E+03  0.47152899169E+03 0.  0.
      99925    2    3    3    0    0 -0.10927394926E+03  0.56387589907E+02  0.57594037134E+02  0.29598393688E+03  0.26300011691E+03 0.  0.
         25    1    4    4    0    0 -0.23488361685E+02  0.16655357435E+02  0.53692255805E+02  0.13913831428E+03  0.12509000000E+03 0.  0.
         25    1    4    4    0    0 -0.85785587578E+02  0.39732232471E+02  0.39017813288E+01  0.15684562261E+03  0.12509000000E+03 0.  0.
         25    1    3    3    0    0  0.10927394926E+03 -0.56387589907E+02 -0.22521433259E+02  0.17684761615E+03  0.12509000000E+03 0.  0.
<mgrwt>
<rscale>  2 0.47152899E+03</rscale>
<asrwt>0</asrwt>
<pdfrwt beam="1">  1       21 0.37345894E-01 0.47152899E+03</pdfrwt>
<pdfrwt beam="2">  1       21 0.32188158E-01 0.47152899E+03</pdfrwt>
<totfact> 0.59074974E+04</totfact>
</mgrwt>
</event>
<event>
 7    0  0.4831799E-002  0.4541301E+03  0.7546771E-02  0.1026498E+00
         21   -1    0    0  502  501  0.00000000000E+00  0.00000000000E+00  0.11135994535E+03  0.11135994535E+03  0.00000000000E+00 0.  1.
         21   -1    0    0  501  502 -0.00000000000E+00 -0.00000000000E+00 -0.46299004951E+03  0.46299004951E+03  0.00000000000E+00 0.  1.
      99926    2    1    2    0    0 -0.17763568394E-14  0.71054273576E-14 -0.35163010416E+03  0.57434999485E+03  0.45413014262E+03 0.  0.
      99925    2    3    3    0    0  0.15363086134E+02  0.60639439421E+02 -0.10367362904E+03  0.28966931816E+03  0.26314810753E+03 0.  0.
         25    1    3    3    0    0 -0.15363086134E+02 -0.60639439421E+02 -0.24795647512E+03  0.28468067669E+03  0.12509000000E+03 0.  0.
         25    1    4    4    0    0 -0.29384947340E+00  0.70690696858E+02 -0.47970337920E+02  0.15147911536E+03  0.12509000000E+03 0.  0.
         25    1    4    4    0    0  0.15656935607E+02 -0.10051257437E+02 -0.55703291124E+02  0.13819020280E+03  0.12509000000E+03 0.  0.
<mgrwt>
<rscale>  2 0.45413014E+03</rscale>
<asrwt>0</asrwt>
<pdfrwt beam="1">  1       21 0.16376463E-01 0.45413014E+03</pdfrwt>
<pdfrwt beam="2">  1       21 0.68086772E-01 0.45413014E+03</pdfrwt>
<totfact> 0.60701963E+04</totfact>
</mgrwt>
</event>
<event>
 7    0  0.4831799E-002  0.4477654E+03  0.7546771E-02  0.1028391E+00
         21   -1    0    0  502  501  0.00000000000E+00  0.00000000000E+00  0.59275675216E+03  0.59275675216E+03  0.00000000000E+00 0. -1.
         21   -1    0    0  501  502 -0.00000000000E+00 -0.00000000000E+00 -0.84559909244E+02  0.84559909244E+02  0.00000000000E+00 0. -1.
      99926    2    1    2    0    0  0.00000000000E+00  0.00000000000E+00  0.50819684292E+03  0.67731666140E+03  0.44776537234E+03 0.  0.
      99925    2    3    3    0    0  0.65755566409E+02  0.80736356106E+02  0.29100575643E+03  0.40590990051E+03  0.26312799802E+03 0.  0.
         25    1    4    4    0    0  0.42630944158E+02  0.74314107402E+02  0.19164504942E+03  0.24436717665E+03  0.12509000000E+03 0.  0.
         25    1    4    4    0    0  0.23124622251E+02  0.64222487033E+01  0.99360707014E+02  0.16154272386E+03  0.12509000000E+03 0.  0.
         25    1    3    3    0    0 -0.65755566409E+02 -0.80736356106E+02  0.21719108649E+03  0.27140676090E+03  0.12509000000E+03 0.  0.
<mgrwt>
<rscale>  2 0.44776537E+03</rscale>
<asrwt>0</asrwt>
<pdfrwt beam="1">  1       21 0.87170108E-01 0.44776537E+03</pdfrwt>
<pdfrwt beam="2">  1       21 0.12435281E-01 0.44776537E+03</pdfrwt>
<totfact> 0.57350534E+04</totfact>
</mgrwt>
</event>
<event>
 7    0  0.4831799E-002  0.4343457E+03  0.7546771E-02  0.1032496E+00
         21   -1    0    0  502  501  0.00000000000E+00  0.00000000000E+00  0.22159326823E+03  0.22159326823E+03  0.00000000000E+00 0. -1.
         21   -1    0    0  501  502 -0.00000000000E+00 -0.00000000000E+00 -0.21284057371E+03  0.21284057371E+03  0.00000000000E+00 0. -1.
      99926    2    1    2    0    0  0.00000000000E+00  0.00000000000E+00  0.87526945204E+01  0.43443384194E+03  0.43434566116E+03 0.  0.
      99925    2    3    3    0    0 -0.79039748927E+02  0.13721031676E+02 -0.40310636329E+02  0.27794017704E+03  0.26304038852E+03 0.  0.
         25    1    4    4    0    0 -0.79122598131E+02  0.11087554463E+02 -0.36084069037E+02  0.15275106395E+03  0.12509000000E+03 0.  0.
         25    1    3    3    0    0  0.79039748927E+02 -0.13721031676E+02  0.49063330849E+02  0.15649366490E+03  0.12509000000E+03 0.  0.
         25    1    4    4    0    0  0.82849204075E-01  0.26334772133E+01 -0.42265672921E+01  0.12518911309E+03  0.12509000000E+03 0.  0.
<mgrwt>
<rscale>  2 0.43434566E+03</rscale>
<asrwt>0</asrwt>
<pdfrwt beam="1">  1       21 0.32587246E-01 0.43434566E+03</pdfrwt>
<pdfrwt beam="2">  1       21 0.31300084E-01 0.43434566E+03</pdfrwt>
<totfact> 0.82926011E+04</totfact>
</mgrwt>
</event>
<event>
 7    0  0.4831799E-002  0.4560306E+03  0.7546771E-02  0.1025939E+00
         21   -1    0    0  502  501  0.00000000000E+00  0.00000000000E+00  0.35644214287E+03  0.35644214287E+03  0.00000000000E+00 0.  1.
         21   -1    0    0  501  502 -0.00000000000E+00 -0.00000000000E+00 -0.14586088545E+03  0.14586088545E+03  0.00000000000E+00 0.  1.
      99926    2    1    2    0    0  0.35527136788E-14  0.00000000000E+00  0.21058125742E+03  0.50230302832E+03  0.45603055411E+03 0.  0.
      99925    2    3    3    0    0  0.19630435287E+02 -0.10279367037E+03  0.18312775289E+03  0.33691531514E+03  0.26272469058E+03 0.  0.
         25    1    4    4    0    0  0.35498944767E+02 -0.19013961015E+02  0.85218796597E+02  0.15662521249E+03  0.12509000000E+03 0.  0.
         25    1    4    4    0    0 -0.15868509480E+02 -0.83779709358E+02  0.97908956292E+02  0.18029010266E+03  0.12509000000E+03 0.  0.
         25    1    3    3    0    0 -0.19630435287E+02  0.10279367037E+03  0.27453504536E+02  0.16538771318E+03  0.12509000000E+03 0.  0.
<mgrwt>
<rscale>  2 0.45603055E+03</rscale>
<asrwt>0</asrwt>
<pdfrwt beam="1">  1       21 0.52417962E-01 0.45603055E+03</pdfrwt>
<pdfrwt beam="2">  1       21 0.21450130E-01 0.45603055E+03</pdfrwt>
<totfact> 0.64579269E+04</totfact>
</mgrwt>
</event>
<event>
 7    0  0.4831799E-002  0.4478113E+03  0.7546771E-02  0.1028377E+00
         21   -1    0    0  502  501  0.00000000000E+00  0.00000000000E+00  0.55322730129E+03  0.55322730129E+03  0.00000000000E+00 0. -1.
         21   -1    0    0  501  502 -0.00000000000E+00 -0.00000000000E+00 -0.90620501916E+02  0.90620501916E+02  0.00000000000E+00 0. -1.
      99926    2    1    2    0    0  0.00000000000E+00 -0.35527136788E-14  0.46260679937E+03  0.64384780320E+03  0.44781128041E+03 0.  0.
      99925    2    3    3    0    0  0.86250144205E+01  0.19357987162E+02  0.44277533247E+03  0.51543472863E+03  0.26300920496E+03 0.  0.
         25    1    4    4    0    0  0.19607759308E+02 -0.11863785835E+01  0.29115921223E+03  0.31750128611E+03  0.12509000000E+03 0.  0.
         25    1    3    3    0    0 -0.86250144205E+01 -0.19357987162E+02  0.19831466895E+02  0.12841307457E+03  0.12509000000E+03 0.  0.
         25    1    4    4    0    0 -0.10982744887E+02  0.20544365746E+02  0.15161612025E+03  0.19793344252E+03  0.12509000000E+03 0.  0.
<mgrwt>
<rscale>  2 0.44781128E+03</rscale>
<asrwt>0</asrwt>
<pdfrwt beam="1">  1       21 0.81356955E-01 0.44781128E+03</pdfrwt>
<pdfrwt beam="2">  1       21 0.13326545E-01 0.44781128E+03</pdfrwt>
<totfact> 0.59352820E+04</totfact>
</mgrwt>
</event>
<event>
 7    0  0.4831799E-002  0.4579712E+03  0.7546771E-02  0.1025371E+00
         21   -1    0    0  502  501  0.00000000000E+00  0.00000000000E+00  0.92653896783E+03  0.92653896783E+03  0.00000000000E+00 0. -1.
         21   -1    0    0  501  502 -0.00000000000E+00 -0.00000000000E+00 -0.56591695244E+02  0.56591695244E+02  0.00000000000E+00 0. -1.
      99926    2    1    2    0    0  0.14210854715E-13  0.00000000000E+00  0.86994727259E+03  0.98313066308E+03  0.45797122573E+03 0.  0.
      99925    2    3    3    0    0 -0.82397331637E+02 -0.49266803726E+02  0.40660813132E+03  0.49369506349E+03  0.26303631888E+03 0.  0.
         25    1    3    3    0    0  0.82397331637E+02  0.49266803726E+02  0.46333914127E+03  0.48943559959E+03  0.12509000000E+03 0.  0.
         25    1    4    4    0    0 -0.47854715813E+02 -0.32021957764E+02  0.13836968748E+03  0.19521567078E+03  0.12509000000E+03 0.  0.
         25    1    4    4    0    0 -0.34542615824E+02 -0.17244845962E+02  0.26823844383E+03  0.29847939271E+03  0.12509000000E+03 0.  0.
<mgrwt>
<rscale>  2 0.45797123E+03</rscale>
<asrwt>0</asrwt>
<pdfrwt beam="1">  1       21 0.13625572E+00 0.45797123E+03</pdfrwt>
<pdfrwt beam="2">  1       21 0.83223087E-02 0.45797123E+03</pdfrwt>
<totfact> 0.38915641E+04</totfact>
</mgrwt>
</event>
<event>
 7    0  0.4831799E-002  0.4474632E+03  0.7546771E-02  0.1028481E+00
         21   -1    0    0  502  501  0.00000000000E+00  0.00000000000E+00  0.18849362492E+03  0.18849362492E+03  0.00000000000E+00 0.  1.
         21   -1    0    0  501  502 -0.00000000000E+00 -0.00000000000E+00 -0.26555716482E+03  0.26555716482E+03  0.00000000000E+00 0.  1.
      99926    2    1    2    0    0  0.00000000000E+00  0.00000000000E+00 -0.77063539908E+02  0.45405078974E+03  0.44746321690E+03 0.  0.
      99925    2    3    3    0    0 -0.85017703474E+02  0.37783330610E+02 -0.10020148253E+03  0.29644856113E+03  0.26303197965E+03 0.  0.
         25    1    4    4    0    0 -0.27238582013E+02 -0.19818650728E+02 -0.42404519541E+02  0.13630983326E+03  0.12509000000E+03 0.  0.
         25    1    3    3    0    0  0.85017703474E+02 -0.37783330610E+02  0.23137942620E+02  0.15760222862E+03  0.12509000000E+03 0.  0.
         25    1    4    4    0    0 -0.57779121461E+02  0.57601981339E+02 -0.57796962987E+02  0.16013872786E+03  0.12509000000E+03 0.  0.
<mgrwt>
<rscale>  2 0.44746322E+03</rscale>
<asrwt>0</asrwt>
<pdfrwt beam="1">  1       21 0.27719651E-01 0.44746322E+03</pdfrwt>
<pdfrwt beam="2">  1       21 0.39052524E-01 0.44746322E+03</pdfrwt>
<totfact> 0.72900028E+04</totfact>
</mgrwt>
</event>
<event>
 7    0  0.4831799E-002  0.4632611E+03  0.7546771E-02  0.1023840E+00
         21   -1    0    0  502  501  0.00000000000E+00  0.00000000000E+00  0.69538213031E+03  0.69538213031E+03  0.00000000000E+00 0.  1.
         21   -1    0    0  501  502 -0.00000000000E+00 -0.00000000000E+00 -0.77155716067E+02  0.77155716067E+02  0.00000000000E+00 0.  1.
      99926    2    1    2    0    0 -0.17763568394E-14  0.00000000000E+00  0.61822641424E+03  0.77253784638E+03  0.46326107630E+03 0.  0.
      99925    2    3    3    0    0 -0.87749163376E+01 -0.13253709382E+02  0.58596649257E+03  0.64238074663E+03  0.26276155208E+03 0.  0.
         25    1    4    4    0    0 -0.47107902942E+01  0.16387578261E+02  0.37080688006E+03  0.39170906891E+03  0.12509000000E+03 0.  0.
         25    1    4    4    0    0 -0.40641260434E+01 -0.29641287643E+02  0.21515961251E+03  0.25067167771E+03  0.12509000000E+03 0.  0.
         25    1    3    3    0    0  0.87749163376E+01  0.13253709382E+02  0.32259921673E+02  0.13015709975E+03  0.12509000000E+03 0.  0.
<mgrwt>
<rscale>  2 0.46326108E+03</rscale>
<asrwt>0</asrwt>
<pdfrwt beam="1">  1       21 0.10226207E+00 0.46326108E+03</pdfrwt>
<pdfrwt beam="2">  1       21 0.11346429E-01 0.46326108E+03</pdfrwt>
<totfact> 0.46061388E+04</totfact>
</mgrwt>
</event>
<event>
 7    0  0.4831799E-002  0.4529027E+03  0.7546771E-02  0.1026860E+00
         21   -1    0    0  502  501  0.00000000000E+00  0.00000000000E+00  0.27499381931E+03  0.27499381931E+03  0.00000000000E+00 0.  1.
         21   -1    0    0  501  502 -0.00000000000E+00 -0.00000000000E+00 -0.18647769286E+03  0.18647769286E+03  0.00000000000E+00 0.  1.
      99926    2    1    2    0    0  0.00000000000E+00  0.00000000000E+00  0.88516126453E+02  0.46147151217E+03  0.45290269585E+03 0.  0.
      99925    2    3    3    0    0 -0.80284116433E+02 -0.67154701358E+02  0.17498728260E+02  0.28357752067E+03  0.26297283410E+03 0.  0.
         25    1    4    4    0    0 -0.63844905984E+02 -0.40722333253E+02  0.42486835021E+02  0.15227317458E+03  0.12509000000E+03 0.  0.
         25    1    3    3    0    0  0.80284116433E+02  0.67154701358E+02  0.71017398193E+02  0.17789399150E+03  0.12509000000E+03 0.  0.
         25    1    4    4    0    0 -0.16439210449E+02 -0.26432368105E+02 -0.24988106761E+02  0.13130434609E+03  0.12509000000E+03 0.  0.
<mgrwt>
<rscale>  2 0.45290270E+03</rscale>
<asrwt>0</asrwt>
<pdfrwt beam="1">  1       21 0.40440268E-01 0.45290270E+03</pdfrwt>
<pdfrwt beam="2">  1       21 0.27423190E-01 0.45290270E+03</pdfrwt>
<totfact> 0.69219789E+04</totfact>
</mgrwt>
</event>
<event>
 7    0  0.4831799E-002  0.4518609E+03  0.7546771E-02  0.1027169E+00
         21   -1    0    0  502  501  0.00000000000E+00  0.00000000000E+00  0.25291464722E+02  0.25291464722E+02  0.00000000000E+00 0. -1.
         21   -1    0    0  501  502 -0.00000000000E+00 -0.00000000000E+00 -0.20182527197E+04  0.20182527197E+04  0.00000000000E+00 0. -1.
      99926    2    1    2    0    0  0.24424906542E-14  0.14210854715E-13 -0.19929612550E+04  0.20435441844E+04  0.45186089656E+03 0.  0.
      99925    2    3    3    0    0  0.10287314524E+01 -0.69846477512E+02 -0.87195809277E+03  0.91342242705E+03  0.26296392524E+03 0.  0.
         25    1    4    4    0    0  0.28102412294E+02 -0.54643741579E+02 -0.52884794747E+03  0.54690341351E+03  0.12509000000E+03 0.  0.
         25    1    4    4    0    0 -0.27073680842E+02 -0.15202735933E+02 -0.34311014531E+03  0.36651901354E+03  0.12509000000E+03 0.  0.
         25    1    3    3    0    0 -0.10287314524E+01  0.69846477512E+02 -0.11210031622E+04  0.11301217574E+04  0.12509000000E+03 0.  0.
<mgrwt>
<rscale>  2 0.45186090E+03</rscale>
<asrwt>0</asrwt>
<pdfrwt beam="1">  1       21 0.37193343E-02 0.45186090E+03</pdfrwt>
<pdfrwt beam="2">  1       21 0.29680177E+00 0.45186090E+03</pdfrwt>
<totfact> 0.13333767E+04</totfact>
</mgrwt>
</event>
<event>
 7    0  0.4831799E-002  0.4325884E+03  0.7546771E-02  0.1033045E+00
         21   -1    0    0  502  501  0.00000000000E+00  0.00000000000E+00  0.47291854778E+03  0.47291854778E+03  0.00000000000E+00 0. -1.
         21   -1    0    0  501  502 -0.00000000000E+00 -0.00000000000E+00 -0.98924416993E+02  0.98924416993E+02  0.00000000000E+00 0. -1.
      99926    2    1    2    0    0  0.35527136788E-14  0.88817841970E-15  0.37399413078E+03  0.57184296477E+03  0.43258844933E+03 0.  0.
      99925    2    3    3    0    0  0.12727930670E+02 -0.60720716955E+01  0.35872024204E+03  0.44503732589E+03  0.26301927517E+03 0.  0.
         25    1    4    4    0    0 -0.27641076349E+02  0.72380764380E+01  0.14347925257E+03  0.19248434448E+03  0.12509000000E+03 0.  0.
         25    1    3    3    0    0 -0.12727930670E+02  0.60720716955E+01  0.15273888742E+02  0.12680563888E+03  0.12509000000E+03 0.  0.
         25    1    4    4    0    0  0.40369007019E+02 -0.13310148134E+02  0.21524098947E+03  0.25255298141E+03  0.12509000000E+03 0.  0.
<mgrwt>
<rscale>  2 0.43258845E+03</rscale>
<asrwt>0</asrwt>
<pdfrwt beam="1">  1       21 0.69546845E-01 0.43258845E+03</pdfrwt>
<pdfrwt beam="2">  1       21 0.14547709E-01 0.43258845E+03</pdfrwt>
<totfact> 0.72457192E+04</totfact>
</mgrwt>
</event>
<event>
 7    0  0.4831799E-002  0.4551867E+03  0.7546771E-02  0.1026187E+00
         21   -1    0    0  502  501  0.00000000000E+00  0.00000000000E+00  0.36796397743E+03  0.36796397743E+03  0.00000000000E+00 0.  1.
         21   -1    0    0  501  502 -0.00000000000E+00 -0.00000000000E+00 -0.14077123398E+03  0.14077123398E+03  0.00000000000E+00 0.  1.
      99926    2    1    2    0    0 -0.17763568394E-14  0.00000000000E+00  0.22719274345E+03  0.50873521142E+03  0.45518674482E+03 0.  0.
      99925    2    3    3    0    0  0.15866602781E+02 -0.90585381278E+02  0.69091222369E+02  0.28714762275E+03  0.26310207117E+03 0.  0.
         25    1    3    3    0    0 -0.15866602781E+02  0.90585381278E+02  0.15810152108E+03  0.22158758867E+03  0.12509000000E+03 0.  0.
         25    1    4    4    0    0 -0.32101037679E+02 -0.52575440655E+02  0.36159439237E+02  0.14404744609E+03  0.12509000000E+03 0.  0.
         25    1    4    4    0    0  0.47967640460E+02 -0.38009940623E+02  0.32931783132E+02  0.14310017665E+03  0.12509000000E+03 0.  0.
<mgrwt>
<rscale>  2 0.45518674E+03</rscale>
<asrwt>0</asrwt>
<pdfrwt beam="1">  1       21 0.54112349E-01 0.45518674E+03</pdfrwt>
<pdfrwt beam="2">  1       21 0.20701652E-01 0.45518674E+03</pdfrwt>
<totfact> 0.64565493E+04</totfact>
</mgrwt>
</event>
<event>
 7    0  0.4831799E-002  0.4901200E+03  0.7546771E-02  0.1016390E+00
         21   -1    0    0  502  501  0.00000000000E+00  0.00000000000E+00  0.45839375955E+02  0.45839375955E+02  0.00000000000E+00 0.  1.
         21   -1    0    0  501  502 -0.00000000000E+00 -0.00000000000E+00 -0.13101050539E+04  0.13101050539E+04  0.00000000000E+00 0.  1.
      99926    2    1    2    0    0  0.00000000000E+00  0.00000000000E+00 -0.12642656779E+04  0.13559444298E+04  0.49011997757E+03 0.  0.
      99925    2    3    3    0    0 -0.71448204808E+02 -0.92374134569E+02 -0.54083652507E+03  0.61255013741E+03  0.26282255855E+03 0.  0.
         25    1    3    3    0    0  0.71448204808E+02  0.92374134569E+02 -0.72342915282E+03  0.74339429239E+03  0.12509000000E+03 0.  0.
         25    1    4    4    0    0 -0.25466539300E+02 -0.99038068344E+01 -0.20103778352E+03  0.23834917352E+03  0.12509000000E+03 0.  0.
         25    1    4    4    0    0 -0.45981665508E+02 -0.82470327735E+02 -0.33979874155E+03  0.37420096390E+03  0.12509000000E+03 0.  0.
<mgrwt>
<rscale>  2 0.49011998E+03</rscale>
<asrwt>0</asrwt>
<pdfrwt beam="1">  1       21 0.67410843E-02 0.49011998E+03</pdfrwt>
<pdfrwt beam="2">  1       21 0.19266252E+00 0.49011998E+03</pdfrwt>
<totfact> 0.21139962E+04</totfact>
</mgrwt>
</event>
<event>
 7    0  0.4831799E-002  0.4553318E+03  0.7546771E-02  0.1026144E+00
         21   -1    0    0  502  501  0.00000000000E+00  0.00000000000E+00  0.20469570639E+03  0.20469570639E+03  0.00000000000E+00 0.  1.
         21   -1    0    0  501  502 -0.00000000000E+00 -0.00000000000E+00 -0.25321369705E+03  0.25321369705E+03  0.00000000000E+00 0.  1.
      99926    2    1    2    0    0  0.00000000000E+00  0.00000000000E+00 -0.48517990667E+02  0.45790940344E+03  0.45533177612E+03 0.  0.
      99925    2    3    3    0    0 -0.30222942820E+02  0.72557879069E+02 -0.11305271946E+03  0.29669429432E+03  0.26280889410E+03 0.  0.
         25    1    4    4    0    0 -0.21320910890E+01  0.37890440449E+02 -0.14932802806E+02  0.13157023976E+03  0.12509000000E+03 0.  0.
         25    1    3    3    0    0  0.30222942820E+02 -0.72557879069E+02  0.64534728798E+02  0.16121510912E+03  0.12509000000E+03 0.  0.
         25    1    4    4    0    0 -0.28090851731E+02  0.34667438620E+02 -0.98119916658E+02  0.16512405457E+03  0.12509000000E+03 0.  0.
<mgrwt>
<rscale>  2 0.45533178E+03</rscale>
<asrwt>0</asrwt>
<pdfrwt beam="1">  1       21 0.30102310E-01 0.45533178E+03</pdfrwt>
<pdfrwt beam="2">  1       21 0.37237308E-01 0.45533178E+03</pdfrwt>
<totfact> 0.68152556E+04</totfact>
</mgrwt>
</event>
<event>
 7    0  0.4831799E-002  0.4419537E+03  0.7546771E-02  0.1030149E+00
         21   -1    0    0  502  501  0.00000000000E+00  0.00000000000E+00  0.93956256646E+03  0.93956256646E+03  0.00000000000E+00 0. -1.
         21   -1    0    0  501  502 -0.00000000000E+00 -0.00000000000E+00 -0.51971813395E+02  0.51971813395E+02  0.00000000000E+00 0. -1.
      99926    2    1    2    0    0  0.00000000000E+00  0.00000000000E+00  0.88759075306E+03  0.99153437985E+03  0.44195370969E+03 0.  0.
      99925    2    3    3    0    0 -0.70229261334E+02  0.41661366711E+02  0.43342605264E+03  0.51343302885E+03  0.26284503682E+03 0.  0.
         25    1    4    4    0    0 -0.45631634025E+02  0.28088462224E+02  0.29432124883E+03  0.32425871360E+03  0.12509000000E+03 0.  0.
         25    1    4    4    0    0 -0.24597627309E+02  0.13572904486E+02  0.13910480381E+03  0.18917431525E+03  0.12509000000E+03 0.  0.
         25    1    3    3    0    0  0.70229261334E+02 -0.41661366711E+02  0.45416470042E+03  0.47810135100E+03  0.12509000000E+03 0.  0.
<mgrwt>
<rscale>  2 0.44195371E+03</rscale>
<asrwt>0</asrwt>
<pdfrwt beam="1">  1       21 0.13817096E+00 0.44195371E+03</pdfrwt>
<pdfrwt beam="2">  1       21 0.76429143E-02 0.44195371E+03</pdfrwt>
<totfact> 0.43792797E+04</totfact>
</mgrwt>
</event>
<event>
 7    0  0.4831799E-002  0.4554009E+03  0.7546771E-02  0.1026124E+00
         21   -1    0    0  502  501  0.00000000000E+00  0.00000000000E+00  0.17156149623E+04  0.17156149623E+04  0.00000000000E+00 0.  1.
         21   -1    0    0  501  502 -0.00000000000E+00 -0.00000000000E+00 -0.30220943374E+02  0.30220943374E+02  0.00000000000E+00 0.  1.
      99926    2    1    2    0    0  0.00000000000E+00  0.00000000000E+00  0.16853940190E+04  0.17458359057E+04  0.45540093381E+03 0.  0.
      99925    2    3    3    0    0  0.53020538642E+02 -0.13420127034E+02  0.67922161168E+03  0.73044351919E+03  0.26308641095E+03 0.  0.
         25    1    4    4    0    0  0.23655271628E+02  0.26765822797E+01  0.22960543761E+03  0.26255075899E+03  0.12509000000E+03 0.  0.
         25    1    3    3    0    0 -0.53020538642E+02  0.13420127034E+02  0.10061724073E+04  0.10153923865E+04  0.12509000000E+03 0.  0.
         25    1    4    4    0    0  0.29365267014E+02 -0.16096709314E+02  0.44961617407E+03  0.46789276019E+03  0.12509000000E+03 0.  0.
<mgrwt>
<rscale>  2 0.45540093E+03</rscale>
<asrwt>0</asrwt>
<pdfrwt beam="1">  1       21 0.25229625E+00 0.45540093E+03</pdfrwt>
<pdfrwt beam="2">  1       21 0.44442575E-02 0.45540093E+03</pdfrwt>
<totfact> 0.18266902E+04</totfact>
</mgrwt>
</event>
<event>
 7    0  0.4831799E-002  0.4450806E+03  0.7546771E-02  0.1029199E+00
         21   -1    0    0  502  501  0.00000000000E+00  0.00000000000E+00  0.42795838157E+02  0.42795838157E+02  0.00000000000E+00 0. -1.
         21   -1    0    0  501  502 -0.00000000000E+00 -0.00000000000E+00 -0.11572197755E+04  0.11572197755E+04  0.00000000000E+00 0. -1.
      99926    2    1    2    0    0  0.00000000000E+00 -0.71054273576E-14 -0.11144239374E+04  0.12000156137E+04  0.44508062292E+03 0.  0.
      99925    2    3    3    0    0 -0.34431014184E+02 -0.35343698149E+02 -0.95331713352E+03  0.99016428040E+03  0.26301534816E+03 0.  0.
         25    1    3    3    0    0  0.34431014184E+02  0.35343698149E+02 -0.16110680384E+03  0.20985133328E+03  0.12509000000E+03 0.  0.
         25    1    4    4    0    0 -0.12362079797E+02  0.93352760975E+01 -0.57343043660E+03  0.58712004063E+03  0.12509000000E+03 0.  0.
         25    1    4    4    0    0 -0.22068934387E+02 -0.44678974246E+02 -0.37988669692E+03  0.40304423976E+03  0.12509000000E+03 0.  0.
<mgrwt>
<rscale>  2 0.44508062E+03</rscale>
<asrwt>0</asrwt>
<pdfrwt beam="1">  1       21 0.62935067E-02 0.44508062E+03</pdfrwt>
<pdfrwt beam="2">  1       21 0.17017935E+00 0.44508062E+03</pdfrwt>
<totfact> 0.34765093E+04</totfact>
</mgrwt>
</event>
<event>
 7    0  0.4831799E-002  0.4552527E+03  0.7546771E-02  0.1026167E+00
         21   -1    0    0  502  501  0.00000000000E+00  0.00000000000E+00  0.27158215816E+03  0.27158215816E+03  0.00000000000E+00 0.  1.
         21   -1    0    0  501  502 -0.00000000000E+00 -0.00000000000E+00 -0.19078484250E+03  0.19078484250E+03  0.00000000000E+00 0.  1.
      99926    2    1    2    0    0  0.14210854715E-13  0.71054273576E-14  0.80797315668E+02  0.46236700066E+03  0.45525271782E+03 0.  0.
      99925    2    3    3    0    0  0.81379589603E+02  0.32726204533E+02  0.12375064474E+03  0.30366558716E+03  0.26306828902E+03 0.  0.
         25    1    3    3    0    0 -0.81379589603E+02 -0.32726204533E+02 -0.42953329071E+02  0.15870141350E+03  0.12509000000E+03 0.  0.
         25    1    4    4    0    0  0.60428710134E+02  0.53249435877E+02  0.63625296502E+02  0.16181105613E+03  0.12509000000E+03 0.  0.
         25    1    4    4    0    0  0.20950879469E+02 -0.20523231343E+02  0.60125348237E+02  0.14185453104E+03  0.12509000000E+03 0.  0.
<mgrwt>
<rscale>  2 0.45525272E+03</rscale>
<asrwt>0</asrwt>
<pdfrwt beam="1">  1       21 0.39938553E-01 0.45525272E+03</pdfrwt>
<pdfrwt beam="2">  1       21 0.28056595E-01 0.45525272E+03</pdfrwt>
<totfact> 0.67869562E+04</totfact>
</mgrwt>
</event>
<event>
 7    0  0.4831799E-002  0.4304563E+03  0.7546771E-02  0.1033716E+00
         21   -1    0    0  502  501  0.00000000000E+00  0.00000000000E+00  0.10085073639E+03  0.10085073639E+03  0.00000000000E+00 0. -1.
         21   -1    0    0  501  502 -0.00000000000E+00 -0.00000000000E+00 -0.45932393472E+03  0.45932393472E+03  0.00000000000E+00 0. -1.
      99926    2    1    2    0    0  0.71054273576E-14  0.00000000000E+00 -0.35847319833E+03  0.56017467111E+03  0.43045630235E+03 0.  0.
      99925    2    3    3    0    0  0.51730173049E+02  0.54838476560E+02 -0.29036382667E+03  0.39902361178E+03  0.26310724354E+03 0.  0.
         25    1    4    4    0    0  0.68162825999E+00  0.36128998877E+01 -0.16922294187E+03  0.21046954606E+03  0.12509000000E+03 0.  0.
         25    1    4    4    0    0  0.51048544789E+02  0.51225576672E+02 -0.12114088479E+03  0.18855406572E+03  0.12509000000E+03 0.  0.
         25    1    3    3    0    0 -0.51730173049E+02 -0.54838476560E+02 -0.68109371664E+02  0.16115105933E+03  0.12509000000E+03 0.  0.
<mgrwt>
<rscale>  2 0.43045630E+03</rscale>
<asrwt>0</asrwt>
<pdfrwt beam="1">  1       21 0.14830990E-01 0.43045630E+03</pdfrwt>
<pdfrwt beam="2">  1       21 0.67547638E-01 0.43045630E+03</pdfrwt>
<totfact> 0.74673611E+04</totfact>
</mgrwt>
</event>
<event>
 6    0  0.4831799E-002  0.4554419E+03  0.7546771E-02  0.1026112E+00
         21   -1    0    0  502  501  0.00000000000E+00  0.00000000000E+00  0.13247343475E+03  0.13247343475E+03  0.00000000000E+00 0.  1.
         21   -1    0    0  501  502 -0.00000000000E+00 -0.00000000000E+00 -0.39145071338E+03  0.39145071338E+03  0.00000000000E+00 0.  1.
      99926    2    1    2    0    0  0.00000000000E+00  0.00000000000E+00 -0.25897727863E+03  0.52392414813E+03  0.45544185375E+03 0.  0.
         25    1    3    3    0    0 -0.84427006495E+02  0.65799518203E+02 -0.13232592232E+03  0.21122299552E+03  0.12509000000E+03 0.  0.
         25    1    3    3    0    0  0.71865130548E+02 -0.13970869813E+02 -0.94321558246E+02  0.17292728715E+03  0.12509000000E+03 0.  0.
         25    1    3    3    0    0  0.12561875947E+02 -0.51828648391E+02 -0.32329798071E+02  0.13977386546E+03  0.12509000000E+03 0.  0.
<mgrwt>
<rscale>  2 0.45544185E+03</rscale>
<asrwt>0</asrwt>
<pdfrwt beam="1">  1       21 0.19481388E-01 0.45544185E+03</pdfrwt>
<pdfrwt beam="2">  1       21 0.57566280E-01 0.45544185E+03</pdfrwt>
<totfact> 0.63397306E+04</totfact>
</mgrwt>
</event>
<event>
 7    0  0.4831799E-002  0.4593125E+03  0.7546771E-02  0.1024981E+00
         21   -1    0    0  502  501  0.00000000000E+00  0.00000000000E+00  0.33790158353E+03  0.33790158353E+03  0.00000000000E+00 0. -1.
         21   -1    0    0  501  502 -0.00000000000E+00 -0.00000000000E+00 -0.15608685993E+03  0.15608685993E+03  0.00000000000E+00 0. -1.
      99926    2    1    2    0    0  0.14210854715E-13  0.00000000000E+00  0.18181472360E+03  0.49398844347E+03  0.45931251732E+03 0.  0.
      99925    2    3    3    0    0 -0.99577634902E+02 -0.21685287250E+02  0.51788295817E+02  0.28676793995E+03  0.26299784551E+03 0.  0.
         25    1    3    3    0    0  0.99577634902E+02  0.21685287250E+02  0.13002642778E+03  0.20722050352E+03  0.12509000000E+03 0.  0.
         25    1    4    4    0    0 -0.48517775464E+02 -0.49671129360E+02  0.38459494122E+02  0.14814802198E+03  0.12509000000E+03 0.  0.
         25    1    4    4    0    0 -0.51059859438E+02  0.27985842109E+02  0.13328801695E+02  0.13861991797E+03  0.12509000000E+03 0.  0.
<mgrwt>
<rscale>  2 0.45931252E+03</rscale>
<asrwt>0</asrwt>
<pdfrwt beam="1">  1       21 0.49691409E-01 0.45931252E+03</pdfrwt>
<pdfrwt beam="2">  1       21 0.22953950E-01 0.45931252E+03</pdfrwt>
<totfact> 0.63493350E+04</totfact>
</mgrwt>
</event>
<event>
 7    0  0.4831799E-002  0.4484749E+03  0.7546771E-02  0.1028178E+00
         21   -1    0    0  502  501  0.00000000000E+00  0.00000000000E+00  0.20624922201E+03  0.20624922201E+03  0.00000000000E+00 0. -1.
         21   -1    0    0  501  502 -0.00000000000E+00 -0.00000000000E+00 -0.24379452853E+03  0.24379452853E+03  0.00000000000E+00 0. -1.
      99926    2    1    2    0    0  0.00000000000E+00  0.00000000000E+00 -0.37545306515E+02  0.45004375054E+03  0.44847489045E+03 0.  0.
      99925    2    3    3    0    0 -0.10595729465E+03  0.63278972115E+01 -0.95989882615E+01  0.28362411415E+03  0.26283741549E+03 0.  0.
         25    1    4    4    0    0 -0.99682955908E+01 -0.19552419341E+01 -0.11777651783E+01  0.12550731102E+03  0.12509000000E+03 0.  0.
         25    1    4    4    0    0 -0.95988999062E+02  0.82831391455E+01 -0.84212230832E+01  0.15811680313E+03  0.12509000000E+03 0.  0.
         25    1    3    3    0    0  0.10595729465E+03 -0.63278972115E+01 -0.27946318254E+02  0.16641963639E+03  0.12509000000E+03 0.  0.
<mgrwt>
<rscale>  2 0.44847489E+03</rscale>
<asrwt>0</asrwt>
<pdfrwt beam="1">  1       21 0.30330768E-01 0.44847489E+03</pdfrwt>
<pdfrwt beam="2">  1       21 0.35852136E-01 0.44847489E+03</pdfrwt>
<totfact> 0.72618066E+04</totfact>
</mgrwt>
</event>
<event>
 7    0  0.4831799E-002  0.4562500E+03  0.7546771E-02  0.1025874E+00
         21   -1    0    0  502  501  0.00000000000E+00  0.00000000000E+00  0.12042706022E+03  0.12042706022E+03  0.00000000000E+00 0. -1.
         21   -1    0    0  501  502 -0.00000000000E+00 -0.00000000000E+00 -0.43213718114E+03  0.43213718114E+03  0.00000000000E+00 0. -1.
      99926    2    1    2    0    0  0.14210854715E-13  0.00000000000E+00 -0.31171012092E+03  0.55256424136E+03  0.45624997681E+03 0.  0.
      99925    2    3    3    0    0 -0.93959799520E+02  0.55814942752E+02 -0.15368208467E+03  0.32329557777E+03  0.26259873514E+03 0.  0.
         25    1    4    4    0    0 -0.19628280253E+02 -0.49387032304E+01 -0.70938259075E+02  0.14522191596E+03  0.12509000000E+03 0.  0.
         25    1    3    3    0    0  0.93959799520E+02 -0.55814942752E+02 -0.15802803625E+03  0.22926866358E+03  0.12509000000E+03 0.  0.
         25    1    4    4    0    0 -0.74331519267E+02  0.60753645982E+02 -0.82743825598E+02  0.17807366181E+03  0.12509000000E+03 0.  0.
<mgrwt>
<rscale>  2 0.45624998E+03</rscale>
<asrwt>0</asrwt>
<pdfrwt beam="1">  1       21 0.17709862E-01 0.45624998E+03</pdfrwt>
<pdfrwt beam="2">  1       21 0.63549584E-01 0.45624998E+03</pdfrwt>
<totfact> 0.61091004E+04</totfact>
</mgrwt>
</event>
<event>
 7    0  0.4831799E-002  0.4514585E+03  0.7546771E-02  0.1027288E+00
         21   -1    0    0  502  501  0.00000000000E+00  0.00000000000E+00  0.21819220966E+03  0.21819220966E+03  0.00000000000E+00 0.  1.
         21   -1    0    0  501  502 -0.00000000000E+00 -0.00000000000E+00 -0.23352665809E+03  0.23352665809E+03  0.00000000000E+00 0.  1.
      99926    2    1    2    0    0 -0.14210854715E-13  0.00000000000E+00 -0.15334448428E+02  0.45171886774E+03  0.45145851434E+03 0.  0.
      99925    2    3    3    0    0  0.88128742553E+02  0.48964919925E+02  0.33951775449E+02  0.28366864129E+03  0.26296565621E+03 0.  0.
         25    1    3    3    0    0 -0.88128742553E+02 -0.48964919925E+02 -0.49286223877E+02  0.16805022645E+03  0.12509000000E+03 0.  0.
         25    1    4    4    0    0  0.82432996111E+02  0.94645764995E+01  0.23699582097E+02  0.15196695479E+03  0.12509000000E+03 0.  0.
         25    1    4    4    0    0  0.56957464420E+01  0.39500343426E+02  0.10252193352E+02  0.13170168650E+03  0.12509000000E+03 0.  0.
<mgrwt>
<rscale>  2 0.45145851E+03</rscale>
<asrwt>0</asrwt>
<pdfrwt beam="1">  1       21 0.32087090E-01 0.45145851E+03</pdfrwt>
<pdfrwt beam="2">  1       21 0.34342155E-01 0.45145851E+03</pdfrwt>
<totfact> 0.70765444E+04</totfact>
</mgrwt>
</event>
<event>
 7    0  0.4831799E-002  0.4566007E+03  0.7546771E-02  0.1025772E+00
         21   -1    0    0  502  501  0.00000000000E+00  0.00000000000E+00  0.12554116663E+03  0.12554116663E+03  0.00000000000E+00 0. -1.
         21   -1    0    0  501  502 -0.00000000000E+00 -0.00000000000E+00 -0.41517100843E+03  0.41517100843E+03  0.00000000000E+00 0. -1.
      99926    2    1    2    0    0  0.00000000000E+00  0.00000000000E+00 -0.28962984180E+03  0.54071217505E+03  0.45660071287E+03 0.  0.
      99925    2    3    3    0    0 -0.84195654874E+02  0.75658670231E+02 -0.20169283681E+03  0.35046610380E+03  0.26331226104E+03 0.  0.
         25    1    3    3    0    0  0.84195654874E+02 -0.75658670231E+02 -0.87937004989E+02  0.19024607125E+03  0.12509000000E+03 0.  0.
         25    1    4    4    0    0 -0.63685845523E+02  0.67796483358E+02 -0.13889053375E+03  0.20878299390E+03  0.12509000000E+03 0.  0.
         25    1    4    4    0    0 -0.20509809352E+02  0.78621868722E+01 -0.62802303062E+02  0.14168310990E+03  0.12509000000E+03 0.  0.
<mgrwt>
<rscale>  2 0.45660071E+03</rscale>
<asrwt>0</asrwt>
<pdfrwt beam="1">  1       21 0.18461936E-01 0.45660071E+03</pdfrwt>
<pdfrwt beam="2">  1       21 0.61054561E-01 0.45660071E+03</pdfrwt>
<totfact> 0.61699152E+04</totfact>
</mgrwt>
</event>
<event>
 7    0  0.4831799E-002  0.4567347E+03  0.7546771E-02  0.1025733E+00
         21   -1    0    0  502  501  0.00000000000E+00  0.00000000000E+00  0.11005246569E+04  0.11005246569E+04  0.00000000000E+00 0. -1.
         21   -1    0    0  501  502 -0.00000000000E+00 -0.00000000000E+00 -0.47387994342E+02  0.47387994342E+02  0.00000000000E+00 0. -1.
      99926    2    1    2    0    0  0.00000000000E+00  0.00000000000E+00  0.10531366626E+04  0.11479126513E+04  0.45673474234E+03 0.  0.
      99925    2    3    3    0    0 -0.97274160647E+02  0.12687508077E+02  0.81135577982E+03  0.85855346521E+03  0.26304489346E+03 0.  0.
         25    1    3    3    0    0  0.97274160647E+02 -0.12687508077E+02  0.24178088278E+03  0.28935918608E+03  0.12509000000E+03 0.  0.
         25    1    4    4    0    0 -0.13611833938E+02 -0.22466674451E+01  0.30062733205E+03  0.32590586127E+03  0.12509000000E+03 0.  0.
         25    1    4    4    0    0 -0.83662326710E+02  0.14934175522E+02  0.51072844778E+03  0.53264760393E+03  0.12509000000E+03 0.  0.
<mgrwt>
<rscale>  2 0.45673474E+03</rscale>
<asrwt>0</asrwt>
<pdfrwt beam="1">  1       21 0.16184185E+00 0.45673474E+03</pdfrwt>
<pdfrwt beam="2">  1       21 0.69688234E-02 0.45673474E+03</pdfrwt>
<totfact> 0.33398292E+04</totfact>
</mgrwt>
</event>
<event>
 7    0  0.4831799E-002  0.4596020E+03  0.7546771E-02  0.1024897E+00
         21   -1    0    0  502  501  0.00000000000E+00  0.00000000000E+00  0.24090557923E+03  0.24090557923E+03  0.00000000000E+00 0.  1.
         21   -1    0    0  501  502 -0.00000000000E+00 -0.00000000000E+00 -0.21920824641E+03  0.21920824641E+03  0.00000000000E+00 0.  1.
      99926    2    1    2    0    0  0.35527136788E-14  0.00000000000E+00  0.21697332817E+02  0.46011382564E+03  0.45960195637E+03 0.  0.
      99925    2    3    3    0    0  0.30177392898E+02 -0.12209830700E+02 -0.99354731420E+02  0.28302383337E+03  0.26300451059E+03 0.  0.
         25    1    4    4    0    0 -0.25287733913E+02 -0.71177504160E+01 -0.41674159234E+02  0.13444097406E+03  0.12509000000E+03 0.  0.
         25    1    3    3    0    0 -0.30177392898E+02  0.12209830700E+02  0.12105206424E+03  0.17708999227E+03  0.12509000000E+03 0.  0.
         25    1    4    4    0    0  0.55465126812E+02 -0.50920802841E+01 -0.57680572186E+02  0.14858285931E+03  0.12509000000E+03 0.  0.
<mgrwt>
<rscale>  2 0.45960196E+03</rscale>
<asrwt>0</asrwt>
<pdfrwt beam="1">  1       21 0.35427291E-01 0.45960196E+03</pdfrwt>
<pdfrwt beam="2">  1       21 0.32236507E-01 0.45960196E+03</pdfrwt>
<totfact> 0.65726081E+04</totfact>
</mgrwt>
</event>
<event>
 7    0  0.4831799E-002  0.4698251E+03  0.7546771E-02  0.1021970E+00
         21   -1    0    0  502  501  0.00000000000E+00  0.00000000000E+00  0.41407308639E+02  0.41407308639E+02  0.00000000000E+00 0. -1.
         21   -1    0    0  501  502 -0.00000000000E+00 -0.00000000000E+00 -0.13327093408E+04  0.13327093408E+04  0.00000000000E+00 0. -1.
      99926    2    1    2    0    0  0.00000000000E+00  0.00000000000E+00 -0.12913020322E+04  0.13741166494E+04  0.46982510363E+03 0.  0.
      99925    2    3    3    0    0 -0.21684632655E+02 -0.68410825802E+02 -0.49706586110E+03  0.56689371375E+03  0.26295198808E+03 0.  0.
         25    1    4    4    0    0 -0.26665143223E+02 -0.24833347699E+01 -0.27927168299E+03  0.30717646042E+03  0.12509000000E+03 0.  0.
         25    1    3    3    0    0  0.21684632655E+02  0.68410825802E+02 -0.79423617106E+03  0.80722293568E+03  0.12509000000E+03 0.  0.
         25    1    4    4    0    0  0.49805105679E+01 -0.65927491032E+02 -0.21779417811E+03  0.25971725333E+03  0.12509000000E+03 0.  0.
<mgrwt>
<rscale>  2 0.46982510E+03</rscale>
<asrwt>0</asrwt>
<pdfrwt beam="1">  1       21 0.60893101E-02 0.46982510E+03</pdfrwt>
<pdfrwt beam="2">  1       21 0.19598667E+00 0.46982510E+03</pdfrwt>
<totfact> 0.24127830E+04</totfact>
</mgrwt>
</event>
<event>
 7    0  0.4831799E-002  0.4526261E+03  0.7546771E-02  0.1026942E+00
         21   -1    0    0  502  501  0.00000000000E+00  0.00000000000E+00  0.16316389429E+03  0.16316389429E+03  0.00000000000E+00 0.  1.
         21   -1    0    0  501  502 -0.00000000000E+00 -0.00000000000E+00 -0.31390279024E+03  0.31390279024E+03  0.00000000000E+00 0.  1.
      99926    2    1    2    0    0 -0.17763568394E-14  0.14210854715E-13 -0.15073889595E+03  0.47706668453E+03  0.45262612246E+03 0.  0.
      99925    2    3    3    0    0 -0.70290184145E+01 -0.10990868749E+03 -0.10904067894E+03  0.30526570639E+03  0.26299801358E+03 0.  0.
         25    1    3    3    0    0  0.70290184145E+01  0.10990868749E+03 -0.41698217010E+02  0.17180097813E+03  0.12509000000E+03 0.  0.
         25    1    4    4    0    0 -0.35051037319E+02 -0.41111532931E+02 -0.76211007503E+02  0.15612289749E+03  0.12509000000E+03 0.  0.
         25    1    4    4    0    0  0.28022018905E+02 -0.68797154561E+02 -0.32829671438E+02  0.14914280890E+03  0.12509000000E+03 0.  0.
<mgrwt>
<rscale>  2 0.45262612E+03</rscale>
<asrwt>0</asrwt>
<pdfrwt beam="1">  1       21 0.23994691E-01 0.45262612E+03</pdfrwt>
<pdfrwt beam="2">  1       21 0.46162174E-01 0.45262612E+03</pdfrwt>
<totfact> 0.68190020E+04</totfact>
</mgrwt>
</event>
<event>
 7    0  0.4831799E-002  0.4509250E+03  0.7546771E-02  0.1027447E+00
         21   -1    0    0  502  501  0.00000000000E+00  0.00000000000E+00  0.56920169946E+03  0.56920169946E+03  0.00000000000E+00 0.  1.
         21   -1    0    0  501  502 -0.00000000000E+00 -0.00000000000E+00 -0.89306379381E+02  0.89306379381E+02  0.00000000000E+00 0.  1.
      99926    2    1    2    0    0  0.71054273576E-14  0.14210854715E-13  0.47989532008E+03  0.65850807884E+03  0.45092501779E+03 0.  0.
      99925    2    3    3    0    0 -0.52766000130E+02 -0.91530674299E+02  0.26222971150E+03  0.38613344646E+03  0.26300665728E+03 0.  0.
         25    1    3    3    0    0  0.52766000130E+02  0.91530674299E+02  0.21766560858E+03  0.27237463238E+03  0.12509000000E+03 0.  0.
         25    1    4    4    0    0 -0.13956685762E+02 -0.70138479595E+02  0.94754612849E+02  0.17245329847E+03  0.12509000000E+03 0.  0.
         25    1    4    4    0    0 -0.38809314368E+02 -0.21392194704E+02  0.16747509865E+03  0.21368014799E+03  0.12509000000E+03 0.  0.
<mgrwt>
<rscale>  2 0.45092502E+03</rscale>
<asrwt>0</asrwt>
<pdfrwt beam="1">  1       21 0.83706130E-01 0.45092502E+03</pdfrwt>
<pdfrwt beam="2">  1       21 0.13133291E-01 0.45092502E+03</pdfrwt>
<totfact> 0.57024160E+04</totfact>
</mgrwt>
</event>
<event>
 7    0  0.4831799E-002  0.4620813E+03  0.7546771E-02  0.1024179E+00
         21   -1    0    0  502  501  0.00000000000E+00  0.00000000000E+00  0.60680930194E+02  0.60680930194E+02  0.00000000000E+00 0.  1.
         21   -1    0    0  501  502 -0.00000000000E+00 -0.00000000000E+00 -0.87967969572E+03  0.87967969572E+03  0.00000000000E+00 0.  1.
      99926    2    1    2    0    0  0.35527136788E-14  0.14210854715E-13 -0.81899876552E+03  0.94036062591E+03  0.46208130111E+03 0.  0.
      99925    2    3    3    0    0 -0.29652043530E+02 -0.10493479736E+03 -0.61259571653E+03  0.67552051921E+03  0.26299031271E+03 0.  0.
         25    1    4    4    0    0 -0.66028810367E+01 -0.93644084903E+02 -0.35903877103E+03  0.39162374785E+03  0.12509000000E+03 0.  0.
         25    1    3    3    0    0  0.29652043530E+02  0.10493479736E+03 -0.20640304899E+03  0.26484010670E+03  0.12509000000E+03 0.  0.
         25    1    4    4    0    0 -0.23049162493E+02 -0.11290712462E+02 -0.25355694550E+03  0.28389677136E+03  0.12509000000E+03 0.  0.
<mgrwt>
<rscale>  2 0.46208130E+03</rscale>
<asrwt>0</asrwt>
<pdfrwt beam="1">  1       21 0.89236661E-02 0.46208130E+03</pdfrwt>
<pdfrwt beam="2">  1       21 0.12936466E+00 0.46208130E+03</pdfrwt>
<totfact> 0.39310846E+04</totfact>
</mgrwt>
</event>
<event>
 7    0  0.4831799E-002  0.4719412E+03  0.7546771E-02  0.1021374E+00
         21   -1    0    0  502  501  0.00000000000E+00  0.00000000000E+00  0.41968442112E+03  0.41968442112E+03  0.00000000000E+00 0. -1.
         21   -1    0    0  501  502 -0.00000000000E+00 -0.00000000000E+00 -0.13267615470E+03  0.13267615470E+03  0.00000000000E+00 0. -1.
      99926    2    1    2    0    0  0.00000000000E+00  0.00000000000E+00  0.28700826643E+03  0.55236057582E+03  0.47194116236E+03 0.  0.
      99925    2    3    3    0    0 -0.14422616559E+02  0.63018891888E+02  0.48174743618E+02  0.27510915144E+03  0.26303012505E+03 0.  0.
         25    1    3    3    0    0  0.14422616559E+02 -0.63018891888E+02  0.23883352281E+03  0.27725142438E+03  0.12509000000E+03 0.  0.
         25    1    4    4    0    0 -0.34483230163E+02  0.60597291035E+02  0.36968981975E+02  0.14790313915E+03  0.12509000000E+03 0.  0.
         25    1    4    4    0    0  0.20060613604E+02  0.24216008532E+01  0.11205761643E+02  0.12720601229E+03  0.12509000000E+03 0.  0.
<mgrwt>
<rscale>  2 0.47194116E+03</rscale>
<asrwt>0</asrwt>
<pdfrwt beam="1">  1       21 0.61718297E-01 0.47194116E+03</pdfrwt>
<pdfrwt beam="2">  1       21 0.19511199E-01 0.47194116E+03</pdfrwt>
<totfact> 0.54084741E+04</totfact>
</mgrwt>
</event>
<event>
 7    0  0.4831799E-002  0.4549731E+03  0.7546771E-02  0.1026249E+00
         21   -1    0    0  502  501  0.00000000000E+00  0.00000000000E+00  0.18747415228E+03  0.18747415228E+03  0.00000000000E+00 0. -1.
         21   -1    0    0  501  502 -0.00000000000E+00 -0.00000000000E+00 -0.27603879864E+03  0.27603879864E+03  0.00000000000E+00 0. -1.
      99926    2    1    2    0    0 -0.14210854715E-13  0.17763568394E-14 -0.88564646361E+02  0.46351295092E+03  0.45497314105E+03 0.  0.
      99925    2    3    3    0    0 -0.10674479350E+03 -0.58504494280E+01 -0.93327330208E+02  0.29889560689E+03  0.26305876635E+03 0.  0.
         25    1    4    4    0    0 -0.68449655531E+02 -0.18514711721E+02 -0.11895794956E+02  0.14428155783E+03  0.12509000000E+03 0.  0.
         25    1    3    3    0    0  0.10674479350E+03  0.58504494280E+01  0.47626838478E+01  0.16461734403E+03  0.12509000000E+03 0.  0.
         25    1    4    4    0    0 -0.38295137969E+02  0.12664262293E+02 -0.81431535253E+02  0.15461404905E+03  0.12509000000E+03 0.  0.
<mgrwt>
<rscale>  2 0.45497314E+03</rscale>
<asrwt>0</asrwt>
<pdfrwt beam="1">  1       21 0.27569729E-01 0.45497314E+03</pdfrwt>
<pdfrwt beam="2">  1       21 0.40593940E-01 0.45497314E+03</pdfrwt>
<totfact> 0.67935233E+04</totfact>
</mgrwt>
</event>
<event>
 7    0  0.4831799E-002  0.4545209E+03  0.7546771E-02  0.1026382E+00
         21   -1    0    0  502  501  0.00000000000E+00  0.00000000000E+00  0.10225739090E+04  0.10225739090E+04  0.00000000000E+00 0. -1.
         21   -1    0    0  501  502 -0.00000000000E+00 -0.00000000000E+00 -0.50507169745E+02  0.50507169745E+02  0.00000000000E+00 0. -1.
      99926    2    1    2    0    0  0.00000000000E+00  0.00000000000E+00  0.97206673929E+03  0.10730810788E+04  0.45452090821E+03 0.  0.
      99925    2    3    3    0    0 -0.79041528110E+01  0.90675312574E+02  0.45517203729E+03  0.53353300030E+03  0.26304256486E+03 0.  0.
         25    1    3    3    0    0  0.79041528110E+01 -0.90675312574E+02  0.51689470199E+03  0.53954807848E+03  0.12509000000E+03 0.  0.
         25    1    4    4    0    0  0.10404637846E+02  0.28822518116E+02  0.28465893405E+03  0.31243753116E+03  0.12509000000E+03 0.  0.
         25    1    4    4    0    0 -0.18308790657E+02  0.61852794459E+02  0.17051310324E+03  0.22109546914E+03  0.12509000000E+03 0.  0.
<mgrwt>
<rscale>  2 0.45452091E+03</rscale>
<asrwt>0</asrwt>
<pdfrwt beam="1">  1       21 0.15037850E+00 0.45452091E+03</pdfrwt>
<pdfrwt beam="2">  1       21 0.74275256E-02 0.45452091E+03</pdfrwt>
<totfact> 0.36578273E+04</totfact>
</mgrwt>
</event>
<event>
 7    0  0.4831799E-002  0.4531482E+03  0.7546771E-02  0.1026787E+00
         21   -1    0    0  502  501  0.00000000000E+00  0.00000000000E+00  0.29253811391E+04  0.29253811391E+04  0.00000000000E+00 0.  1.
         21   -1    0    0  501  502 -0.00000000000E+00 -0.00000000000E+00 -0.17548420802E+02  0.17548420802E+02  0.00000000000E+00 0.  1.
      99926    2    1    2    0    0  0.00000000000E+00  0.00000000000E+00  0.29078327183E+04  0.29429295599E+04  0.45314818430E+03 0.  0.
      99925    2    3    3    0    0 -0.59643029040E+02 -0.34598604795E+02  0.12624341572E+04  0.12913429629E+04  0.26281608065E+03 0.  0.
         25    1    4    4    0    0 -0.39103492547E+02 -0.31435586398E+02  0.47446920166E+03  0.49324011459E+03  0.12509000000E+03 0.  0.
         25    1    3    3    0    0  0.59643029040E+02  0.34598604795E+02  0.16453985611E+04  0.16515865970E+04  0.12509000000E+03 0.  0.
         25    1    4    4    0    0 -0.20539536492E+02 -0.31630183979E+01  0.78796495555E+03  0.79810284833E+03  0.12509000000E+03 0.  0.
<mgrwt>
<rscale>  2 0.45314818E+03</rscale>
<asrwt>0</asrwt>
<pdfrwt beam="1">  1       21 0.43020277E+00 0.45314818E+03</pdfrwt>
<pdfrwt beam="2">  1       21 0.25806521E-02 0.45314818E+03</pdfrwt>
<totfact> 0.36298128E+03</totfact>
</mgrwt>
</event>
<event>
 7    0  0.4831799E-002  0.4891453E+03  0.7546771E-02  0.1016652E+00
         21   -1    0    0  502  501  0.00000000000E+00  0.00000000000E+00  0.23030254639E+03  0.23030254639E+03  0.00000000000E+00 0.  1.
         21   -1    0    0  501  502 -0.00000000000E+00 -0.00000000000E+00 -0.25972691839E+03  0.25972691839E+03  0.00000000000E+00 0.  1.
      99926    2    1    2    0    0  0.00000000000E+00  0.14210854715E-13 -0.29424371995E+02  0.49002946478E+03  0.48914525724E+03 0.  0.
      99925    2    3    3    0    0  0.51200966405E+02 -0.88661497092E+02  0.81993351906E+02  0.29370367094E+03  0.26278610416E+03 0.  0.
         25    1    4    4    0    0  0.29427705351E+02 -0.82193147271E+01  0.59024281460E+02  0.14165070024E+03  0.12509000000E+03 0.  0.
         25    1    4    4    0    0  0.21773261055E+02 -0.80442182365E+02  0.22969070446E+02  0.15205297070E+03  0.12509000000E+03 0.  0.
         25    1    3    3    0    0 -0.51200966405E+02  0.88661497092E+02 -0.11141772390E+03  0.19632579384E+03  0.12509000000E+03 0.  0.
<mgrwt>
<rscale>  2 0.48914526E+03</rscale>
<asrwt>0</asrwt>
<pdfrwt beam="1">  1       21 0.33868022E-01 0.48914526E+03</pdfrwt>
<pdfrwt beam="2">  1       21 0.38195135E-01 0.48914526E+03</pdfrwt>
<totfact> 0.50751115E+04</totfact>
</mgrwt>
</event>
<event>
 7    0  0.4831799E-002  0.4555190E+03  0.7546771E-02  0.1026089E+00
         21   -1    0    0  502  501  0.00000000000E+00  0.00000000000E+00  0.79675330059E+03  0.79675330059E+03  0.00000000000E+00 0. -1.
         21   -1    0    0  501  502 -0.00000000000E+00 -0.00000000000E+00 -0.65107215778E+02  0.65107215778E+02  0.00000000000E+00 0. -1.
      99926    2    1    2    0    0  0.00000000000E+00  0.00000000000E+00  0.73164608481E+03  0.86186051637E+03  0.45551899659E+03 0.  0.
      99925    2    3    3    0    0  0.10815337175E+03 -0.34358111059E+01  0.39435552698E+03  0.48619925257E+03  0.26299139704E+03 0.  0.
         25    1    3    3    0    0 -0.10815337175E+03  0.34358111059E+01  0.33729055783E+03  0.37566126380E+03  0.12509000000E+03 0.  0.
         25    1    4    4    0    0  0.21570058971E+02 -0.14121945369E+02  0.13898934964E+03  0.18875975259E+03  0.12509000000E+03 0.  0.
         25    1    4    4    0    0  0.86583312775E+02  0.10686134263E+02  0.25536617734E+03  0.29743949998E+03  0.12509000000E+03 0.  0.
<mgrwt>
<rscale>  2 0.45551900E+03</rscale>
<asrwt>0</asrwt>
<pdfrwt beam="1">  1       21 0.11716960E+00 0.45551900E+03</pdfrwt>
<pdfrwt beam="2">  1       21 0.95745910E-02 0.45551900E+03</pdfrwt>
<totfact> 0.44730980E+04</totfact>
</mgrwt>
</event>
<event>
 7    0  0.4831799E-002  0.4515666E+03  0.7546771E-02  0.1027256E+00
         21   -1    0    0  502  501  0.00000000000E+00  0.00000000000E+00  0.49724367632E+02  0.49724367632E+02  0.00000000000E+00 0. -1.
         21   -1    0    0  501  502 -0.00000000000E+00 -0.00000000000E+00 -0.10252135410E+04  0.10252135410E+04  0.00000000000E+00 0. -1.
      99926    2    1    2    0    0  0.35527136788E-14  0.35527136788E-14 -0.97548917334E+03  0.10749379086E+04  0.45156658429E+03 0.  0.
      99925    2    3    3    0    0  0.22537613570E+02  0.26781280199E+02 -0.86466043045E+03  0.90418750789E+03  0.26209198469E+03 0.  0.
         25    1    4    4    0    0  0.31778333558E+02 -0.87149795089E+01 -0.34582136727E+03  0.36922315680E+03  0.12509000000E+03 0.  0.
         25    1    3    3    0    0 -0.22537613570E+02 -0.26781280199E+02 -0.11082874289E+03  0.17075040072E+03  0.12509000000E+03 0.  0.
         25    1    4    4    0    0 -0.92407199881E+01  0.35496259708E+02 -0.51883906318E+03  0.53496435109E+03  0.12509000000E+03 0.  0.
<mgrwt>
<rscale>  2 0.45156658E+03</rscale>
<asrwt>0</asrwt>
<pdfrwt beam="1">  1       21 0.73124076E-02 0.45156658E+03</pdfrwt>
<pdfrwt beam="2">  1       21 0.15076669E+00 0.45156658E+03</pdfrwt>
<totfact> 0.37366557E+04</totfact>
</mgrwt>
</event>
<event>
 7    0  0.4831799E-002  0.4586345E+03  0.7546771E-02  0.1025178E+00
         21   -1    0    0  502  501  0.00000000000E+00  0.00000000000E+00  0.18497791264E+03  0.18497791264E+03  0.00000000000E+00 0. -1.
         21   -1    0    0  501  502 -0.00000000000E+00 -0.00000000000E+00 -0.28428471225E+03  0.28428471225E+03  0.00000000000E+00 0. -1.
      99926    2    1    2    0    0  0.00000000000E+00  0.00000000000E+00 -0.99306799606E+02  0.46926262489E+03  0.45863446302E+03 0.  0.
      99925    2    3    3    0    0 -0.10130221453E+03  0.42121248992E+02 -0.22142421661E+02  0.28585546143E+03  0.26303368550E+03 0.  0.
         25    1    4    4    0    0 -0.69180991044E+02  0.46747019982E+02  0.15660759188E+02  0.15120866667E+03  0.12509000000E+03 0.  0.
         25    1    3    3    0    0  0.10130221453E+03 -0.42121248992E+02 -0.77164377945E+02  0.18340716346E+03  0.12509000000E+03 0.  0.
         25    1    4    4    0    0 -0.32121223485E+02 -0.46257709895E+01 -0.37803180849E+02  0.13464679475E+03  0.12509000000E+03 0.  0.
<mgrwt>
<rscale>  2 0.45863446E+03</rscale>
<asrwt>0</asrwt>
<pdfrwt beam="1">  1       21 0.27202635E-01 0.45863446E+03</pdfrwt>
<pdfrwt beam="2">  1       21 0.41806574E-01 0.45863446E+03</pdfrwt>
<totfact> 0.65579892E+04</totfact>
</mgrwt>
</event>
<event>
 7    0  0.4831799E-002  0.4690207E+03  0.7546771E-02  0.1022197E+00
         21   -1    0    0  502  501  0.00000000000E+00  0.00000000000E+00  0.62286932250E+02  0.62286932250E+02  0.00000000000E+00 0.  1.
         21   -1    0    0  501  502 -0.00000000000E+00 -0.00000000000E+00 -0.88293163267E+03  0.88293163267E+03  0.00000000000E+00 0.  1.
      99926    2    1    2    0    0  0.00000000000E+00  0.14210854715E-13 -0.82064470042E+03  0.94521856492E+03  0.46902069372E+03 0.  0.
      99925    2    3    3    0    0 -0.51989392252E+01 -0.11191679471E+03 -0.39447584869E+03  0.48715765609E+03  0.26298096659E+03 0.  0.
         25    1    3    3    0    0  0.51989392252E+01  0.11191679471E+03 -0.42616885173E+03  0.45806090882E+03  0.12509000000E+03 0.  0.
         25    1    4    4    0    0 -0.67333417457E+01 -0.14122193308E+02 -0.15452118029E+03  0.19942185811E+03  0.12509000000E+03 0.  0.
         25    1    4    4    0    0  0.15344025205E+01 -0.97794601401E+02 -0.23995466839E+03  0.28773579798E+03  0.12509000000E+03 0.  0.
<mgrwt>
<rscale>  2 0.46902069E+03</rscale>
<asrwt>0</asrwt>
<pdfrwt beam="1">  1       21 0.91598430E-02 0.46902069E+03</pdfrwt>
<pdfrwt beam="2">  1       21 0.12984289E+00 0.46902069E+03</pdfrwt>
<totfact> 0.37096049E+04</totfact>
</mgrwt>
</event>
<event>
 7    0  0.4831799E-002  0.4711839E+03  0.7546771E-02  0.1021587E+00
         21   -1    0    0  502  501  0.00000000000E+00  0.00000000000E+00  0.58278562115E+03  0.58278562115E+03  0.00000000000E+00 0. -1.
         21   -1    0    0  501  502 -0.00000000000E+00 -0.00000000000E+00 -0.95238401637E+02  0.95238401637E+02  0.00000000000E+00 0. -1.
      99926    2    1    2    0    0  0.00000000000E+00  0.00000000000E+00  0.48754721952E+03  0.67802402279E+03  0.47118391762E+03 0.  0.
      99925    2    3    3    0    0  0.88413764003E+02 -0.84658068893E+02  0.35560781460E+03  0.45884487925E+03  0.26286445769E+03 0.  0.
         25    1    4    4    0    0  0.30430421242E+02 -0.74742152255E+02  0.15205241818E+03  0.21279061501E+03  0.12509000000E+03 0.  0.
         25    1    4    4    0    0  0.57983342761E+02 -0.99159166386E+01  0.20355539642E+03  0.24605426424E+03  0.12509000000E+03 0.  0.
         25    1    3    3    0    0 -0.88413764003E+02  0.84658068893E+02  0.13193940492E+03  0.21917914354E+03  0.12509000000E+03 0.  0.
<mgrwt>
<rscale>  2 0.47118392E+03</rscale>
<asrwt>0</asrwt>
<pdfrwt beam="1">  1       21 0.85703766E-01 0.47118392E+03</pdfrwt>
<pdfrwt beam="2">  1       21 0.14005648E-01 0.47118392E+03</pdfrwt>
<totfact> 0.47727105E+04</totfact>
</mgrwt>
</event>
<event>
 7    0  0.4831799E-002  0.4571461E+03  0.7546771E-02  0.1025612E+00
         21   -1    0    0  502  501  0.00000000000E+00  0.00000000000E+00  0.53890995899E+02  0.53890995899E+02  0.00000000000E+00 0.  1.
         21   -1    0    0  501  502 -0.00000000000E+00 -0.00000000000E+00 -0.96946865112E+03  0.96946865112E+03  0.00000000000E+00 0.  1.
      99926    2    1    2    0    0  0.00000000000E+00  0.00000000000E+00 -0.91557765522E+03  0.10233596470E+04  0.45714606463E+03 0.  0.
      99925    2    3    3    0    0  0.11209861854E+03 -0.20722319592E+02 -0.53947450674E+03  0.61093195492E+03  0.26307716609E+03 0.  0.
         25    1    4    4    0    0  0.55789814052E+02 -0.10635024526E+01 -0.35268371025E+03  0.37834764697E+03  0.12509000000E+03 0.  0.
         25    1    4    4    0    0  0.56308804493E+02 -0.19658817139E+02 -0.18679079648E+03  0.23258430795E+03  0.12509000000E+03 0.  0.
         25    1    3    3    0    0 -0.11209861854E+03  0.20722319592E+02 -0.37610314848E+03  0.41242769210E+03  0.12509000000E+03 0.  0.
<mgrwt>
<rscale>  2 0.45714606E+03</rscale>
<asrwt>0</asrwt>
<pdfrwt beam="1">  1       21 0.79251464E-02 0.45714606E+03</pdfrwt>
<pdfrwt beam="2">  1       21 0.14256892E+00 0.45714606E+03</pdfrwt>
<totfact> 0.37635767E+04</totfact>
</mgrwt>
</event>
<event>
 7    0  0.4831799E-002  0.4775070E+03  0.7546771E-02  0.1019823E+00
         21   -1    0    0  502  501  0.00000000000E+00  0.00000000000E+00  0.31688981411E+02  0.31688981411E+02  0.00000000000E+00 0.  1.
         21   -1    0    0  501  502 -0.00000000000E+00 -0.00000000000E+00 -0.17988343727E+04  0.17988343727E+04  0.00000000000E+00 0.  1.
      99926    2    1    2    0    0 -0.35527136788E-14 -0.44408920985E-15 -0.17671453913E+04  0.18305233541E+04  0.47750698004E+03 0.  0.
      99925    2    3    3    0    0 -0.30026961295E+02  0.21626776749E+01 -0.15887406534E+04  0.16105641438E+04  0.26251419407E+03 0.  0.
         25    1    4    4    0    0  0.13231346529E+02 -0.24423294939E+02 -0.84704705819E+03  0.85668418496E+03  0.12509000000E+03 0.  0.
         25    1    4    4    0    0 -0.43258307824E+02  0.26585972614E+02 -0.74169359521E+03  0.75387995889E+03  0.12509000000E+03 0.  0.
         25    1    3    3    0    0  0.30026961295E+02 -0.21626776749E+01 -0.17840473788E+03  0.21995921026E+03  0.12509000000E+03 0.  0.
<mgrwt>
<rscale>  2 0.47750698E+03</rscale>
<asrwt>0</asrwt>
<pdfrwt beam="1">  1       21 0.46601447E-02 0.47750698E+03</pdfrwt>
<pdfrwt beam="2">  1       21 0.26453444E+00 0.47750698E+03</pdfrwt>
<totfact> 0.14058639E+04</totfact>
</mgrwt>
</event>
<event>
 7    0  0.4831799E-002  0.4541995E+03  0.7546771E-02  0.1026477E+00
         21   -1    0    0  502  501  0.00000000000E+00  0.00000000000E+00  0.12049949129E+03  0.12049949129E+03  0.00000000000E+00 0.  1.
         21   -1    0    0  501  502 -0.00000000000E+00 -0.00000000000E+00 -0.42800426027E+03  0.42800426027E+03  0.00000000000E+00 0.  1.
      99926    2    1    2    0    0  0.00000000000E+00  0.00000000000E+00 -0.30750476898E+03  0.54850375156E+03  0.45419949639E+03 0.  0.
      99925    2    3    3    0    0  0.58561568658E+02 -0.82794858629E+02 -0.25213465405E+03  0.37821633668E+03  0.26304233046E+03 0.  0.
         25    1    4    4    0    0  0.25535968075E+02 -0.81247848303E+02 -0.15320729102E+03  0.21534456260E+03  0.12509000000E+03 0.  0.
         25    1    4    4    0    0  0.33025600583E+02 -0.15470103261E+01 -0.98927363037E+02  0.16287177408E+03  0.12509000000E+03 0.  0.
         25    1    3    3    0    0 -0.58561568658E+02  0.82794858629E+02 -0.55370114932E+02  0.17028741488E+03  0.12509000000E+03 0.  0.
<mgrwt>
<rscale>  2 0.45419950E+03</rscale>
<asrwt>0</asrwt>
<pdfrwt beam="1">  1       21 0.17720513E-01 0.45419950E+03</pdfrwt>
<pdfrwt beam="2">  1       21 0.62941803E-01 0.45419950E+03</pdfrwt>
<totfact> 0.62359525E+04</totfact>
</mgrwt>
</event>
<event>
 7    0  0.4831799E-002  0.4536573E+03  0.7546771E-02  0.1026637E+00
         21   -1    0    0  502  501  0.00000000000E+00  0.00000000000E+00  0.97433665958E+02  0.97433665958E+02  0.00000000000E+00 0.  1.
         21   -1    0    0  501  502 -0.00000000000E+00 -0.00000000000E+00 -0.52806433515E+03  0.52806433515E+03  0.00000000000E+00 0.  1.
      99926    2    1    2    0    0  0.00000000000E+00  0.14210854715E-13 -0.43063066919E+03  0.62549800111E+03  0.45365733339E+03 0.  0.
      99925    2    3    3    0    0 -0.50885854967E+01  0.10180405460E+03 -0.33482875873E+03  0.43784013854E+03  0.26306601834E+03 0.  0.
         25    1    4    4    0    0 -0.13487748314E+02  0.52068120140E+02 -0.10739008699E+03  0.17341611048E+03  0.12509000000E+03 0.  0.
         25    1    4    4    0    0  0.83991628174E+01  0.49735934463E+02 -0.22743867174E+03  0.26442402806E+03  0.12509000000E+03 0.  0.
         25    1    3    3    0    0  0.50885854967E+01 -0.10180405460E+03 -0.95801910463E+02  0.18765786257E+03  0.12509000000E+03 0.  0.
<mgrwt>
<rscale>  2 0.45365733E+03</rscale>
<asrwt>0</asrwt>
<pdfrwt beam="1">  1       21 0.14328480E-01 0.45365733E+03</pdfrwt>
<pdfrwt beam="2">  1       21 0.77656519E-01 0.45365733E+03</pdfrwt>
<totfact> 0.57745318E+04</totfact>
</mgrwt>
</event>
<event>
 7    0  0.4831799E-002  0.4517767E+03  0.7546771E-02  0.1027194E+00
         21   -1    0    0  502  501  0.00000000000E+00  0.00000000000E+00  0.43050757165E+02  0.43050757165E+02  0.00000000000E+00 0. -1.
         21   -1    0    0  501  502 -0.00000000000E+00 -0.00000000000E+00 -0.11852415804E+04  0.11852415804E+04  0.00000000000E+00 0. -1.
      99926    2    1    2    0    0  0.00000000000E+00  0.00000000000E+00 -0.11421908233E+04  0.12282923376E+04  0.45177670352E+03 0.  0.
      99925    2    3    3    0    0 -0.57890143690E+02 -0.75134169617E+02 -0.56637257796E+03  0.63145854842E+03  0.26261300257E+03 0.  0.
         25    1    4    4    0    0 -0.82609170300E+01 -0.60960243686E+02 -0.23081548484E+03  0.26964363557E+03  0.12509000000E+03 0.  0.
         25    1    4    4    0    0 -0.49629226660E+02 -0.14173925931E+02 -0.33555709312E+03  0.36181491285E+03  0.12509000000E+03 0.  0.
         25    1    3    3    0    0  0.57890143690E+02  0.75134169617E+02 -0.57581824532E+03  0.59683378919E+03  0.12509000000E+03 0.  0.
<mgrwt>
<rscale>  2 0.45177670E+03</rscale>
<asrwt>0</asrwt>
<pdfrwt beam="1">  1       21 0.63309943E-02 0.45177670E+03</pdfrwt>
<pdfrwt beam="2">  1       21 0.17430022E+00 0.45177670E+03</pdfrwt>
<totfact> 0.32067664E+04</totfact>
</mgrwt>
</event>
<event>
 7    0  0.4831799E-002  0.4501717E+03  0.7546771E-02  0.1027671E+00
         21   -1    0    0  502  501  0.00000000000E+00  0.00000000000E+00  0.50246384209E+03  0.50246384209E+03  0.00000000000E+00 0.  1.
         21   -1    0    0  501  502 -0.00000000000E+00 -0.00000000000E+00 -0.10083043764E+03  0.10083043764E+03  0.00000000000E+00 0.  1.
      99926    2    1    2    0    0 -0.17763568394E-14  0.14210854715E-13  0.40163340445E+03  0.60329427973E+03  0.45017174099E+03 0.  0.
      99925    2    3    3    0    0 -0.11873510461E+02  0.71587230351E+02  0.14584988533E+03  0.30946026442E+03  0.26311167668E+03 0.  0.
         25    1    4    4    0    0 -0.33967200649E+02  0.54804521155E+02  0.10285151090E+03  0.17430791047E+03  0.12509000000E+03 0.  0.
         25    1    4    4    0    0  0.22093690188E+02  0.16782709195E+02  0.42998374427E+02  0.13515235395E+03  0.12509000000E+03 0.  0.
         25    1    3    3    0    0  0.11873510461E+02 -0.71587230351E+02  0.25578351912E+03  0.29383401531E+03  0.12509000000E+03 0.  0.
<mgrwt>
<rscale>  2 0.45017174E+03</rscale>
<asrwt>0</asrwt>
<pdfrwt beam="1">  1       21 0.73891740E-01 0.45017174E+03</pdfrwt>
<pdfrwt beam="2">  1       21 0.14828006E-01 0.45017174E+03</pdfrwt>
<totfact> 0.60760696E+04</totfact>
</mgrwt>
</event>
<event>
 7    0  0.4831799E-002  0.4574489E+03  0.7546771E-02  0.1025524E+00
         21   -1    0    0  502  501  0.00000000000E+00  0.00000000000E+00  0.21143992475E+02  0.21143992475E+02  0.00000000000E+00 0.  1.
         21   -1    0    0  501  502 -0.00000000000E+00 -0.00000000000E+00 -0.24742197397E+04  0.24742197397E+04  0.00000000000E+00 0.  1.
      99926    2    1    2    0    0 -0.22204460493E-15  0.00000000000E+00 -0.24530757472E+04  0.24953637321E+04  0.45744894166E+03 0.  0.
      99925    2    3    3    0    0  0.58285046388E+00  0.62103015178E+02 -0.20711459510E+04  0.20887004789E+04  0.26299622819E+03 0.  0.
         25    1    4    4    0    0 -0.34551038065E+01  0.35501983714E+02 -0.73307352524E+03  0.74452443217E+03  0.12509000000E+03 0.  0.
         25    1    3    3    0    0 -0.58285046388E+00 -0.62103015178E+02 -0.38192979617E+03  0.40666325321E+03  0.12509000000E+03 0.  0.
         25    1    4    4    0    0  0.40379542704E+01  0.26601031464E+02 -0.13380724258E+04  0.13441760468E+04  0.12509000000E+03 0.  0.
<mgrwt>
<rscale>  2 0.45744894E+03</rscale>
<asrwt>0</asrwt>
<pdfrwt beam="1">  1       21 0.31094128E-02 0.45744894E+03</pdfrwt>
<pdfrwt beam="2">  1       21 0.36385559E+00 0.45744894E+03</pdfrwt>
<totfact> 0.70442798E+03</totfact>
</mgrwt>
</event>
<event>
 7    0  0.4831799E-002  0.4601391E+03  0.7546771E-02  0.1024741E+00
         21   -1    0    0  502  501  0.00000000000E+00  0.00000000000E+00  0.22058080755E+03  0.22058080755E+03  0.00000000000E+00 0.  1.
         21   -1    0    0  501  502 -0.00000000000E+00 -0.00000000000E+00 -0.23996649756E+03  0.23996649756E+03  0.00000000000E+00 0.  1.
      99926    2    1    2    0    0  0.00000000000E+00  0.00000000000E+00 -0.19385690018E+02  0.46054730511E+03  0.46013912599E+03 0.  0.
      99925    2    3    3    0    0 -0.63767810291E+02 -0.88596013432E+02 -0.56530659960E+02  0.29042133967E+03  0.26312212335E+03 0.  0.
         25    1    3    3    0    0  0.63767810291E+02  0.88596013432E+02  0.37144969942E+02  0.17012596544E+03  0.12509000000E+03 0.  0.
         25    1    4    4    0    0 -0.41251729499E+02 -0.60232502121E+02  0.80549624450E+01  0.14505878125E+03  0.12509000000E+03 0.  0.
         25    1    4    4    0    0 -0.22516080792E+02 -0.28363511312E+02 -0.64585622405E+02  0.14536255842E+03  0.12509000000E+03 0.  0.
<mgrwt>
<rscale>  2 0.46013913E+03</rscale>
<asrwt>0</asrwt>
<pdfrwt beam="1">  1       21 0.32438354E-01 0.46013913E+03</pdfrwt>
<pdfrwt beam="2">  1       21 0.35289191E-01 0.46013913E+03</pdfrwt>
<totfact> 0.65417473E+04</totfact>
</mgrwt>
</event>
<event>
 7    0  0.4831799E-002  0.4591929E+03  0.7546771E-02  0.1025016E+00
         21   -1    0    0  502  501  0.00000000000E+00  0.00000000000E+00  0.22911912992E+03  0.22911912992E+03  0.00000000000E+00 0. -1.
         21   -1    0    0  501  502 -0.00000000000E+00 -0.00000000000E+00 -0.23007479334E+03  0.23007479334E+03  0.00000000000E+00 0. -1.
      99926    2    1    2    0    0  0.71054273576E-14  0.00000000000E+00 -0.95566342516E+00  0.45919392326E+03  0.45919292880E+03 0.  0.
      99925    2    3    3    0    0 -0.58651852163E+02 -0.35854804157E+02  0.94164219955E+02  0.28766868588E+03  0.26298434511E+03 0.  0.
         25    1    3    3    0    0  0.58651852163E+02  0.35854804157E+02 -0.95119883380E+02  0.17152523738E+03  0.12509000000E+03 0.  0.
         25    1    4    4    0    0  0.10962662728E+02 -0.24000114695E+02  0.37254914053E+02  0.13316013743E+03  0.12509000000E+03 0.  0.
         25    1    4    4    0    0 -0.69614514891E+02 -0.11854689462E+02  0.56909305901E+02  0.15450854845E+03  0.12509000000E+03 0.  0.
<mgrwt>
<rscale>  2 0.45919293E+03</rscale>
<asrwt>0</asrwt>
<pdfrwt beam="1">  1       21 0.33693990E-01 0.45919293E+03</pdfrwt>
<pdfrwt beam="2">  1       21 0.33834528E-01 0.45919293E+03</pdfrwt>
<totfact> 0.66003672E+04</totfact>
</mgrwt>
</event>
<event>
 7    0  0.4831799E-002  0.4491147E+03  0.7546771E-02  0.1027986E+00
         21   -1    0    0  502  501  0.00000000000E+00  0.00000000000E+00  0.23516823804E+03  0.23516823804E+03  0.00000000000E+00 0. -1.
         21   -1    0    0  501  502 -0.00000000000E+00 -0.00000000000E+00 -0.21442523379E+03  0.21442523379E+03  0.00000000000E+00 0. -1.
      99926    2    1    2    0    0  0.00000000000E+00  0.71054273576E-14  0.20743004250E+02  0.44959347184E+03  0.44911470438E+03 0.  0.
      99925    2    3    3    0    0  0.65185885641E+02  0.41881763036E+02 -0.61570435490E+02  0.28099248660E+03  0.26298778914E+03 0.  0.
         25    1    4    4    0    0  0.64541336125E+02  0.33596451649E+02 -0.57028750468E+02  0.15554450203E+03  0.12509000000E+03 0.  0.
         25    1    4    4    0    0  0.64454951560E+00  0.82853113868E+01 -0.45416850222E+01  0.12544798457E+03  0.12509000000E+03 0.  0.
         25    1    3    3    0    0 -0.65185885641E+02 -0.41881763036E+02  0.82313439739E+02  0.16860098524E+03  0.12509000000E+03 0.  0.
<mgrwt>
<rscale>  2 0.44911470E+03</rscale>
<asrwt>0</asrwt>
<pdfrwt beam="1">  1       21 0.34583565E-01 0.44911470E+03</pdfrwt>
<pdfrwt beam="2">  1       21 0.31533123E-01 0.44911470E+03</pdfrwt>
<totfact> 0.72278621E+04</totfact>
</mgrwt>
</event>
<event>
 7    0  0.4831799E-002  0.4539737E+03  0.7546771E-02  0.1026544E+00
         21   -1    0    0  502  501  0.00000000000E+00  0.00000000000E+00  0.29297816885E+03  0.29297816885E+03  0.00000000000E+00 0.  1.
         21   -1    0    0  501  502 -0.00000000000E+00 -0.00000000000E+00 -0.17585964434E+03  0.17585964434E+03  0.00000000000E+00 0.  1.
      99926    2    1    2    0    0  0.00000000000E+00  0.00000000000E+00  0.11711852451E+03  0.46883781319E+03  0.45397372863E+03 0.  0.
      99925    2    3    3    0    0  0.76508697108E+02  0.75937322314E+02  0.41630034778E+02  0.28727218363E+03  0.26300606464E+03 0.  0.
         25    1    4    4    0    0 -0.32268478522E+01  0.29091448001E+02  0.24302877283E+02  0.13074732440E+03  0.12509000000E+03 0.  0.
         25    1    3    3    0    0 -0.76508697108E+02 -0.75937322314E+02  0.75488489733E+02  0.18156562955E+03  0.12509000000E+03 0.  0.
         25    1    4    4    0    0  0.79735544961E+02  0.46845874313E+02  0.17327157496E+02  0.15652485923E+03  0.12509000000E+03 0.  0.
<mgrwt>
<rscale>  2 0.45397373E+03</rscale>
<asrwt>0</asrwt>
<pdfrwt beam="1">  1       21 0.43085025E-01 0.45397373E+03</pdfrwt>
<pdfrwt beam="2">  1       21 0.25861712E-01 0.45397373E+03</pdfrwt>
<totfact> 0.68074790E+04</totfact>
</mgrwt>
</event>
<event>
 7    0  0.4831799E-002  0.4608515E+03  0.7546771E-02  0.1024535E+00
         21   -1    0    0  502  501  0.00000000000E+00  0.00000000000E+00  0.37267675508E+03  0.37267675508E+03  0.00000000000E+00 0. -1.
         21   -1    0    0  501  502 -0.00000000000E+00 -0.00000000000E+00 -0.14247207205E+03  0.14247207205E+03  0.00000000000E+00 0. -1.
      99926    2    1    2    0    0  0.00000000000E+00 -0.71054273576E-14  0.23020468303E+03  0.51514882713E+03  0.46085151405E+03 0.  0.
      99925    2    3    3    0    0  0.78486487833E+02 -0.38277436193E+02  0.23374043787E+03  0.36255360913E+03  0.26303086568E+03 0.  0.
         25    1    4    4    0    0  0.28947675988E+02 -0.53660686107E+02  0.14306154596E+03  0.19957843373E+03  0.12509000000E+03 0.  0.
         25    1    4    4    0    0  0.49538811846E+02  0.15383249914E+02  0.90678891916E+02  0.16297517540E+03  0.12509000000E+03 0.  0.
         25    1    3    3    0    0 -0.78486487833E+02  0.38277436193E+02 -0.35357548449E+01  0.15259521800E+03  0.12509000000E+03 0.  0.
<mgrwt>
<rscale>  2 0.46085151E+03</rscale>
<asrwt>0</asrwt>
<pdfrwt beam="1">  1       21 0.54805405E-01 0.46085151E+03</pdfrwt>
<pdfrwt beam="2">  1       21 0.20951775E-01 0.46085151E+03</pdfrwt>
<totfact> 0.61321546E+04</totfact>
</mgrwt>
</event>
<event>
 7    0  0.4831799E-002  0.4477012E+03  0.7546771E-02  0.1028410E+00
         21   -1    0    0  502  501  0.00000000000E+00  0.00000000000E+00  0.68548293890E+02  0.68548293890E+02  0.00000000000E+00 0. -1.
         21   -1    0    0  501  502 -0.00000000000E+00 -0.00000000000E+00 -0.73100406158E+03  0.73100406158E+03  0.00000000000E+00 0. -1.
      99926    2    1    2    0    0  0.00000000000E+00  0.14210854715E-13 -0.66245576769E+03  0.79955235547E+03  0.44770115590E+03 0.  0.
      99925    2    3    3    0    0 -0.36602147773E+02 -0.89421859683E+02 -0.49826998695E+03  0.57164784716E+03  0.26300626429E+03 0.  0.
         25    1    4    4    0    0 -0.12462875877E+02 -0.74324963191E+02 -0.20652164528E+03  0.25293916561E+03  0.12509000000E+03 0.  0.
         25    1    3    3    0    0  0.36602147773E+02  0.89421859683E+02 -0.16418578074E+03  0.22790450831E+03  0.12509000000E+03 0.  0.
         25    1    4    4    0    0 -0.24139271896E+02 -0.15096896491E+02 -0.29174834166E+03  0.31870868155E+03  0.12509000000E+03 0.  0.
<mgrwt>
<rscale>  2 0.44770116E+03</rscale>
<asrwt>0</asrwt>
<pdfrwt beam="1">  1       21 0.10080632E-01 0.44770116E+03</pdfrwt>
<pdfrwt beam="2">  1       21 0.10750059E+00 0.44770116E+03</pdfrwt>
<totfact> 0.50624576E+04</totfact>
</mgrwt>
</event>
<event>
 7    0  0.4831799E-002  0.4394426E+03  0.7546771E-02  0.1030918E+00
         21   -1    0    0  502  501  0.00000000000E+00  0.00000000000E+00  0.56281105344E+02  0.56281105344E+02  0.00000000000E+00 0. -1.
         21   -1    0    0  501  502 -0.00000000000E+00 -0.00000000000E+00 -0.85779139139E+03  0.85779139139E+03  0.00000000000E+00 0. -1.
      99926    2    1    2    0    0  0.00000000000E+00  0.00000000000E+00 -0.80151028604E+03  0.91407249673E+03  0.43944259085E+03 0.  0.
      99925    2    3    3    0    0 -0.12079053061E+02 -0.85582379677E+02 -0.41631052619E+03  0.49995100450E+03  0.26299487724E+03 0.  0.
         25    1    3    3    0    0  0.12079053061E+02  0.85582379677E+02 -0.38519975986E+03  0.41412149223E+03  0.12509000000E+03 0.  0.
         25    1    4    4    0    0 -0.12518519895E+02 -0.78580405139E+01 -0.15226645088E+03  0.19761336571E+03  0.12509000000E+03 0.  0.
         25    1    4    4    0    0  0.43946683437E+00 -0.77724339163E+02 -0.26404407530E+03  0.30233763879E+03  0.12509000000E+03 0.  0.
<mgrwt>
<rscale>  2 0.43944259E+03</rscale>
<asrwt>0</asrwt>
<pdfrwt beam="1">  1       21 0.82766333E-02 0.43944259E+03</pdfrwt>
<pdfrwt beam="2">  1       21 0.12614579E+00 0.43944259E+03</pdfrwt>
<totfact> 0.48239686E+04</totfact>
</mgrwt>
</event>
<event>
 7    0  0.4831799E-002  0.4289207E+03  0.7546771E-02  0.1034201E+00
         21   -1    0    0  502  501  0.00000000000E+00  0.00000000000E+00  0.11248915406E+04  0.11248915406E+04  0.00000000000E+00 0. -1.
         21   -1    0    0  501  502 -0.00000000000E+00 -0.00000000000E+00 -0.40886824880E+02  0.40886824880E+02  0.00000000000E+00 0. -1.
      99926    2    1    2    0    0  0.71054273576E-14  0.00000000000E+00  0.10840047157E+04  0.11657783655E+04  0.42892070797E+03 0.  0.
      99925    2    3    3    0    0 -0.54662167724E+02  0.29215806931E+02  0.86318161296E+03  0.90452778315E+03  0.26314729258E+03 0.  0.
         25    1    4    4    0    0 -0.51775928606E+02  0.46505251956E+02  0.49495412105E+03  0.51523836744E+03  0.12509000000E+03 0.  0.
         25    1    3    3    0    0  0.54662167724E+02 -0.29215806931E+02  0.22082310278E+03  0.26125058235E+03  0.12509000000E+03 0.  0.
         25    1    4    4    0    0 -0.28862391177E+01 -0.17289445026E+02  0.36822749191E+03  0.38928941571E+03  0.12509000000E+03 0.  0.
<mgrwt>
<rscale>  2 0.42892071E+03</rscale>
<asrwt>0</asrwt>
<pdfrwt beam="1">  1       21 0.16542521E+00 0.42892071E+03</pdfrwt>
<pdfrwt beam="2">  1       21 0.60127691E-02 0.42892071E+03</pdfrwt>
<totfact> 0.40974058E+04</totfact>
</mgrwt>
</event>
<event>
 7    0  0.4831799E-002  0.4660358E+03  0.7546771E-02  0.1023045E+00
         21   -1    0    0  502  501  0.00000000000E+00  0.00000000000E+00  0.13003807924E+03  0.13003807924E+03  0.00000000000E+00 0. -1.
         21   -1    0    0  501  502 -0.00000000000E+00 -0.00000000000E+00 -0.41754963585E+03  0.41754963585E+03  0.00000000000E+00 0. -1.
      99926    2    1    2    0    0  0.71054273576E-14  0.00000000000E+00 -0.28751155661E+03  0.54758771508E+03  0.46603584682E+03 0.  0.
      99925    2    3    3    0    0  0.38168321447E+02  0.91289747690E+02 -0.26548120921E+03  0.38658000377E+03  0.26300796200E+03 0.  0.
         25    1    4    4    0    0  0.50661271386E+02  0.71976741246E+02 -0.15996107214E+03  0.22131938098E+03  0.12509000000E+03 0.  0.
         25    1    3    3    0    0 -0.38168321447E+02 -0.91289747690E+02 -0.22030347397E+02  0.16100771131E+03  0.12509000000E+03 0.  0.
         25    1    4    4    0    0 -0.12492949940E+02  0.19313006444E+02 -0.10552013708E+03  0.16526062279E+03  0.12509000000E+03 0.  0.
<mgrwt>
<rscale>  2 0.46603585E+03</rscale>
<asrwt>0</asrwt>
<pdfrwt beam="1">  1       21 0.19123247E-01 0.46603585E+03</pdfrwt>
<pdfrwt beam="2">  1       21 0.61404359E-01 0.46603585E+03</pdfrwt>
<totfact> 0.56891203E+04</totfact>
</mgrwt>
</event>
<event>
 7    0  0.4831799E-002  0.4591205E+03  0.7546771E-02  0.1025037E+00
         21   -1    0    0  502  501  0.00000000000E+00  0.00000000000E+00  0.44928867176E+03  0.44928867176E+03  0.00000000000E+00 0. -1.
         21   -1    0    0  501  502 -0.00000000000E+00 -0.00000000000E+00 -0.11729188058E+03  0.11729188058E+03  0.00000000000E+00 0. -1.
      99926    2    1    2    0    0  0.00000000000E+00  0.00000000000E+00  0.33199679118E+03  0.56658055235E+03  0.45912052115E+03 0.  0.
      99925    2    3    3    0    0  0.12098990888E+02  0.11550356583E+03  0.22616021578E+03  0.36574144238E+03  0.26292755689E+03 0.  0.
         25    1    3    3    0    0 -0.12098990888E+02 -0.11550356583E+03  0.10583657540E+03  0.20083910997E+03  0.12509000000E+03 0.  0.
         25    1    4    4    0    0  0.13196508021E+02  0.35764558306E+02  0.14995464939E+03  0.19896521412E+03  0.12509000000E+03 0.  0.
         25    1    4    4    0    0 -0.10975171328E+01  0.79739007522E+02  0.76205566386E+02  0.16677622826E+03  0.12509000000E+03 0.  0.
<mgrwt>
<rscale>  2 0.45912052E+03</rscale>
<asrwt>0</asrwt>
<pdfrwt beam="1">  1       21 0.66071863E-01 0.45912052E+03</pdfrwt>
<pdfrwt beam="2">  1       21 0.17248806E-01 0.45912052E+03</pdfrwt>
<totfact> 0.58842849E+04</totfact>
</mgrwt>
</event>
<event>
 7    0  0.4831799E-002  0.4554633E+03  0.7546771E-02  0.1026105E+00
         21   -1    0    0  502  501  0.00000000000E+00  0.00000000000E+00  0.36606666826E+03  0.36606666826E+03  0.00000000000E+00 0. -1.
         21   -1    0    0  501  502 -0.00000000000E+00 -0.00000000000E+00 -0.14167285770E+03  0.14167285770E+03  0.00000000000E+00 0. -1.
      99926    2    1    2    0    0  0.71054273576E-14  0.00000000000E+00  0.22439381057E+03  0.50773952596E+03  0.45546332893E+03 0.  0.
      99925    2    3    3    0    0 -0.45208457138E+02 -0.76558033762E+02  0.22000374424E+03  0.35420868895E+03  0.26297758596E+03 0.  0.
         25    1    4    4    0    0 -0.60115803875E+02 -0.56039750660E+02  0.12683412450E+03  0.19618554168E+03  0.12509000000E+03 0.  0.
         25    1    3    3    0    0  0.45208457138E+02  0.76558033762E+02  0.43900663237E+01  0.15353083701E+03  0.12509000000E+03 0.  0.
         25    1    4    4    0    0  0.14907346737E+02 -0.20518283102E+02  0.93169619747E+02  0.15802314727E+03  0.12509000000E+03 0.  0.
<mgrwt>
<rscale>  2 0.45546333E+03</rscale>
<asrwt>0</asrwt>
<pdfrwt beam="1">  1       21 0.53833333E-01 0.45546333E+03</pdfrwt>
<pdfrwt beam="2">  1       21 0.20834244E-01 0.45546333E+03</pdfrwt>
<totfact> 0.64492795E+04</totfact>
</mgrwt>
</event>
<event>
 7    0  0.4831799E-002  0.4521025E+03  0.7546771E-02  0.1027097E+00
         21   -1    0    0  502  501  0.00000000000E+00  0.00000000000E+00  0.91388216896E+02  0.91388216896E+02  0.00000000000E+00 0. -1.
         21   -1    0    0  501  502 -0.00000000000E+00 -0.00000000000E+00 -0.55914387708E+03  0.55914387708E+03  0.00000000000E+00 0. -1.
      99926    2    1    2    0    0 -0.17763568394E-14  0.26645352591E-14 -0.46775566018E+03  0.65053209398E+03  0.45210247473E+03 0.  0.
      99925    2    3    3    0    0 -0.31241218961E+01 -0.22207721783E+01 -0.45402093453E+03  0.52463196389E+03  0.26284785823E+03 0.  0.
         25    1    3    3    0    0  0.31241218961E+01  0.22207721783E+01 -0.13734725653E+02  0.12590013009E+03  0.12509000000E+03 0.  0.
         25    1    4    4    0    0  0.17058922788E+02  0.29245564407E+02 -0.26388025396E+03  0.29398402408E+03  0.12509000000E+03 0.  0.
         25    1    4    4    0    0 -0.20183044684E+02 -0.31466336585E+02 -0.19014068057E+03  0.23064793981E+03  0.12509000000E+03 0.  0.
<mgrwt>
<rscale>  2 0.45210247E+03</rscale>
<asrwt>0</asrwt>
<pdfrwt beam="1">  1       21 0.13439444E-01 0.45210247E+03</pdfrwt>
<pdfrwt beam="2">  1       21 0.82227040E-01 0.45210247E+03</pdfrwt>
<totfact> 0.56961726E+04</totfact>
</mgrwt>
</event>
<event>
 7    0  0.4831799E-002  0.4526971E+03  0.7546771E-02  0.1026921E+00
         21   -1    0    0  502  501  0.00000000000E+00  0.00000000000E+00  0.65415565531E+03  0.65415565531E+03  0.00000000000E+00 0. -1.
         21   -1    0    0  501  502 -0.00000000000E+00 -0.00000000000E+00 -0.78320304669E+02  0.78320304669E+02  0.00000000000E+00 0. -1.
      99926    2    1    2    0    0  0.00000000000E+00  0.00000000000E+00  0.57583535064E+03  0.73247595998E+03  0.45269711828E+03 0.  0.
      99925    2    3    3    0    0  0.47109031653E+02  0.86995824311E+02  0.28130625834E+03  0.39753950538E+03  0.26290095672E+03 0.  0.
         25    1    4    4    0    0  0.16621821162E+02  0.81813827606E+02  0.17284147308E+03  0.22911017054E+03  0.12509000000E+03 0.  0.
         25    1    4    4    0    0  0.30487210491E+02  0.51819967052E+01  0.10846478526E+03  0.16842933484E+03  0.12509000000E+03 0.  0.
         25    1    3    3    0    0 -0.47109031653E+02 -0.86995824311E+02  0.29452909230E+03  0.33493645461E+03  0.12509000000E+03 0.  0.
<mgrwt>
<rscale>  2 0.45269712E+03</rscale>
<asrwt>0</asrwt>
<pdfrwt beam="1">  1       21 0.96199358E-01 0.45269712E+03</pdfrwt>
<pdfrwt beam="2">  1       21 0.11517692E-01 0.45269712E+03</pdfrwt>
<totfact> 0.52112200E+04</totfact>
</mgrwt>
</event>
<event>
 7    0  0.4831799E-002  0.4549324E+03  0.7546771E-02  0.1026261E+00
         21   -1    0    0  502  501  0.00000000000E+00  0.00000000000E+00  0.38368234901E+02  0.38368234901E+02  0.00000000000E+00 0.  1.
         21   -1    0    0  501  502 -0.00000000000E+00 -0.00000000000E+00 -0.13485338668E+04  0.13485338668E+04  0.00000000000E+00 0.  1.
      99926    2    1    2    0    0  0.00000000000E+00  0.00000000000E+00 -0.13101656319E+04  0.13869021017E+04  0.45493236497E+03 0.  0.
      99925    2    3    3    0    0  0.34474887353E+02  0.36871220760E+02 -0.51469797454E+03  0.58007851083E+03  0.26273383672E+03 0.  0.
         25    1    4    4    0    0  0.47739396514E+01  0.51847869404E+02 -0.30350906910E+03  0.33237968528E+03  0.12509000000E+03 0.  0.
         25    1    3    3    0    0 -0.34474887353E+02 -0.36871220760E+02 -0.79546765736E+03  0.80682359087E+03  0.12509000000E+03 0.  0.
         25    1    4    4    0    0  0.29700947702E+02 -0.14976648644E+02 -0.21118890544E+03  0.24769882555E+03  0.12509000000E+03 0.  0.
<mgrwt>
<rscale>  2 0.45493236E+03</rscale>
<asrwt>0</asrwt>
<pdfrwt beam="1">  1       21 0.56423881E-02 0.45493236E+03</pdfrwt>
<pdfrwt beam="2">  1       21 0.19831378E+00 0.45493236E+03</pdfrwt>
<totfact> 0.26697171E+04</totfact>
</mgrwt>
</event>
<event>
 7    0  0.4831799E-002  0.4541793E+03  0.7546771E-02  0.1026483E+00
         21   -1    0    0  502  501  0.00000000000E+00  0.00000000000E+00  0.13769961550E+03  0.13769961550E+03  0.00000000000E+00 0. -1.
         21   -1    0    0  501  502 -0.00000000000E+00 -0.00000000000E+00 -0.37450871518E+03  0.37450871518E+03  0.00000000000E+00 0. -1.
      99926    2    1    2    0    0  0.14210854715E-13  0.00000000000E+00 -0.23680909968E+03  0.51220833068E+03  0.45417928654E+03 0.  0.
      99925    2    3    3    0    0  0.78755261296E+02  0.28675289159E+02 -0.23347122434E+03  0.36159852721E+03  0.26309697621E+03 0.  0.
         25    1    4    4    0    0  0.29717262603E+02  0.15134814608E+02 -0.62576107574E+02  0.14378962288E+03  0.12509000000E+03 0.  0.
         25    1    3    3    0    0 -0.78755261296E+02 -0.28675289159E+02 -0.33378753351E+01  0.15060980347E+03  0.12509000000E+03 0.  0.
         25    1    4    4    0    0  0.49037998692E+02  0.13540474551E+02 -0.17089511677E+03  0.21780890432E+03  0.12509000000E+03 0.  0.
<mgrwt>
<rscale>  2 0.45417929E+03</rscale>
<asrwt>0</asrwt>
<pdfrwt beam="1">  1       21 0.20249944E-01 0.45417929E+03</pdfrwt>
<pdfrwt beam="2">  1       21 0.55074810E-01 0.45417929E+03</pdfrwt>
<totfact> 0.64842506E+04</totfact>
</mgrwt>
</event>
<event>
 6    0  0.4831799E-002  0.4432473E+03  0.7546771E-02  0.1029755E+00
         21   -1    0    0  502  501  0.00000000000E+00  0.00000000000E+00  0.16216513287E+04  0.16216513287E+04  0.00000000000E+00 0.  1.
         21   -1    0    0  501  502 -0.00000000000E+00 -0.00000000000E+00 -0.30288287443E+02  0.30288287443E+02  0.00000000000E+00 0.  1.
      99926    2    1    2    0    0  0.00000000000E+00  0.00000000000E+00  0.15913630412E+04  0.16519396161E+04  0.44324729700E+03 0.  0.
         25    1    3    3    0    0  0.47105139936E+02 -0.59206272379E+02  0.32656939365E+03  0.35779792323E+03  0.12509000000E+03 0.  0.
         25    1    3    3    0    0 -0.78933009788E+01  0.30123592538E+01  0.45862278434E+03  0.47545109625E+03  0.12509000000E+03 0.  0.
         25    1    3    3    0    0 -0.39211838957E+02  0.56193913125E+02  0.80617086325E+03  0.81869059665E+03  0.12509000000E+03 0.  0.
<mgrwt>
<rscale>  2 0.44324730E+03</rscale>
<asrwt>0</asrwt>
<pdfrwt beam="1">  1       21 0.23847808E+00 0.44324730E+03</pdfrwt>
<pdfrwt beam="2">  1       21 0.44541610E-02 0.44324730E+03</pdfrwt>
<totfact> 0.22242695E+04</totfact>
</mgrwt>
</event>
<event>
 7    0  0.4831799E-002  0.4460754E+03  0.7546771E-02  0.1028899E+00
         21   -1    0    0  502  501  0.00000000000E+00  0.00000000000E+00  0.46677876046E+03  0.46677876046E+03  0.00000000000E+00 0.  1.
         21   -1    0    0  501  502 -0.00000000000E+00 -0.00000000000E+00 -0.10657258213E+03  0.10657258213E+03  0.00000000000E+00 0.  1.
      99926    2    1    2    0    0  0.00000000000E+00 -0.14210854715E-13  0.36020617833E+03  0.57335134259E+03  0.44607540970E+03 0.  0.
      99925    2    3    3    0    0  0.80258119712E+02 -0.66676457357E+02  0.23581750707E+03  0.36839484626E+03  0.26309266498E+03 0.  0.
         25    1    4    4    0    0  0.57581098815E+02 -0.23244159825E+02  0.16620005265E+03  0.21708486707E+03  0.12509000000E+03 0.  0.
         25    1    4    4    0    0  0.22677020897E+02 -0.43432297533E+02  0.69617454411E+02  0.15130997920E+03  0.12509000000E+03 0.  0.
         25    1    3    3    0    0 -0.80258119712E+02  0.66676457357E+02  0.12438867127E+03  0.20495649632E+03  0.12509000000E+03 0.  0.
<mgrwt>
<rscale>  2 0.44607541E+03</rscale>
<asrwt>0</asrwt>
<pdfrwt beam="1">  1       21 0.68643935E-01 0.44607541E+03</pdfrwt>
<pdfrwt beam="2">  1       21 0.15672439E-01 0.44607541E+03</pdfrwt>
<totfact> 0.64802520E+04</totfact>
</mgrwt>
</event>
<event>
 7    0  0.4831799E-002  0.4629469E+03  0.7546771E-02  0.1023930E+00
         21   -1    0    0  502  501  0.00000000000E+00  0.00000000000E+00  0.31620859473E+02  0.31620859473E+02  0.00000000000E+00 0. -1.
         21   -1    0    0  501  502 -0.00000000000E+00 -0.00000000000E+00 -0.16944499526E+04  0.16944499526E+04  0.00000000000E+00 0. -1.
      99926    2    1    2    0    0  0.00000000000E+00 -0.14210854715E-13 -0.16628290932E+04  0.17260708121E+04  0.46294692498E+03 0.  0.
      99925    2    3    3    0    0 -0.37657712580E+02 -0.98814164610E+02 -0.12537877202E+04  0.12854522749E+04  0.26309990735E+03 0.  0.
         25    1    4    4    0    0 -0.27834573850E+02 -0.23903562946E+02 -0.45057054827E+03  0.46904953991E+03  0.12509000000E+03 0.  0.
         25    1    3    3    0    0  0.37657712580E+02  0.98814164610E+02 -0.40904137293E+03  0.44061853718E+03  0.12509000000E+03 0.  0.
         25    1    4    4    0    0 -0.98231387308E+01 -0.74910601664E+02 -0.80321717195E+03  0.81640273500E+03  0.12509000000E+03 0.  0.
<mgrwt>
<rscale>  2 0.46294692E+03</rscale>
<asrwt>0</asrwt>
<pdfrwt beam="1">  1       21 0.46501267E-02 0.46294692E+03</pdfrwt>
<pdfrwt beam="2">  1       21 0.24918380E+00 0.46294692E+03</pdfrwt>
<totfact> 0.17612301E+04</totfact>
</mgrwt>
</event>
<event>
 7    0  0.4831799E-002  0.4414039E+03  0.7546771E-02  0.1030317E+00
         21   -1    0    0  502  501  0.00000000000E+00  0.00000000000E+00  0.51140462808E+03  0.51140462808E+03  0.00000000000E+00 0.  1.
         21   -1    0    0  501  502 -0.00000000000E+00 -0.00000000000E+00 -0.95246213813E+02  0.95246213813E+02  0.00000000000E+00 0.  1.
      99926    2    1    2    0    0  0.00000000000E+00  0.88817841970E-15  0.41615841427E+03  0.60665084189E+03  0.44140391730E+03 0.  0.
      99925    2    3    3    0    0 -0.76574306193E+02  0.76423089727E+01  0.18120804526E+03  0.32957465516E+03  0.26431244466E+03 0.  0.
         25    1    3    3    0    0  0.76574306193E+02 -0.76423089727E+01  0.23495036901E+03  0.27707618673E+03  0.12509000000E+03 0.  0.
         25    1    4    4    0    0 -0.11357084424E+02  0.30045799460E+02  0.11156394474E+03  0.17066269451E+03  0.12509000000E+03 0.  0.
         25    1    4    4    0    0 -0.65217221769E+02 -0.22403490487E+02  0.69644100521E+02  0.15891196065E+03  0.12509000000E+03 0.  0.
<mgrwt>
<rscale>  2 0.44140392E+03</rscale>
<asrwt>0</asrwt>
<pdfrwt beam="1">  1       21 0.75206562E-01 0.44140392E+03</pdfrwt>
<pdfrwt beam="2">  1       21 0.14006796E-01 0.44140392E+03</pdfrwt>
<totfact> 0.64972483E+04</totfact>
</mgrwt>
</event>
<event>
 7    0  0.4831799E-002  0.4542787E+03  0.7546771E-02  0.1026454E+00
         21   -1    0    0  502  501  0.00000000000E+00  0.00000000000E+00  0.34464967510E+03  0.34464967510E+03  0.00000000000E+00 0. -1.
         21   -1    0    0  501  502 -0.00000000000E+00 -0.00000000000E+00 -0.14969484237E+03  0.14969484237E+03  0.00000000000E+00 0. -1.
      99926    2    1    2    0    0  0.00000000000E+00  0.00000000000E+00  0.19495483273E+03  0.49434451746E+03  0.45427867564E+03 0.  0.
      99925    2    3    3    0    0  0.96356782771E+02  0.44483533382E+02  0.16143519491E+03  0.32690948962E+03  0.26371400783E+03 0.  0.
         25    1    3    3    0    0 -0.96356782771E+02 -0.44483533382E+02  0.33519637823E+02  0.16743502784E+03  0.12509000000E+03 0.  0.
         25    1    4    4    0    0  0.64930922479E+02 -0.12318688347E+02  0.62194203359E+02  0.15454255662E+03  0.12509000000E+03 0.  0.
         25    1    4    4    0    0  0.31425860292E+02  0.56802221729E+02  0.99240991546E+02  0.17236693300E+03  0.12509000000E+03 0.  0.
<mgrwt>
<rscale>  2 0.45427868E+03</rscale>
<asrwt>0</asrwt>
<pdfrwt beam="1">  1       21 0.50683776E-01 0.45427868E+03</pdfrwt>
<pdfrwt beam="2">  1       21 0.22013947E-01 0.45427868E+03</pdfrwt>
<totfact> 0.66047220E+04</totfact>
</mgrwt>
</event>
<event>
 7    0  0.4831799E-002  0.4482336E+03  0.7546771E-02  0.1028250E+00
         21   -1    0    0  502  501  0.00000000000E+00  0.00000000000E+00  0.87424317639E+02  0.87424317639E+02  0.00000000000E+00 0. -1.
         21   -1    0    0  501  502 -0.00000000000E+00 -0.00000000000E+00 -0.57453501092E+03  0.57453501092E+03  0.00000000000E+00 0. -1.
      99926    2    1    2    0    0  0.00000000000E+00 -0.14210854715E-13 -0.48711069328E+03  0.66195932856E+03  0.44823356095E+03 0.  0.
      99925    2    3    3    0    0  0.46757251358E+02 -0.76289834235E+02 -0.39433539293E+03  0.48234545432E+03  0.26296455242E+03 0.  0.
         25    1    3    3    0    0 -0.46757251358E+02  0.76289834235E+02 -0.92775300356E+02  0.17961387424E+03  0.12509000000E+03 0.  0.
         25    1    4    4    0    0 -0.15745472517E+01 -0.19312931696E+02 -0.13628666115E+03  0.18600277051E+03  0.12509000000E+03 0.  0.
         25    1    4    4    0    0  0.48331798610E+02 -0.56976902539E+02 -0.25804873177E+03  0.29634268381E+03  0.12509000000E+03 0.  0.
<mgrwt>
<rscale>  2 0.44823356E+03</rscale>
<asrwt>0</asrwt>
<pdfrwt beam="1">  1       21 0.12856517E-01 0.44823356E+03</pdfrwt>
<pdfrwt beam="2">  1       21 0.84490444E-01 0.44823356E+03</pdfrwt>
<totfact> 0.58052462E+04</totfact>
</mgrwt>
</event>
<event>
 7    0  0.4831799E-002  0.4560830E+03  0.7546771E-02  0.1025923E+00
         21   -1    0    0  502  501  0.00000000000E+00  0.00000000000E+00  0.46354692467E+02  0.46354692467E+02  0.00000000000E+00 0. -1.
         21   -1    0    0  501  502 -0.00000000000E+00 -0.00000000000E+00 -0.11218479195E+04  0.11218479195E+04  0.00000000000E+00 0. -1.
      99926    2    1    2    0    0  0.00000000000E+00  0.17763568394E-14 -0.10754932271E+04  0.11682026120E+04  0.45608295432E+03 0.  0.
      99925    2    3    3    0    0 -0.10569011527E+03  0.11197029352E+02 -0.78321529333E+03  0.83298675232E+03  0.26295429243E+03 0.  0.
         25    1    3    3    0    0  0.10569011527E+03 -0.11197029352E+02 -0.29227793375E+03  0.33521585969E+03  0.12509000000E+03 0.  0.
         25    1    4    4    0    0 -0.46519604887E+02 -0.34212836717E+02 -0.39663214772E+03  0.41987993586E+03  0.12509000000E+03 0.  0.
         25    1    4    4    0    0 -0.59170510383E+02  0.45409866069E+02 -0.38658314561E+03  0.41310681646E+03  0.12509000000E+03 0.  0.
<mgrwt>
<rscale>  2 0.45608295E+03</rscale>
<asrwt>0</asrwt>
<pdfrwt beam="1">  1       21 0.68168667E-02 0.45608295E+03</pdfrwt>
<pdfrwt beam="2">  1       21 0.16497763E+00 0.45608295E+03</pdfrwt>
<totfact> 0.32901874E+04</totfact>
</mgrwt>
</event>
<event>
 7    0  0.4831799E-002  0.4645121E+03  0.7546771E-02  0.1023481E+00
         21   -1    0    0  502  501  0.00000000000E+00  0.00000000000E+00  0.51356095014E+03  0.51356095014E+03  0.00000000000E+00 0. -1.
         21   -1    0    0  501  502 -0.00000000000E+00 -0.00000000000E+00 -0.10503695653E+03  0.10503695653E+03  0.00000000000E+00 0. -1.
      99926    2    1    2    0    0  0.00000000000E+00  0.00000000000E+00  0.40852399362E+03  0.61859790667E+03  0.46451212770E+03 0.  0.
      99925    2    3    3    0    0  0.94666404617E+02  0.70439564647E+02  0.29561453256E+03  0.41288083172E+03  0.26298130905E+03 0.  0.
         25    1    4    4    0    0  0.28385513690E+02  0.55053667977E+02  0.10362024135E+03  0.17384276304E+03  0.12509000000E+03 0.  0.
         25    1    4    4    0    0  0.66280890927E+02  0.15385896670E+02  0.19199429121E+03  0.23903806868E+03  0.12509000000E+03 0.  0.
         25    1    3    3    0    0 -0.94666404617E+02 -0.70439564647E+02  0.11290946106E+03  0.20571707495E+03  0.12509000000E+03 0.  0.
<mgrwt>
<rscale>  2 0.46451213E+03</rscale>
<asrwt>0</asrwt>
<pdfrwt beam="1">  1       21 0.75523668E-01 0.46451213E+03</pdfrwt>
<pdfrwt beam="2">  1       21 0.15446612E-01 0.46451213E+03</pdfrwt>
<totfact> 0.53420380E+04</totfact>
</mgrwt>
</event>
<event>
 7    0  0.4831799E-002  0.4551051E+03  0.7546771E-02  0.1026210E+00
         21   -1    0    0  502  501  0.00000000000E+00  0.00000000000E+00  0.58151693992E+02  0.58151693992E+02  0.00000000000E+00 0. -1.
         21   -1    0    0  501  502 -0.00000000000E+00 -0.00000000000E+00 -0.89043264930E+03  0.89043264930E+03  0.00000000000E+00 0. -1.
      99926    2    1    2    0    0  0.00000000000E+00  0.00000000000E+00 -0.83228095531E+03  0.94858434329E+03  0.45510511727E+03 0.  0.
      99925    2    3    3    0    0  0.63450729158E+02  0.58273127177E+02 -0.36898547249E+03  0.46102720318E+03  0.26262911258E+03 0.  0.
         25    1    4    4    0    0  0.46198191202E+02  0.68721486296E+01 -0.23249837632E+03  0.26811285383E+03  0.12509000000E+03 0.  0.
         25    1    4    4    0    0  0.17252537957E+02  0.51400978548E+02 -0.13648709617E+03  0.19291434934E+03  0.12509000000E+03 0.  0.
         25    1    3    3    0    0 -0.63450729158E+02 -0.58273127177E+02 -0.46329548282E+03  0.48755714012E+03  0.12509000000E+03 0.  0.
<mgrwt>
<rscale>  2 0.45510512E+03</rscale>
<asrwt>0</asrwt>
<pdfrwt beam="1">  1       21 0.85517197E-02 0.45510512E+03</pdfrwt>
<pdfrwt beam="2">  1       21 0.13094598E+00 0.45510512E+03</pdfrwt>
<totfact> 0.41164333E+04</totfact>
</mgrwt>
</event>
<event>
 7    0  0.4831799E-002  0.4526614E+03  0.7546771E-02  0.1026931E+00
         21   -1    0    0  502  501  0.00000000000E+00  0.00000000000E+00  0.37954816082E+02  0.37954816082E+02  0.00000000000E+00 0.  1.
         21   -1    0    0  501  502 -0.00000000000E+00 -0.00000000000E+00 -0.13496464927E+04  0.13496464927E+04  0.00000000000E+00 0.  1.
      99926    2    1    2    0    0 -0.14210854715E-13 -0.35527136788E-14 -0.13116916766E+04  0.13876013088E+04  0.45266139400E+03 0.  0.
      99925    2    3    3    0    0  0.95259748944E+02  0.28373351552E+02 -0.67778757233E+03  0.73387247480E+03  0.26323629920E+03 0.  0.
         25    1    4    4    0    0  0.73792461236E+02  0.40126264304E+02 -0.31119592656E+03  0.34575404153E+03  0.12509000000E+03 0.  0.
         25    1    4    4    0    0  0.21467287708E+02 -0.11752912751E+02 -0.36659164577E+03  0.38811843328E+03  0.12509000000E+03 0.  0.
         25    1    3    3    0    0 -0.95259748944E+02 -0.28373351552E+02 -0.63390410428E+03  0.65372883397E+03  0.12509000000E+03 0.  0.
<mgrwt>
<rscale>  2 0.45266139E+03</rscale>
<asrwt>0</asrwt>
<pdfrwt beam="1">  1       21 0.55815898E-02 0.45266139E+03</pdfrwt>
<pdfrwt beam="2">  1       21 0.19847745E+00 0.45266139E+03</pdfrwt>
<totfact> 0.27154466E+04</totfact>
</mgrwt>
</event>
<event>
 7    0  0.4831799E-002  0.4637184E+03  0.7546771E-02  0.1023708E+00
         21   -1    0    0  502  501  0.00000000000E+00  0.00000000000E+00  0.73448936174E+02  0.73448936174E+02  0.00000000000E+00 0. -1.
         21   -1    0    0  501  502 -0.00000000000E+00 -0.00000000000E+00 -0.73191912235E+03  0.73191912235E+03  0.00000000000E+00 0. -1.
      99926    2    1    2    0    0 -0.71054273576E-14  0.00000000000E+00 -0.65847018618E+03  0.80536805853E+03  0.46371836669E+03 0.  0.
      99925    2    3    3    0    0  0.52727912252E+02 -0.91037571675E+02 -0.51568188952E+03  0.58833331949E+03  0.26294526322E+03 0.  0.
         25    1    3    3    0    0 -0.52727912252E+02  0.91037571675E+02 -0.14278829665E+03  0.21703473904E+03  0.12509000000E+03 0.  0.
         25    1    4    4    0    0 -0.11528229393E+02 -0.26125606405E+02 -0.23054956969E+03  0.26384855423E+03  0.12509000000E+03 0.  0.
         25    1    4    4    0    0  0.64256141646E+02 -0.64911965271E+02 -0.28513231983E+03  0.32448476526E+03  0.12509000000E+03 0.  0.
<mgrwt>
<rscale>  2 0.46371837E+03</rscale>
<asrwt>0</asrwt>
<pdfrwt beam="1">  1       21 0.10801314E-01 0.46371837E+03</pdfrwt>
<pdfrwt beam="2">  1       21 0.10763517E+00 0.46371837E+03</pdfrwt>
<totfact> 0.44390375E+04</totfact>
</mgrwt>
</event>
<event>
 7    0  0.4831799E-002  0.4684437E+03  0.7546771E-02  0.1022360E+00
         21   -1    0    0  502  501  0.00000000000E+00  0.00000000000E+00  0.11603602349E+03  0.11603602349E+03  0.00000000000E+00 0.  1.
         21   -1    0    0  501  502 -0.00000000000E+00 -0.00000000000E+00 -0.47278320472E+03  0.47278320472E+03  0.00000000000E+00 0.  1.
      99926    2    1    2    0    0  0.00000000000E+00  0.00000000000E+00 -0.35674718123E+03  0.58881922821E+03  0.46844373429E+03 0.  0.
      99925    2    3    3    0    0 -0.90477225972E+02  0.77080610082E+02 -0.27189315169E+03  0.39652969833E+03  0.26302541105E+03 0.  0.
         25    1    3    3    0    0  0.90477225972E+02 -0.77080610082E+02 -0.84854029540E+02  0.19228952987E+03  0.12509000000E+03 0.  0.
         25    1    4    4    0    0 -0.53636271424E+02  0.49629934376E+02 -0.88259612945E+02  0.16963857868E+03  0.12509000000E+03 0.  0.
         25    1    4    4    0    0 -0.36840954548E+02  0.27450675706E+02 -0.18363353874E+03  0.22689111966E+03  0.12509000000E+03 0.  0.
<mgrwt>
<rscale>  2 0.46844373E+03</rscale>
<asrwt>0</asrwt>
<pdfrwt beam="1">  1       21 0.17064121E-01 0.46844373E+03</pdfrwt>
<pdfrwt beam="2">  1       21 0.69526941E-01 0.46844373E+03</pdfrwt>
<totfact> 0.53460431E+04</totfact>
</mgrwt>
</event>
<event>
 7    0  0.4831799E-002  0.4538929E+03  0.7546771E-02  0.1026567E+00
         21   -1    0    0  502  501  0.00000000000E+00  0.00000000000E+00  0.47869523825E+03  0.47869523825E+03  0.00000000000E+00 0. -1.
         21   -1    0    0  501  502 -0.00000000000E+00 -0.00000000000E+00 -0.10759388443E+03  0.10759388443E+03  0.00000000000E+00 0. -1.
      99926    2    1    2    0    0  0.00000000000E+00  0.00000000000E+00  0.37110135383E+03  0.58628912268E+03  0.45389285141E+03 0.  0.
      99925    2    3    3    0    0 -0.46354627604E+02  0.99762385220E+02  0.20261334187E+03  0.34935663593E+03  0.26248163319E+03 0.  0.
         25    1    4    4    0    0 -0.22576672231E+02  0.82414055337E+02  0.14054851806E+03  0.20664746956E+03  0.12509000000E+03 0.  0.
         25    1    4    4    0    0 -0.23777955373E+02  0.17348329883E+02  0.62064823801E+02  0.14270916637E+03  0.12509000000E+03 0.  0.
         25    1    3    3    0    0  0.46354627604E+02 -0.99762385220E+02  0.16848801196E+03  0.23693248675E+03  0.12509000000E+03 0.  0.
<mgrwt>
<rscale>  2 0.45389285E+03</rscale>
<asrwt>0</asrwt>
<pdfrwt beam="1">  1       21 0.70396357E-01 0.45389285E+03</pdfrwt>
<pdfrwt beam="2">  1       21 0.15822630E-01 0.45389285E+03</pdfrwt>
<totfact> 0.60054068E+04</totfact>
</mgrwt>
</event>
<event>
 7    0  0.4831799E-002  0.4534541E+03  0.7546771E-02  0.1026697E+00
         21   -1    0    0  502  501  0.00000000000E+00  0.00000000000E+00  0.25135564089E+03  0.25135564089E+03  0.00000000000E+00 0.  1.
         21   -1    0    0  501  502 -0.00000000000E+00 -0.00000000000E+00 -0.20451163142E+03  0.20451163142E+03  0.00000000000E+00 0.  1.
      99926    2    1    2    0    0  0.00000000000E+00  0.17763568394E-14  0.46844009468E+02  0.45586727231E+03  0.45345408670E+03 0.  0.
      99925    2    3    3    0    0  0.49166742991E+02  0.14136012576E+02 -0.71965678305E+02  0.27592159863E+03  0.26141246005E+03 0.  0.
         25    1    3    3    0    0 -0.49166742991E+02 -0.14136012576E+02  0.11880968777E+03  0.17994567368E+03  0.12509000000E+03 0.  0.
         25    1    4    4    0    0  0.24604655505E+02  0.44796292551E+02 -0.32227483294E+02  0.13891801783E+03  0.12509000000E+03 0.  0.
         25    1    4    4    0    0  0.24562087486E+02 -0.30660279975E+02 -0.39738195011E+02  0.13700358080E+03  0.12509000000E+03 0.  0.
<mgrwt>
<rscale>  2 0.45345409E+03</rscale>
<asrwt>0</asrwt>
<pdfrwt beam="1">  1       21 0.36964065E-01 0.45345409E+03</pdfrwt>
<pdfrwt beam="2">  1       21 0.30075240E-01 0.45345409E+03</pdfrwt>
<totfact> 0.69333511E+04</totfact>
</mgrwt>
</event>
<event>
 7    0  0.4831799E-002  0.4601005E+03  0.7546771E-02  0.1024752E+00
         21   -1    0    0  502  501  0.00000000000E+00  0.00000000000E+00  0.38813457190E+02  0.38813457190E+02  0.00000000000E+00 0. -1.
         21   -1    0    0  501  502 -0.00000000000E+00 -0.00000000000E+00 -0.13635252298E+04  0.13635252298E+04  0.00000000000E+00 0. -1.
      99926    2    1    2    0    0  0.71054273576E-14  0.00000000000E+00 -0.13247117726E+04  0.14023386869E+04  0.46010054611E+03 0.  0.
      99925    2    3    3    0    0  0.56000061544E+02 -0.19504243011E+02 -0.51953571335E+03  0.58534883583E+03  0.26305793996E+03 0.  0.
         25    1    3    3    0    0 -0.56000061544E+02  0.19504243011E+02 -0.80517605921E+03  0.81698985111E+03  0.12509000000E+03 0.  0.
         25    1    4    4    0    0  0.50040869964E+02 -0.12869896076E+02 -0.19445782764E+03  0.23691998169E+03  0.12509000000E+03 0.  0.
         25    1    4    4    0    0  0.59591915806E+01 -0.66343469351E+01 -0.32507788571E+03  0.34842885415E+03  0.12509000000E+03 0.  0.
<mgrwt>
<rscale>  2 0.46010055E+03</rscale>
<asrwt>0</asrwt>
<pdfrwt beam="1">  1       21 0.57078614E-02 0.46010055E+03</pdfrwt>
<pdfrwt beam="2">  1       21 0.20051842E+00 0.46010055E+03</pdfrwt>
<totfact> 0.25253836E+04</totfact>
</mgrwt>
</event>
<event>
 7    0  0.4831799E-002  0.4535170E+03  0.7546771E-02  0.1026678E+00
         21   -1    0    0  502  501  0.00000000000E+00  0.00000000000E+00  0.68968996704E+02  0.68968996704E+02  0.00000000000E+00 0.  1.
         21   -1    0    0  501  502 -0.00000000000E+00 -0.00000000000E+00 -0.74554381310E+03  0.74554381310E+03  0.00000000000E+00 0.  1.
      99926    2    1    2    0    0  0.00000000000E+00  0.00000000000E+00 -0.67657481640E+03  0.81451280981E+03  0.45351696237E+03 0.  0.
      99925    2    3    3    0    0 -0.24598525211E+02  0.10726378247E+03 -0.46145148609E+03  0.54241694101E+03  0.26299820800E+03 0.  0.
         25    1    4    4    0    0 -0.47748310922E+02  0.76332353232E+02 -0.25457269781E+03  0.29759249977E+03  0.12509000000E+03 0.  0.
         25    1    3    3    0    0  0.24598525211E+02 -0.10726378247E+03 -0.21512333031E+03  0.27209586880E+03  0.12509000000E+03 0.  0.
         25    1    4    4    0    0  0.23149785711E+02  0.30931429233E+02 -0.20687878828E+03  0.24482444125E+03  0.12509000000E+03 0.  0.
<mgrwt>
<rscale>  2 0.45351696E+03</rscale>
<asrwt>0</asrwt>
<pdfrwt beam="1">  1       21 0.10142500E-01 0.45351696E+03</pdfrwt>
<pdfrwt beam="2">  1       21 0.10963879E+00 0.45351696E+03</pdfrwt>
<totfact> 0.47622634E+04</totfact>
</mgrwt>
</event>
<event>
 7    0  0.4831799E-002  0.4554319E+03  0.7546771E-02  0.1026114E+00
         21   -1    0    0  502  501  0.00000000000E+00  0.00000000000E+00  0.15621123086E+04  0.15621123086E+04  0.00000000000E+00 0.  1.
         21   -1    0    0  501  502 -0.00000000000E+00 -0.00000000000E+00 -0.33195146813E+02  0.33195146813E+02  0.00000000000E+00 0.  1.
      99926    2    1    2    0    0  0.00000000000E+00  0.00000000000E+00  0.15289171618E+04  0.15953074554E+04  0.45543187163E+03 0.  0.
      99925    2    3    3    0    0  0.28264467083E+02  0.10809837325E+03  0.89172585514E+03  0.93641109956E+03  0.26307148885E+03 0.  0.
         25    1    4    4    0    0 -0.13827982063E+02  0.36936845539E+02  0.33256557536E+03  0.35749533377E+03  0.12509000000E+03 0.  0.
         25    1    4    4    0    0  0.42092449146E+02  0.71161527710E+02  0.55916027978E+03  0.57891576579E+03  0.12509000000E+03 0.  0.
         25    1    3    3    0    0 -0.28264467083E+02 -0.10809837325E+03  0.63719130666E+03  0.65889635587E+03  0.12509000000E+03 0.  0.
<mgrwt>
<rscale>  2 0.45543187E+03</rscale>
<asrwt>0</asrwt>
<pdfrwt beam="1">  1       21 0.22972235E+00 0.45543187E+03</pdfrwt>
<pdfrwt beam="2">  1       21 0.48816403E-02 0.45543187E+03</pdfrwt>
<totfact> 0.21463965E+04</totfact>
</mgrwt>
</event>
<event>
 7    0  0.4831799E-002  0.4221467E+03  0.7546771E-02  0.1036370E+00
         21   -1    0    0  502  501  0.00000000000E+00  0.00000000000E+00  0.68451598236E+02  0.68451598236E+02  0.00000000000E+00 0.  1.
         21   -1    0    0  501  502 -0.00000000000E+00 -0.00000000000E+00 -0.65085331993E+03  0.65085331993E+03  0.00000000000E+00 0.  1.
      99926    2    1    2    0    0  0.00000000000E+00  0.00000000000E+00 -0.58240172169E+03  0.71930491817E+03  0.42214665682E+03 0.  0.
      99925    2    3    3    0    0  0.15263933210E+02 -0.38480672201E+02 -0.49213897793E+03  0.55959073344E+03  0.26311074772E+03 0.  0.
         25    1    3    3    0    0 -0.15263933210E+02  0.38480672201E+02 -0.90262743765E+02  0.15971418472E+03  0.12509000000E+03 0.  0.
         25    1    4    4    0    0  0.81965678884E+01 -0.58820603834E+02 -0.28022841507E+03  0.31257402303E+03  0.12509000000E+03 0.  0.
         25    1    4    4    0    0  0.70673653214E+01  0.20339931634E+02 -0.21191056285E+03  0.24701671041E+03  0.12509000000E+03 0.  0.
<mgrwt>
<rscale>  2 0.42214666E+03</rscale>
<asrwt>0</asrwt>
<pdfrwt beam="1">  1       21 0.10066412E-01 0.42214666E+03</pdfrwt>
<pdfrwt beam="2">  1       21 0.95713723E-01 0.42214666E+03</pdfrwt>
<totfact> 0.67749901E+04</totfact>
</mgrwt>
</event>
<event>
 7    0  0.4831799E-002  0.4542245E+03  0.7546771E-02  0.1026470E+00
         21   -1    0    0  502  501  0.00000000000E+00  0.00000000000E+00  0.10783987899E+03  0.10783987899E+03  0.00000000000E+00 0.  1.
         21   -1    0    0  501  502 -0.00000000000E+00 -0.00000000000E+00 -0.47830148281E+03  0.47830148281E+03  0.00000000000E+00 0.  1.
      99926    2    1    2    0    0 -0.71054273576E-14  0.17763568394E-14 -0.37046160382E+03  0.58614136180E+03  0.45422449967E+03 0.  0.
      99925    2    3    3    0    0  0.48613675289E+02  0.12640920171E+02 -0.36267213849E+03  0.45111815580E+03  0.26354018320E+03 0.  0.
         25    1    4    4    0    0 -0.30998007646E+01  0.35838647732E+02 -0.15917580264E+03  0.20561726991E+03  0.12509000000E+03 0.  0.
         25    1    3    3    0    0 -0.48613675289E+02 -0.12640920171E+02 -0.77894653294E+01  0.13502320600E+03  0.12509000000E+03 0.  0.
         25    1    4    4    0    0  0.51713476053E+02 -0.23197727560E+02 -0.20349633585E+03  0.24550088589E+03  0.12509000000E+03 0.  0.
<mgrwt>
<rscale>  2 0.45422450E+03</rscale>
<asrwt>0</asrwt>
<pdfrwt beam="1">  1       21 0.15858806E-01 0.45422450E+03</pdfrwt>
<pdfrwt beam="2">  1       21 0.70338453E-01 0.45422450E+03</pdfrwt>
<totfact> 0.59905882E+04</totfact>
</mgrwt>
</event>
<event>
 7    0  0.4831799E-002  0.4560109E+03  0.7546771E-02  0.1025945E+00
         21   -1    0    0  502  501  0.00000000000E+00  0.00000000000E+00  0.25305208565E+03  0.25305208565E+03  0.00000000000E+00 0. -1.
         21   -1    0    0  501  502 -0.00000000000E+00 -0.00000000000E+00 -0.20543788700E+03  0.20543788700E+03  0.00000000000E+00 0. -1.
      99926    2    1    2    0    0  0.00000000000E+00  0.00000000000E+00  0.47614198650E+02  0.45848997264E+03  0.45601090239E+03 0.  0.
      99925    2    3    3    0    0 -0.90970345369E+02 -0.16131363237E+02 -0.37642744860E+02  0.28114263228E+03  0.26284668312E+03 0.  0.
         25    1    4    4    0    0 -0.18289284354E+02  0.83405856055E+01 -0.44427159874E+02  0.13425849666E+03  0.12509000000E+03 0.  0.
         25    1    3    3    0    0  0.90970345369E+02  0.16131363237E+02  0.85256943510E+02  0.17734734036E+03  0.12509000000E+03 0.  0.
         25    1    4    4    0    0 -0.72681061015E+02 -0.24471948842E+02  0.67844150137E+01  0.14688413562E+03  0.12509000000E+03 0.  0.
<mgrwt>
<rscale>  2 0.45601090E+03</rscale>
<asrwt>0</asrwt>
<pdfrwt beam="1">  1       21 0.37213542E-01 0.45601090E+03</pdfrwt>
<pdfrwt beam="2">  1       21 0.30211454E-01 0.45601090E+03</pdfrwt>
<totfact> 0.67742815E+04</totfact>
</mgrwt>
</event>
<event>
 7    0  0.4831799E-002  0.4626830E+03  0.7546771E-02  0.1024006E+00
         21   -1    0    0  502  501  0.00000000000E+00  0.00000000000E+00  0.46861807843E+03  0.46861807843E+03  0.00000000000E+00 0. -1.
         21   -1    0    0  501  502 -0.00000000000E+00 -0.00000000000E+00 -0.11420574805E+03  0.11420574805E+03  0.00000000000E+00 0. -1.
      99926    2    1    2    0    0 -0.14210854715E-13  0.00000000000E+00  0.35441233037E+03  0.58282382648E+03  0.46268295061E+03 0.  0.
      99925    2    3    3    0    0 -0.10954651119E+03 -0.42497198035E+02  0.25318076992E+03  0.38357075401E+03  0.26309612525E+03 0.  0.
         25    1    4    4    0    0 -0.70474878321E+02  0.15167031986E+02  0.13939681417E+03  0.20068813426E+03  0.12509000000E+03 0.  0.
         25    1    4    4    0    0 -0.39071632871E+02 -0.57664230021E+02  0.11378395575E+03  0.18288261975E+03  0.12509000000E+03 0.  0.
         25    1    3    3    0    0  0.10954651119E+03  0.42497198035E+02  0.10123156045E+03  0.19925307246E+03  0.12509000000E+03 0.  0.
<mgrwt>
<rscale>  2 0.46268295E+03</rscale>
<asrwt>0</asrwt>
<pdfrwt beam="1">  1       21 0.68914423E-01 0.46268295E+03</pdfrwt>
<pdfrwt beam="2">  1       21 0.16794963E-01 0.46268295E+03</pdfrwt>
<totfact> 0.56252923E+04</totfact>
</mgrwt>
</event>
<event>
 7    0  0.4831799E-002  0.4027830E+03  0.7546771E-02  0.1042820E+00
         21   -1    0    0  502  501  0.00000000000E+00  0.00000000000E+00  0.31359752002E+03  0.31359752002E+03  0.00000000000E+00 0. -1.
         21   -1    0    0  501  502 -0.00000000000E+00 -0.00000000000E+00 -0.12933311293E+03  0.12933311293E+03  0.00000000000E+00 0. -1.
      99926    2    1    2    0    0  0.00000000000E+00  0.22204460493E-15  0.18426440709E+03  0.44293063294E+03  0.40278303574E+03 0.  0.
      99925    2    3    3    0    0  0.37776971854E+02 -0.64657443896E+00  0.15965753339E+03  0.30996250145E+03  0.26298043021E+03 0.  0.
         25    1    3    3    0    0 -0.37776971854E+02  0.64657443896E+00  0.24606873695E+02  0.13296813150E+03  0.12509000000E+03 0.  0.
         25    1    4    4    0    0  0.10406992008E+02 -0.26980170415E+02  0.11337540782E+03  0.17128259186E+03  0.12509000000E+03 0.  0.
         25    1    4    4    0    0  0.27369979846E+02  0.26333595976E+02  0.46282125578E+02  0.13867990958E+03  0.12509000000E+03 0.  0.
<mgrwt>
<rscale>  2 0.40278304E+03</rscale>
<asrwt>0</asrwt>
<pdfrwt beam="1">  1       21 0.46117282E-01 0.40278304E+03</pdfrwt>
<pdfrwt beam="2">  1       21 0.19019575E-01 0.40278304E+03</pdfrwt>
<totfact> 0.10766851E+05</totfact>
</mgrwt>
</event>
<event>
 7    0  0.4831799E-002  0.4578385E+03  0.7546771E-02  0.1025410E+00
         21   -1    0    0  502  501  0.00000000000E+00  0.00000000000E+00  0.66178274130E+02  0.66178274130E+02  0.00000000000E+00 0. -1.
         21   -1    0    0  501  502 -0.00000000000E+00 -0.00000000000E+00 -0.79186139188E+03  0.79186139188E+03  0.00000000000E+00 0. -1.
      99926    2    1    2    0    0  0.00000000000E+00  0.00000000000E+00 -0.72568311775E+03  0.85803966601E+03  0.45783848796E+03 0.  0.
      99925    2    3    3    0    0  0.47119656534E+02 -0.90912464144E+02 -0.55681574570E+03  0.62426833412E+03  0.26302440982E+03 0.  0.
         25    1    4    4    0    0 -0.13400877069E+02 -0.26355614236E+02 -0.23574440971E+03  0.26850909988E+03  0.12509000000E+03 0.  0.
         25    1    4    4    0    0  0.60520533604E+02 -0.64556849908E+02 -0.32107133598E+03  0.35575923424E+03  0.12509000000E+03 0.  0.
         25    1    3    3    0    0 -0.47119656534E+02  0.90912464144E+02 -0.16886737205E+03  0.23377133189E+03  0.12509000000E+03 0.  0.
<mgrwt>
<rscale>  2 0.45783849E+03</rscale>
<asrwt>0</asrwt>
<pdfrwt beam="1">  1       21 0.97321001E-02 0.45783849E+03</pdfrwt>
<pdfrwt beam="2">  1       21 0.11645019E+00 0.45783849E+03</pdfrwt>
<totfact> 0.44091916E+04</totfact>
</mgrwt>
</event>
<event>
 7    0  0.4831799E-002  0.4605329E+03  0.7546771E-02  0.1024627E+00
         21   -1    0    0  502  501  0.00000000000E+00  0.00000000000E+00  0.93343374432E+02  0.93343374432E+02  0.00000000000E+00 0. -1.
         21   -1    0    0  501  502 -0.00000000000E+00 -0.00000000000E+00 -0.56803863713E+03  0.56803863713E+03  0.00000000000E+00 0. -1.
      99926    2    1    2    0    0  0.00000000000E+00  0.00000000000E+00 -0.47469526270E+03  0.66138201157E+03  0.46053292259E+03 0.  0.
      99925    2    3    3    0    0 -0.86257615766E+02  0.78593213468E+02 -0.27005267220E+03  0.39465487116E+03  0.26307176224E+03 0.  0.
         25    1    4    4    0    0 -0.68555703320E+02  0.26738403637E+02 -0.98569143392E+02  0.17543719907E+03  0.12509000000E+03 0.  0.
         25    1    3    3    0    0  0.86257615766E+02 -0.78593213468E+02 -0.20464259051E+03  0.26672714041E+03  0.12509000000E+03 0.  0.
         25    1    4    4    0    0 -0.17701912447E+02  0.51854809832E+02 -0.17148352880E+03  0.21921767209E+03  0.12509000000E+03 0.  0.
<mgrwt>
<rscale>  2 0.46053292E+03</rscale>
<asrwt>0</asrwt>
<pdfrwt beam="1">  1       21 0.13726967E-01 0.46053292E+03</pdfrwt>
<pdfrwt beam="2">  1       21 0.83535095E-01 0.46053292E+03</pdfrwt>
<totfact> 0.52712154E+04</totfact>
</mgrwt>
</event>
<event>
 7    0  0.4831799E-002  0.4517707E+03  0.7546771E-02  0.1027195E+00
         21   -1    0    0  502  501  0.00000000000E+00  0.00000000000E+00  0.11537885151E+03  0.11537885151E+03  0.00000000000E+00 0.  1.
         21   -1    0    0  501  502 -0.00000000000E+00 -0.00000000000E+00 -0.44223169375E+03  0.44223169375E+03  0.00000000000E+00 0.  1.
      99926    2    1    2    0    0 -0.71054273576E-14 -0.14210854715E-13 -0.32685284224E+03  0.55761054525E+03  0.45177067158E+03 0.  0.
      99925    2    3    3    0    0  0.47922657068E+02  0.92684973177E+02 -0.16298829864E+03  0.32655604506E+03  0.26303341947E+03 0.  0.
         25    1    4    4    0    0 -0.18368125033E+01  0.11292489142E+02 -0.75259643639E+02  0.14643229238E+03  0.12509000000E+03 0.  0.
         25    1    4    4    0    0  0.49759469571E+02  0.81392484035E+02 -0.87728655000E+02  0.18012375267E+03  0.12509000000E+03 0.  0.
         25    1    3    3    0    0 -0.47922657068E+02 -0.92684973177E+02 -0.16386454360E+03  0.23105450020E+03  0.12509000000E+03 0.  0.
<mgrwt>
<rscale>  2 0.45177067E+03</rscale>
<asrwt>0</asrwt>
<pdfrwt beam="1">  1       21 0.16967478E-01 0.45177067E+03</pdfrwt>
<pdfrwt beam="2">  1       21 0.65034073E-01 0.45177067E+03</pdfrwt>
<totfact> 0.62959334E+04</totfact>
</mgrwt>
</event>
<event>
 7    0  0.4831799E-002  0.4419583E+03  0.7546771E-02  0.1030148E+00
         21   -1    0    0  502  501  0.00000000000E+00  0.00000000000E+00  0.15822750263E+04  0.15822750263E+04  0.00000000000E+00 0.  1.
         21   -1    0    0  501  502 -0.00000000000E+00 -0.00000000000E+00 -0.30861760599E+02  0.30861760599E+02  0.00000000000E+00 0.  1.
      99926    2    1    2    0    0  0.00000000000E+00  0.71054273576E-14  0.15514132657E+04  0.16131367869E+04  0.44195833769E+03 0.  0.
      99925    2    3    3    0    0  0.69721121412E+02  0.42034269504E+02  0.77392111639E+03  0.82144905494E+03  0.26305273406E+03 0.  0.
         25    1    4    4    0    0  0.32599739228E+02  0.31157671665E+02  0.50694767564E+03  0.52409636274E+03  0.12509000000E+03 0.  0.
         25    1    4    4    0    0  0.37121382184E+02  0.10876597839E+02  0.26697344075E+03  0.29735269220E+03  0.12509000000E+03 0.  0.
         25    1    3    3    0    0 -0.69721121412E+02 -0.42034269504E+02  0.77749214934E+03  0.79168773198E+03  0.12509000000E+03 0.  0.
<mgrwt>
<rscale>  2 0.44195834E+03</rscale>
<asrwt>0</asrwt>
<pdfrwt beam="1">  1       21 0.23268745E+00 0.44195834E+03</pdfrwt>
<pdfrwt beam="2">  1       21 0.45384952E-02 0.44195834E+03</pdfrwt>
<totfact> 0.23417777E+04</totfact>
</mgrwt>
</event>
<event>
 7    0  0.4831799E-002  0.4618940E+03  0.7546771E-02  0.1024233E+00
         21   -1    0    0  502  501  0.00000000000E+00  0.00000000000E+00  0.74308282471E+03  0.74308282471E+03  0.00000000000E+00 0.  1.
         21   -1    0    0  501  502 -0.00000000000E+00 -0.00000000000E+00 -0.71777338923E+02  0.71777338923E+02  0.00000000000E+00 0.  1.
      99926    2    1    2    0    0  0.71054273576E-14  0.00000000000E+00  0.67130548579E+03  0.81486016364E+03  0.46189396081E+03 0.  0.
      99925    2    3    3    0    0 -0.39082752803E+02 -0.76758429680E+02  0.56599167915E+03  0.63004180940E+03  0.26303380511E+03 0.  0.
         25    1    4    4    0    0 -0.29272828404E+01  0.97827900240E+00  0.25583951765E+03  0.28479974176E+03  0.12509000000E+03 0.  0.
         25    1    3    3    0    0  0.39082752803E+02  0.76758429680E+02  0.10531380664E+03  0.18481835423E+03  0.12509000000E+03 0.  0.
         25    1    4    4    0    0 -0.36155469962E+02 -0.77736708682E+02  0.31015216150E+03  0.34524206764E+03  0.12509000000E+03 0.  0.
<mgrwt>
<rscale>  2 0.46189396E+03</rscale>
<asrwt>0</asrwt>
<pdfrwt beam="1">  1       21 0.10927688E+00 0.46189396E+03</pdfrwt>
<pdfrwt beam="2">  1       21 0.10555491E-01 0.46189396E+03</pdfrwt>
<totfact> 0.44592728E+04</totfact>
</mgrwt>
</event>
<event>
 7    0  0.4831799E-002  0.4687002E+03  0.7546771E-02  0.1022288E+00
         21   -1    0    0  502  501  0.00000000000E+00  0.00000000000E+00  0.40525129852E+03  0.40525129852E+03  0.00000000000E+00 0.  1.
         21   -1    0    0  501  502 -0.00000000000E+00 -0.00000000000E+00 -0.13552076940E+03  0.13552076940E+03  0.00000000000E+00 0.  1.
      99926    2    1    2    0    0  0.35527136788E-14  0.71054273576E-14  0.26973052912E+03  0.54077206792E+03  0.46870019319E+03 0.  0.
      99925    2    3    3    0    0 -0.23315075362E+02  0.31716070002E+02  0.30482145504E+03  0.40502088738E+03  0.26377319411E+03 0.  0.
         25    1    4    4    0    0 -0.28905766526E+02 -0.18641819352E+02  0.12469657553E+03  0.17994389352E+03  0.12509000000E+03 0.  0.
         25    1    3    3    0    0  0.23315075362E+02 -0.31716070002E+02 -0.35090925913E+02  0.13575118054E+03  0.12509000000E+03 0.  0.
         25    1    4    4    0    0  0.55906911646E+01  0.50357889355E+02  0.18012487951E+03  0.22507699386E+03  0.12509000000E+03 0.  0.
<mgrwt>
<rscale>  2 0.46870019E+03</rscale>
<asrwt>0</asrwt>
<pdfrwt beam="1">  1       21 0.59595779E-01 0.46870019E+03</pdfrwt>
<pdfrwt beam="2">  1       21 0.19929525E-01 0.46870019E+03</pdfrwt>
<totfact> 0.56135741E+04</totfact>
</mgrwt>
</event>
<event>
 7    0  0.4831799E-002  0.4548018E+03  0.7546771E-02  0.1026300E+00
         21   -1    0    0  502  501  0.00000000000E+00  0.00000000000E+00  0.10051370447E+04  0.10051370447E+04  0.00000000000E+00 0. -1.
         21   -1    0    0  501  502 -0.00000000000E+00 -0.00000000000E+00 -0.51446892327E+02  0.51446892327E+02  0.00000000000E+00 0. -1.
      99926    2    1    2    0    0  0.00000000000E+00  0.00000000000E+00  0.95369015236E+03  0.10565839370E+04  0.45480183514E+03 0.  0.
      99925    2    3    3    0    0 -0.12097067506E+02  0.11019035770E+03  0.65089890613E+03  0.71072514955E+03  0.26300684065E+03 0.  0.
         25    1    4    4    0    0  0.15190900171E+02  0.19464573500E+02  0.26258308613E+03  0.29190241227E+03  0.12509000000E+03 0.  0.
         25    1    4    4    0    0 -0.27287967677E+02  0.90725784198E+02  0.38831582000E+03  0.41882273728E+03  0.12509000000E+03 0.  0.
         25    1    3    3    0    0  0.12097067506E+02 -0.11019035770E+03  0.30279124623E+03  0.34585878746E+03  0.12509000000E+03 0.  0.
<mgrwt>
<rscale>  2 0.45480184E+03</rscale>
<asrwt>0</asrwt>
<pdfrwt beam="1">  1       21 0.14781426E+00 0.45480184E+03</pdfrwt>
<pdfrwt beam="2">  1       21 0.75657201E-02 0.45480184E+03</pdfrwt>
<totfact> 0.37094066E+04</totfact>
</mgrwt>
</event>
<event>
 7    0  0.4831799E-002  0.4508045E+03  0.7546771E-02  0.1027482E+00
         21   -1    0    0  502  501  0.00000000000E+00  0.00000000000E+00  0.96179657337E+03  0.96179657337E+03  0.00000000000E+00 0.  1.
         21   -1    0    0  501  502 -0.00000000000E+00 -0.00000000000E+00 -0.52824244396E+02  0.52824244396E+02  0.00000000000E+00 0.  1.
      99926    2    1    2    0    0  0.00000000000E+00 -0.17763568394E-14  0.90897232897E+03  0.10146208178E+04  0.45080451307E+03 0.  0.
      99925    2    3    3    0    0  0.10822183042E+03  0.14412273813E+02  0.57453888322E+03  0.64124042734E+03  0.26301079657E+03 0.  0.
         25    1    3    3    0    0 -0.10822183042E+03 -0.14412273813E+02  0.33443344576E+03  0.37338039043E+03  0.12509000000E+03 0.  0.
         25    1    4    4    0    0  0.23208857469E+02  0.14261778735E+02  0.32682514518E+03  0.35100460541E+03  0.12509000000E+03 0.  0.
         25    1    4    4    0    0  0.85012972948E+02  0.15049507798E+00  0.24771373804E+03  0.29023582193E+03  0.12509000000E+03 0.  0.
<mgrwt>
<rscale>  2 0.45080451E+03</rscale>
<asrwt>0</asrwt>
<pdfrwt beam="1">  1       21 0.14144066E+00 0.45080451E+03</pdfrwt>
<pdfrwt beam="2">  1       21 0.77682718E-02 0.45080451E+03</pdfrwt>
<totfact> 0.39893835E+04</totfact>
</mgrwt>
</event>
<event>
 7    0  0.4831799E-002  0.4180503E+03  0.7546771E-02  0.1037703E+00
         21   -1    0    0  502  501  0.00000000000E+00  0.00000000000E+00  0.11266309419E+04  0.11266309419E+04  0.00000000000E+00 0.  1.
         21   -1    0    0  501  502 -0.00000000000E+00 -0.00000000000E+00 -0.38780685820E+02  0.38780685820E+02  0.00000000000E+00 0.  1.
      99926    2    1    2    0    0  0.00000000000E+00  0.17763568394E-14  0.10878502561E+04  0.11654116277E+04  0.41805033473E+03 0.  0.
      99925    2    3    3    0    0 -0.72930660506E+02 -0.70031761484E+01  0.69230997307E+03  0.74414265272E+03  0.26284456064E+03 0.  0.
         25    1    4    4    0    0 -0.58277196154E+02  0.18932192013E+02  0.28874345055E+03  0.32058532066E+03  0.12509000000E+03 0.  0.
         25    1    4    4    0    0 -0.14653464353E+02 -0.25935368161E+02  0.40356652252E+03  0.42355733205E+03  0.12509000000E+03 0.  0.
         25    1    3    3    0    0  0.72930660506E+02  0.70031761484E+01  0.39554028299E+03  0.42126897498E+03  0.12509000000E+03 0.  0.
<mgrwt>
<rscale>  2 0.41805033E+03</rscale>
<asrwt>0</asrwt>
<pdfrwt beam="1">  1       21 0.16568100E+00 0.41805033E+03</pdfrwt>
<pdfrwt beam="2">  1       21 0.57030428E-02 0.41805033E+03</pdfrwt>
<totfact> 0.44860579E+04</totfact>
</mgrwt>
</event>
<event>
 7    0  0.4831799E-002  0.4634528E+03  0.7546771E-02  0.1023785E+00
         21   -1    0    0  502  501  0.00000000000E+00  0.00000000000E+00  0.10536970011E+03  0.10536970011E+03  0.00000000000E+00 0.  1.
         21   -1    0    0  501  502 -0.00000000000E+00 -0.00000000000E+00 -0.50960693559E+03  0.50960693559E+03  0.00000000000E+00 0.  1.
      99926    2    1    2    0    0  0.00000000000E+00  0.00000000000E+00 -0.40423723548E+03  0.61497663570E+03  0.46345282383E+03 0.  0.
      99925    2    3    3    0    0 -0.29250390052E+02  0.25416886679E+02 -0.10039518032E+03  0.28411547746E+03  0.26294639921E+03 0.  0.
         25    1    3    3    0    0  0.29250390052E+02 -0.25416886679E+02 -0.30384205516E+03  0.33086115824E+03  0.12509000000E+03 0.  0.
         25    1    4    4    0    0 -0.14290857052E+02 -0.18604524236E+02 -0.76644842570E+02  0.14856748268E+03  0.12509000000E+03 0.  0.
         25    1    4    4    0    0 -0.14959533000E+02  0.44021410915E+02 -0.23750337746E+02  0.13554799478E+03  0.12509000000E+03 0.  0.
<mgrwt>
<rscale>  2 0.46345282E+03</rscale>
<asrwt>0</asrwt>
<pdfrwt beam="1">  1       21 0.15495544E-01 0.46345282E+03</pdfrwt>
<pdfrwt beam="2">  1       21 0.74942195E-01 0.46345282E+03</pdfrwt>
<totfact> 0.54064878E+04</totfact>
</mgrwt>
</event>
<event>
 7    0  0.4831799E-002  0.4402825E+03  0.7546771E-02  0.1030660E+00
         21   -1    0    0  502  501  0.00000000000E+00  0.00000000000E+00  0.19296524691E+04  0.19296524691E+04  0.00000000000E+00 0.  1.
         21   -1    0    0  501  502 -0.00000000000E+00 -0.00000000000E+00 -0.25114456657E+02  0.25114456657E+02  0.00000000000E+00 0.  1.
      99926    2    1    2    0    0 -0.17763568394E-14  0.71054273576E-14  0.19045380125E+04  0.19547669258E+04  0.44028251521E+03 0.  0.
      99925    2    3    3    0    0  0.11274518270E+02 -0.61652566451E+02  0.87690409453E+03  0.91765211483E+03  0.26305219848E+03 0.  0.
         25    1    4    4    0    0  0.40245940911E+02 -0.10984521745E+02  0.45678079496E+03  0.47543306387E+03  0.12509000000E+03 0.  0.
         25    1    3    3    0    0 -0.11274518270E+02  0.61652566451E+02  0.10276339179E+04  0.10371148110E+04  0.12509000000E+03 0.  0.
         25    1    4    4    0    0 -0.28971422641E+02 -0.50668044707E+02  0.42012329957E+03  0.44221905095E+03  0.12509000000E+03 0.  0.
<mgrwt>
<rscale>  2 0.44028252E+03</rscale>
<asrwt>0</asrwt>
<pdfrwt beam="1">  1       21 0.28377232E+00 0.44028252E+03</pdfrwt>
<pdfrwt beam="2">  1       21 0.36933038E-02 0.44028252E+03</pdfrwt>
<totfact> 0.16240177E+04</totfact>
</mgrwt>
</event>
<event>
 7    0  0.4831799E-002  0.4464152E+03  0.7546771E-02  0.1028796E+00
         21   -1    0    0  502  501  0.00000000000E+00  0.00000000000E+00  0.22911985720E+02  0.22911985720E+02  0.00000000000E+00 0. -1.
         21   -1    0    0  501  502 -0.00000000000E+00 -0.00000000000E+00 -0.21744791679E+04  0.21744791679E+04  0.00000000000E+00 0. -1.
      99926    2    1    2    0    0 -0.88817841970E-15 -0.14210854715E-13 -0.21515671821E+04  0.21973911536E+04  0.44641521320E+03 0.  0.
      99925    2    3    3    0    0  0.42562542554E+01  0.95850737513E+02 -0.15754603444E+04  0.16001038892E+04  0.26277686337E+03 0.  0.
         25    1    4    4    0    0  0.19969834008E+02  0.84502590981E+02 -0.79636817779E+03  0.81079545192E+03  0.12509000000E+03 0.  0.
         25    1    4    4    0    0 -0.15713579752E+02  0.11348146532E+02 -0.77909216658E+03  0.78930843727E+03  0.12509000000E+03 0.  0.
         25    1    3    3    0    0 -0.42562542554E+01 -0.95850737513E+02 -0.57610683776E+03  0.59728726439E+03  0.12509000000E+03 0.  0.
<mgrwt>
<rscale>  2 0.44641521E+03</rscale>
<asrwt>0</asrwt>
<pdfrwt beam="1">  1       21 0.33694111E-02 0.44641521E+03</pdfrwt>
<pdfrwt beam="2">  1       21 0.31977621E+00 0.44641521E+03</pdfrwt>
<totfact> 0.11494229E+04</totfact>
</mgrwt>
</event>
<event>
 7    0  0.4831799E-002  0.4445071E+03  0.7546771E-02  0.1029373E+00
         21   -1    0    0  502  501  0.00000000000E+00  0.00000000000E+00  0.35512800237E+03  0.35512800237E+03  0.00000000000E+00 0.  1.
         21   -1    0    0  501  502 -0.00000000000E+00 -0.00000000000E+00 -0.13909530564E+03  0.13909530564E+03  0.00000000000E+00 0.  1.
      99926    2    1    2    0    0 -0.71054273576E-14  0.00000000000E+00  0.21603269674E+03  0.49422330801E+03  0.44450708894E+03 0.  0.
      99925    2    3    3    0    0  0.35647814325E+02  0.90013439415E+02  0.97763215635E+02  0.29671795567E+03  0.26288916476E+03 0.  0.
         25    1    4    4    0    0 -0.97736963634E+01  0.14277711615E+02  0.33439145876E+02  0.13063331415E+03  0.12509000000E+03 0.  0.
         25    1    3    3    0    0 -0.35647814325E+02 -0.90013439415E+02  0.11826948110E+03  0.19750535234E+03  0.12509000000E+03 0.  0.
         25    1    4    4    0    0  0.45421510688E+02  0.75735727800E+02  0.64324069759E+02  0.16608464152E+03  0.12509000000E+03 0.  0.
<mgrwt>
<rscale>  2 0.44450709E+03</rscale>
<asrwt>0</asrwt>
<pdfrwt beam="1">  1       21 0.52224706E-01 0.44450709E+03</pdfrwt>
<pdfrwt beam="2">  1       21 0.20455192E-01 0.44450709E+03</pdfrwt>
<totfact> 0.71446494E+04</totfact>
</mgrwt>
</event>
<event>
 7    0  0.4831799E-002  0.4516416E+03  0.7546771E-02  0.1027234E+00
         21   -1    0    0  502  501  0.00000000000E+00  0.00000000000E+00  0.57274601826E+03  0.57274601826E+03  0.00000000000E+00 0. -1.
         21   -1    0    0  501  502 -0.00000000000E+00 -0.00000000000E+00 -0.89036031573E+02  0.89036031573E+02  0.00000000000E+00 0. -1.
      99926    2    1    2    0    0  0.00000000000E+00  0.00000000000E+00  0.48370998669E+03  0.66178204984E+03  0.45164159492E+03 0.  0.
      99925    2    3    3    0    0 -0.10423429170E+03  0.34813637037E+02  0.29267246977E+03  0.40836615084E+03  0.26273363261E+03 0.  0.
         25    1    3    3    0    0  0.10423429170E+03 -0.34813637037E+02  0.19103751693E+03  0.25341589899E+03  0.12509000000E+03 0.  0.
         25    1    4    4    0    0 -0.53013986348E+02  0.47491758084E+02  0.11198041930E+03  0.18235424931E+03  0.12509000000E+03 0.  0.
         25    1    4    4    0    0 -0.51220305351E+02 -0.12678121047E+02  0.18069205046E+03  0.22601190153E+03  0.12509000000E+03 0.  0.
<mgrwt>
<rscale>  2 0.45164159E+03</rscale>
<asrwt>0</asrwt>
<pdfrwt beam="1">  1       21 0.84227353E-01 0.45164159E+03</pdfrwt>
<pdfrwt beam="2">  1       21 0.13093534E-01 0.45164159E+03</pdfrwt>
<totfact> 0.56508746E+04</totfact>
</mgrwt>
</event>
<event>
 7    0  0.4831799E-002  0.4540993E+03  0.7546771E-02  0.1026507E+00
         21   -1    0    0  502  501  0.00000000000E+00  0.00000000000E+00  0.21179406660E+04  0.21179406660E+04  0.00000000000E+00 0.  1.
         21   -1    0    0  501  502 -0.00000000000E+00 -0.00000000000E+00 -0.24340406491E+02  0.24340406491E+02  0.00000000000E+00 0.  1.
      99926    2    1    2    0    0  0.00000000000E+00  0.00000000000E+00  0.20936002595E+04  0.21422810725E+04  0.45409926992E+03 0.  0.
      99925    2    3    3    0    0  0.86965519175E+02 -0.54943547646E+02  0.15314416539E+04  0.15572583371E+04  0.26297945593E+03 0.  0.
         25    1    4    4    0    0  0.10511443325E+02 -0.16880521819E+02  0.56530125976E+03  0.57931724025E+03  0.12509000000E+03 0.  0.
         25    1    4    4    0    0  0.76454075849E+02 -0.38063025827E+02  0.96614039416E+03  0.97794109689E+03  0.12509000000E+03 0.  0.
         25    1    3    3    0    0 -0.86965519175E+02  0.54943547646E+02  0.56215860557E+03  0.58502273535E+03  0.12509000000E+03 0.  0.
<mgrwt>
<rscale>  2 0.45409927E+03</rscale>
<asrwt>0</asrwt>
<pdfrwt beam="1">  1       21 0.31146174E+00 0.45409927E+03</pdfrwt>
<pdfrwt beam="2">  1       21 0.35794730E-02 0.45409927E+03</pdfrwt>
<totfact> 0.11603768E+04</totfact>
</mgrwt>
</event>
<event>
 7    0  0.4831799E-002  0.4544701E+03  0.7546771E-02  0.1026397E+00
         21   -1    0    0  502  501  0.00000000000E+00  0.00000000000E+00  0.35655980035E+03  0.35655980035E+03  0.00000000000E+00 0.  1.
         21   -1    0    0  501  502 -0.00000000000E+00 -0.00000000000E+00 -0.14481654441E+03  0.14481654441E+03  0.00000000000E+00 0.  1.
      99926    2    1    2    0    0  0.88817841970E-15  0.00000000000E+00  0.21174325595E+03  0.50137634476E+03  0.45447005693E+03 0.  0.
      99925    2    3    3    0    0 -0.62996845694E+01  0.91016747266E+02  0.60219115712E+02  0.28474115029E+03  0.26292098901E+03 0.  0.
         25    1    4    4    0    0 -0.30830710939E+02  0.66075055193E+02  0.54560396516E+02  0.15472811840E+03  0.12509000000E+03 0.  0.
         25    1    3    3    0    0  0.62996845694E+01 -0.91016747266E+02  0.15152414024E+03  0.21663519447E+03  0.12509000000E+03 0.  0.
         25    1    4    4    0    0  0.24531026369E+02  0.24941692073E+02  0.56587191955E+01  0.13001303189E+03  0.12509000000E+03 0.  0.
<mgrwt>
<rscale>  2 0.45447006E+03</rscale>
<asrwt>0</asrwt>
<pdfrwt beam="1">  1       21 0.52435265E-01 0.45447006E+03</pdfrwt>
<pdfrwt beam="2">  1       21 0.21296551E-01 0.45447006E+03</pdfrwt>
<totfact> 0.65448962E+04</totfact>
</mgrwt>
</event>
<event>
 7    0  0.4831799E-002  0.4544881E+03  0.7546771E-02  0.1026392E+00
         21   -1    0    0  502  501  0.00000000000E+00  0.00000000000E+00  0.57760616632E+03  0.57760616632E+03  0.00000000000E+00 0. -1.
         21   -1    0    0  501  502 -0.00000000000E+00 -0.00000000000E+00 -0.89403236035E+02  0.89403236035E+02  0.00000000000E+00 0. -1.
      99926    2    1    2    0    0  0.00000000000E+00  0.21094237468E-14  0.48820293028E+03  0.66700940235E+03  0.45448810951E+03 0.  0.
      99925    2    3    3    0    0  0.89811754030E+02  0.32453827048E+00  0.20746062107E+03  0.34680632809E+03  0.26299897988E+03 0.  0.
         25    1    3    3    0    0 -0.89811754030E+02 -0.32453827048E+00  0.28074230921E+03  0.32020307426E+03  0.12509000000E+03 0.  0.
         25    1    4    4    0    0  0.11373970821E+02 -0.24357619587E+02  0.88024453855E+02  0.15530123445E+03  0.12509000000E+03 0.  0.
         25    1    4    4    0    0  0.78437783209E+02  0.24682157857E+02  0.11943616722E+03  0.19150509364E+03  0.12509000000E+03 0.  0.
<mgrwt>
<rscale>  2 0.45448811E+03</rscale>
<asrwt>0</asrwt>
<pdfrwt beam="1">  1       21 0.84942081E-01 0.45448811E+03</pdfrwt>
<pdfrwt beam="2">  1       21 0.13147535E-01 0.45448811E+03</pdfrwt>
<totfact> 0.54952335E+04</totfact>
</mgrwt>
</event>
<event>
 7    0  0.4831799E-002  0.4561740E+03  0.7546771E-02  0.1025897E+00
         21   -1    0    0  502  501  0.00000000000E+00  0.00000000000E+00  0.11194307328E+03  0.11194307328E+03  0.00000000000E+00 0.  1.
         21   -1    0    0  501  502 -0.00000000000E+00 -0.00000000000E+00 -0.46473333695E+03  0.46473333695E+03  0.00000000000E+00 0.  1.
      99926    2    1    2    0    0  0.00000000000E+00  0.00000000000E+00 -0.35279026368E+03  0.57667641023E+03  0.45617399309E+03 0.  0.
      99925    2    3    3    0    0 -0.22088092287E+02  0.68051231296E+02 -0.10909013224E+03  0.29355785545E+03  0.26297662185E+03 0.  0.
         25    1    4    4    0    0  0.16436133474E+02  0.52232805558E+02 -0.29974912684E+02  0.13980134459E+03  0.12509000000E+03 0.  0.
         25    1    3    3    0    0  0.22088092287E+02 -0.68051231296E+02 -0.24370013143E+03  0.28311855478E+03  0.12509000000E+03 0.  0.
         25    1    4    4    0    0 -0.38524225762E+02  0.15818425738E+02 -0.79115219560E+02  0.15375651085E+03  0.12509000000E+03 0.  0.
<mgrwt>
<rscale>  2 0.45617399E+03</rscale>
<asrwt>0</asrwt>
<pdfrwt beam="1">  1       21 0.16462217E-01 0.45617399E+03</pdfrwt>
<pdfrwt beam="2">  1       21 0.68343138E-01 0.45617399E+03</pdfrwt>
<totfact> 0.59582385E+04</totfact>
</mgrwt>
</event>
<event>
 7    0  0.4831799E-002  0.4547586E+03  0.7546771E-02  0.1026312E+00
         21   -1    0    0  502  501  0.00000000000E+00  0.00000000000E+00  0.20826234223E+03  0.20826234223E+03  0.00000000000E+00 0. -1.
         21   -1    0    0  501  502 -0.00000000000E+00 -0.00000000000E+00 -0.24825103556E+03  0.24825103556E+03  0.00000000000E+00 0. -1.
      99926    2    1    2    0    0  0.00000000000E+00  0.00000000000E+00 -0.39988693327E+02  0.45651337779E+03  0.45475858266E+03 0.  0.
      99925    2    3    3    0    0  0.36756495188E+02  0.50877023816E+02 -0.11933690886E+03  0.29563093966E+03  0.26309094088E+03 0.  0.
         25    1    3    3    0    0 -0.36756495188E+02 -0.50877023816E+02  0.79348215534E+02  0.16088243813E+03  0.12509000000E+03 0.  0.
         25    1    4    4    0    0  0.42831914564E+02  0.59371400280E+02 -0.62617943200E+02  0.15788619632E+03  0.12509000000E+03 0.  0.
         25    1    4    4    0    0 -0.60754193767E+01 -0.84943764636E+01 -0.56718965661E+02  0.13774474334E+03  0.12509000000E+03 0.  0.
<mgrwt>
<rscale>  2 0.45475858E+03</rscale>
<asrwt>0</asrwt>
<pdfrwt beam="1">  1       21 0.30626815E-01 0.45475858E+03</pdfrwt>
<pdfrwt beam="2">  1       21 0.36507505E-01 0.45475858E+03</pdfrwt>
<totfact> 0.68567065E+04</totfact>
</mgrwt>
</event>
<event>
 7    0  0.4831799E-002  0.4546675E+03  0.7546771E-02  0.1026339E+00
         21   -1    0    0  502  501  0.00000000000E+00  0.00000000000E+00  0.46938249568E+03  0.46938249568E+03  0.00000000000E+00 0. -1.
         21   -1    0    0  501  502 -0.00000000000E+00 -0.00000000000E+00 -0.11010343799E+03  0.11010343799E+03  0.00000000000E+00 0. -1.
      99926    2    1    2    0    0  0.00000000000E+00  0.00000000000E+00  0.35927905768E+03  0.57948593367E+03  0.45466746753E+03 0.  0.
      99925    2    3    3    0    0  0.64362563578E+02 -0.90901838765E+02  0.20292181787E+03  0.35035545027E+03  0.26299428413E+03 0.  0.
         25    1    3    3    0    0 -0.64362563578E+02  0.90901838765E+02  0.15635723981E+03  0.22913048340E+03  0.12509000000E+03 0.  0.
         25    1    4    4    0    0  0.78546152794E+01 -0.49925309441E+02  0.58853580052E+02  0.14719199533E+03  0.12509000000E+03 0.  0.
         25    1    4    4    0    0  0.56507948298E+02 -0.40976529324E+02  0.14406823782E+03  0.20316345494E+03  0.12509000000E+03 0.  0.
<mgrwt>
<rscale>  2 0.45466747E+03</rscale>
<asrwt>0</asrwt>
<pdfrwt beam="1">  1       21 0.69026837E-01 0.45466747E+03</pdfrwt>
<pdfrwt beam="2">  1       21 0.16191682E-01 0.45466747E+03</pdfrwt>
<totfact> 0.60116956E+04</totfact>
</mgrwt>
</event>
