<event>
 6    0  0.1572624E-007  0.4534370E+03  0.7546771E-02  0.1026702E+00
         21   -1    0    0  502  501  0.00000000000E+00  0.00000000000E+00  0.76999663853E+02  0.76999663853E+02  0.00000000000E+00 0. -1.
         21   -1    0    0  501  502 -0.00000000000E+00 -0.00000000000E+00 -0.66755190371E+03  0.66755190371E+03  0.00000000000E+00 0. -1.
      99926    2    1    2    0    0  0.00000000000E+00  0.14210854715E-13 -0.59055223986E+03  0.74455156757E+03  0.45343697331E+03 0.  0.
         25    1    3    3    0    0  0.36475578584E+02 -0.21992135527E+01 -0.20032412441E+03  0.23898235770E+03  0.12509000000E+03 0.  0.
         25    1    3    3    0    0  0.31539071876E+02  0.79531799921E+02 -0.24442762982E+03  0.28759762616E+03  0.12509000000E+03 0.  0.
         25    1    3    3    0    0 -0.68014650460E+02 -0.77332586368E+02 -0.14580048563E+03  0.21797158370E+03  0.12509000000E+03 0.  0.
<mgrwt>
<rscale>  2 0.45343697E+03</rscale>
<asrwt>0</asrwt>
<pdfrwt beam="1">  1       21 0.11323480E-01 0.45343697E+03</pdfrwt>
<pdfrwt beam="2">  1       21 0.98169396E-01 0.45343697E+03</pdfrwt>
<totfact> 0.51175805E+04</totfact>
</mgrwt>
</event>
<event>
 6    0  0.1572624E-007  0.4485012E+03  0.7546771E-02  0.1028170E+00
         21   -1    0    0  502  501  0.00000000000E+00  0.00000000000E+00  0.10408555275E+03  0.10408555275E+03  0.00000000000E+00 0.  1.
         21   -1    0    0  501  502 -0.00000000000E+00 -0.00000000000E+00 -0.48314426960E+03  0.48314426960E+03  0.00000000000E+00 0.  1.
      99926    2    1    2    0    0 -0.88817841970E-14 -0.17763568394E-14 -0.37905871685E+03  0.58722982236E+03  0.44850123015E+03 0.  0.
         25    1    3    3    0    0  0.93582615858E+01  0.14263968296E+02 -0.14789234780E+03  0.19444971712E+03  0.12509000000E+03 0.  0.
         25    1    3    3    0    0 -0.10162593919E+03 -0.14786076553E+01 -0.12748444134E+03  0.20549892623E+03  0.12509000000E+03 0.  0.
         25    1    3    3    0    0  0.92267677605E+02 -0.12785360641E+02 -0.10368192771E+03  0.18728117901E+03  0.12509000000E+03 0.  0.
<mgrwt>
<rscale>  2 0.44850123E+03</rscale>
<asrwt>0</asrwt>
<pdfrwt beam="1">  1       21 0.15306699E-01 0.44850123E+03</pdfrwt>
<pdfrwt beam="2">  1       21 0.71050627E-01 0.44850123E+03</pdfrwt>
<totfact> 0.62626682E+04</totfact>
</mgrwt>
</event>
<event>
 6    0  0.1572624E-007  0.4506896E+03  0.7546771E-02  0.1027517E+00
         21   -1    0    0  502  501  0.00000000000E+00  0.00000000000E+00  0.54896761859E+03  0.54896761859E+03  0.00000000000E+00 0.  1.
         21   -1    0    0  501  502 -0.00000000000E+00 -0.00000000000E+00 -0.92501409787E+02  0.92501409787E+02  0.00000000000E+00 0.  1.
      99926    2    1    2    0    0  0.00000000000E+00  0.71054273576E-14  0.45646620880E+03  0.64146902838E+03  0.45068959893E+03 0.  0.
         25    1    3    3    0    0  0.49341564965E+02 -0.67810983550E+02  0.78772342545E+02  0.16995737575E+03  0.12509000000E+03 0.  0.
         25    1    3    3    0    0 -0.41745180143E+02 -0.13967098165E+02  0.17568727130E+03  0.22011648119E+03  0.12509000000E+03 0.  0.
         25    1    3    3    0    0 -0.75963848219E+01  0.81778081715E+02  0.20200659496E+03  0.25139517143E+03  0.12509000000E+03 0.  0.
<mgrwt>
<rscale>  2 0.45068960E+03</rscale>
<asrwt>0</asrwt>
<pdfrwt beam="1">  1       21 0.80730531E-01 0.45068960E+03</pdfrwt>
<pdfrwt beam="2">  1       21 0.13603149E-01 0.45068960E+03</pdfrwt>
<totfact> 0.58148349E+04</totfact>
</mgrwt>
</event>
<event>
 6    0  0.1572624E-007  0.4798656E+03  0.7546771E-02  0.1019172E+00
         21   -1    0    0  502  501  0.00000000000E+00  0.00000000000E+00  0.83476918418E+02  0.83476918418E+02  0.00000000000E+00 0.  1.
         21   -1    0    0  501  502 -0.00000000000E+00 -0.00000000000E+00 -0.68962471441E+03  0.68962471441E+03  0.00000000000E+00 0.  1.
      99926    2    1    2    0    0  0.71054273576E-14  0.00000000000E+00 -0.60614779599E+03  0.77310163283E+03  0.47986558961E+03 0.  0.
         25    1    3    3    0    0  0.10769654229E+03 -0.16602734690E+02 -0.15869526590E+03  0.22957763728E+03  0.12509000000E+03 0.  0.
         25    1    3    3    0    0 -0.38417984106E+02 -0.12343431702E+02 -0.95313953446E+02  0.16235935338E+03  0.12509000000E+03 0.  0.
         25    1    3    3    0    0 -0.69278558187E+02  0.28946166393E+02 -0.35213857664E+03  0.38116464216E+03  0.12509000000E+03 0.  0.
<mgrwt>
<rscale>  2 0.47986559E+03</rscale>
<asrwt>0</asrwt>
<pdfrwt beam="1">  1       21 0.12276017E-01 0.47986559E+03</pdfrwt>
<pdfrwt beam="2">  1       21 0.10141540E+00 0.47986559E+03</pdfrwt>
<totfact> 0.40574762E+04</totfact>
</mgrwt>
</event>
<event>
 6    0  0.1572624E-007  0.4817752E+03  0.7546771E-02  0.1018648E+00
         21   -1    0    0  502  501  0.00000000000E+00  0.00000000000E+00  0.50290598134E+03  0.50290598134E+03  0.00000000000E+00 0. -1.
         21   -1    0    0  501  502 -0.00000000000E+00 -0.00000000000E+00 -0.11538306133E+03  0.11538306133E+03  0.00000000000E+00 0. -1.
      99926    2    1    2    0    0  0.35527136788E-14  0.35527136788E-14  0.38752292001E+03  0.61828904267E+03  0.48177518279E+03 0.  0.
         25    1    3    3    0    0  0.24662544060E+02  0.28960906102E+02  0.19120975309E+03  0.23163689892E+03  0.12509000000E+03 0.  0.
         25    1    3    3    0    0 -0.25376875045E+02  0.93309336276E+02  0.97360522381E+02  0.18568036364E+03  0.12509000000E+03 0.  0.
         25    1    3    3    0    0  0.71433098528E+00 -0.12227024238E+03  0.98952644531E+02  0.20097178011E+03  0.12509000000E+03 0.  0.
<mgrwt>
<rscale>  2 0.48177518E+03</rscale>
<asrwt>0</asrwt>
<pdfrwt beam="1">  1       21 0.73956762E-01 0.48177518E+03</pdfrwt>
<pdfrwt beam="2">  1       21 0.16968097E-01 0.48177518E+03</pdfrwt>
<totfact> 0.46845356E+04</totfact>
</mgrwt>
</event>
<event>
 6    0  0.1572624E-007  0.4562270E+03  0.7546771E-02  0.1025881E+00
         21   -1    0    0  502  501  0.00000000000E+00  0.00000000000E+00  0.23320209781E+03  0.23320209781E+03  0.00000000000E+00 0. -1.
         21   -1    0    0  501  502 -0.00000000000E+00 -0.00000000000E+00 -0.22313594906E+03  0.22313594906E+03  0.00000000000E+00 0. -1.
      99926    2    1    2    0    0  0.00000000000E+00 -0.26645352591E-14  0.10066148751E+02  0.45633804688E+03  0.45622701112E+03 0.  0.
         25    1    3    3    0    0  0.73842172590E+02 -0.29761454168E+01  0.56967003097E+02  0.15605855131E+03  0.12509000000E+03 0.  0.
         25    1    3    3    0    0 -0.29551401858E+02 -0.42846446479E+02 -0.78213394999E+02  0.15644151171E+03  0.12509000000E+03 0.  0.
         25    1    3    3    0    0 -0.44290770732E+02  0.45822591896E+02  0.31312540652E+02  0.14383798386E+03  0.12509000000E+03 0.  0.
<mgrwt>
<rscale>  2 0.45622701E+03</rscale>
<asrwt>0</asrwt>
<pdfrwt beam="1">  1       21 0.34294426E-01 0.45622701E+03</pdfrwt>
<pdfrwt beam="2">  1       21 0.32814110E-01 0.45622701E+03</pdfrwt>
<totfact> 0.67781848E+04</totfact>
</mgrwt>
</event>
<event>
 6    0  0.1572624E-007  0.4771441E+03  0.7546771E-02  0.1019923E+00
         21   -1    0    0  502  501  0.00000000000E+00  0.00000000000E+00  0.30345172475E+03  0.30345172475E+03  0.00000000000E+00 0.  1.
         21   -1    0    0  501  502 -0.00000000000E+00 -0.00000000000E+00 -0.18756401670E+03  0.18756401670E+03  0.00000000000E+00 0.  1.
      99926    2    1    2    0    0  0.00000000000E+00  0.71054273576E-14  0.11588770806E+03  0.49101574145E+03  0.47714410557E+03 0.  0.
         25    1    3    3    0    0  0.21771436498E+02 -0.20955000501E+02  0.14001022268E+02  0.12944745736E+03  0.12509000000E+03 0.  0.
         25    1    3    3    0    0 -0.76362516429E+01  0.42544474563E+02  0.17108741597E+03  0.21630246568E+03  0.12509000000E+03 0.  0.
         25    1    3    3    0    0 -0.14135184855E+02 -0.21589474062E+02 -0.69200730181E+02  0.14526581841E+03  0.12509000000E+03 0.  0.
<mgrwt>
<rscale>  2 0.47714411E+03</rscale>
<asrwt>0</asrwt>
<pdfrwt beam="1">  1       21 0.44625254E-01 0.47714411E+03</pdfrwt>
<pdfrwt beam="2">  1       21 0.27582944E-01 0.47714411E+03</pdfrwt>
<totfact> 0.55492013E+04</totfact>
</mgrwt>
</event>
<event>
 6    0  0.1572624E-007  0.4444016E+03  0.7546771E-02  0.1029405E+00
         21   -1    0    0  502  501  0.00000000000E+00  0.00000000000E+00  0.73210631491E+03  0.73210631491E+03  0.00000000000E+00 0.  1.
         21   -1    0    0  501  502 -0.00000000000E+00 -0.00000000000E+00 -0.67439914026E+02  0.67439914026E+02  0.00000000000E+00 0.  1.
      99926    2    1    2    0    0  0.00000000000E+00 -0.71054273576E-14  0.66466640088E+03  0.79954622893E+03  0.44440156136E+03 0.  0.
         25    1    3    3    0    0 -0.71619937110E+02 -0.19186337690E+02  0.16244113606E+03  0.21801871876E+03  0.12509000000E+03 0.  0.
         25    1    3    3    0    0  0.48229788032E+02 -0.45489537805E+02  0.17927463527E+03  0.22843448394E+03  0.12509000000E+03 0.  0.
         25    1    3    3    0    0  0.23390149078E+02  0.64675875495E+02  0.32295062955E+03  0.35309302623E+03  0.12509000000E+03 0.  0.
<mgrwt>
<rscale>  2 0.44440156E+03</rscale>
<asrwt>0</asrwt>
<pdfrwt beam="1">  1       21 0.10766269E+00 0.44440156E+03</pdfrwt>
<pdfrwt beam="2">  1       21 0.99176348E-02 0.44440156E+03</pdfrwt>
<totfact> 0.51977012E+04</totfact>
</mgrwt>
</event>
<event>
 6    0  0.1572624E-007  0.4414096E+03  0.7546771E-02  0.1030315E+00
         21   -1    0    0  502  501  0.00000000000E+00  0.00000000000E+00  0.52290430539E+02  0.52290430539E+02  0.00000000000E+00 0.  1.
         21   -1    0    0  501  502 -0.00000000000E+00 -0.00000000000E+00 -0.93153953387E+03  0.93153953387E+03  0.00000000000E+00 0.  1.
      99926    2    1    2    0    0  0.00000000000E+00  0.00000000000E+00 -0.87924910333E+03  0.98382996440E+03  0.44140957529E+03 0.  0.
         25    1    3    3    0    0  0.85558736450E+02  0.22225256676E+02 -0.31435206788E+03  0.34968412903E+03  0.12509000000E+03 0.  0.
         25    1    3    3    0    0 -0.48225590388E+02 -0.40641982228E+02 -0.39494819839E+03  0.41905735383E+03  0.12509000000E+03 0.  0.
         25    1    3    3    0    0 -0.37333146062E+02  0.18416725551E+02 -0.16994883706E+03  0.21508848154E+03  0.12509000000E+03 0.  0.
<mgrwt>
<rscale>  2 0.44140958E+03</rscale>
<asrwt>0</asrwt>
<pdfrwt beam="1">  1       21 0.76897702E-02 0.44140958E+03</pdfrwt>
<pdfrwt beam="2">  1       21 0.13699109E+00 0.44140958E+03</pdfrwt>
<totfact> 0.44323242E+04</totfact>
</mgrwt>
</event>
<event>
 6    0  0.1572624E-007  0.4517516E+03  0.7546771E-02  0.1027201E+00
         21   -1    0    0  502  501  0.00000000000E+00  0.00000000000E+00  0.49139706734E+03  0.49139706734E+03  0.00000000000E+00 0. -1.
         21   -1    0    0  501  502 -0.00000000000E+00 -0.00000000000E+00 -0.10382618890E+03  0.10382618890E+03  0.00000000000E+00 0. -1.
      99926    2    1    2    0    0 -0.35527136788E-14  0.00000000000E+00  0.38757087844E+03  0.59522325623E+03  0.45175163414E+03 0.  0.
         25    1    3    3    0    0  0.12233398149E+02  0.26451435324E+02  0.54454330033E+02  0.13950669024E+03  0.12509000000E+03 0.  0.
         25    1    3    3    0    0  0.22233420894E+02 -0.91848388793E+02  0.11841235494E+03  0.19646741570E+03  0.12509000000E+03 0.  0.
         25    1    3    3    0    0 -0.34466819043E+02  0.65396953469E+02  0.21470419347E+03  0.25924915030E+03  0.12509000000E+03 0.  0.
<mgrwt>
<rscale>  2 0.45175163E+03</rscale>
<asrwt>0</asrwt>
<pdfrwt beam="1">  1       21 0.72264273E-01 0.45175163E+03</pdfrwt>
<pdfrwt beam="2">  1       21 0.15268557E-01 0.45175163E+03</pdfrwt>
<totfact> 0.60511654E+04</totfact>
</mgrwt>
</event>
<event>
 6    0  0.1572624E-007  0.4547121E+03  0.7546771E-02  0.1026326E+00
         21   -1    0    0  502  501  0.00000000000E+00  0.00000000000E+00  0.58651463350E+02  0.58651463350E+02  0.00000000000E+00 0.  1.
         21   -1    0    0  501  502 -0.00000000000E+00 -0.00000000000E+00 -0.88132114326E+03  0.88132114326E+03  0.00000000000E+00 0.  1.
      99926    2    1    2    0    0  0.00000000000E+00 -0.71054273576E-14 -0.82266967991E+03  0.93997260661E+03  0.45471210555E+03 0.  0.
         25    1    3    3    0    0 -0.21299173367E+02 -0.61261613787E+02 -0.32383001126E+03  0.35315722335E+03  0.12509000000E+03 0.  0.
         25    1    3    3    0    0  0.85402171787E+02  0.11445437053E+02 -0.18515480194E+03  0.23948765679E+03  0.12509000000E+03 0.  0.
         25    1    3    3    0    0 -0.64102998420E+02  0.49816176734E+02 -0.31368486671E+03  0.34732772647E+03  0.12509000000E+03 0.  0.
<mgrwt>
<rscale>  2 0.45471211E+03</rscale>
<asrwt>0</asrwt>
<pdfrwt beam="1">  1       21 0.86252152E-02 0.45471211E+03</pdfrwt>
<pdfrwt beam="2">  1       21 0.12960605E+00 0.45471211E+03</pdfrwt>
<totfact> 0.41643209E+04</totfact>
</mgrwt>
</event>
<event>
 6    0  0.1572624E-007  0.4623141E+03  0.7546771E-02  0.1024112E+00
         21   -1    0    0  502  501  0.00000000000E+00  0.00000000000E+00  0.10727395431E+04  0.10727395431E+04  0.00000000000E+00 0. -1.
         21   -1    0    0  501  502 -0.00000000000E+00 -0.00000000000E+00 -0.49810405581E+02  0.49810405581E+02  0.00000000000E+00 0. -1.
      99926    2    1    2    0    0  0.00000000000E+00 -0.71054273576E-14  0.10229291375E+04  0.11225499487E+04  0.46231414309E+03 0.  0.
         25    1    3    3    0    0  0.57205866820E+01 -0.47997611831E+02  0.59254173297E+03  0.60752753786E+03  0.12509000000E+03 0.  0.
         25    1    3    3    0    0 -0.19437317431E+02  0.83177131566E+02  0.24944792265E+03  0.29183560224E+03  0.12509000000E+03 0.  0.
         25    1    3    3    0    0  0.13716730749E+02 -0.35179519736E+02  0.18093948193E+03  0.22318680860E+03  0.12509000000E+03 0.  0.
<mgrwt>
<rscale>  2 0.46231414E+03</rscale>
<asrwt>0</asrwt>
<pdfrwt beam="1">  1       21 0.15775580E+00 0.46231414E+03</pdfrwt>
<pdfrwt beam="2">  1       21 0.73250603E-02 0.46231414E+03</pdfrwt>
<totfact> 0.32801519E+04</totfact>
</mgrwt>
</event>
<event>
 6    0  0.1572624E-007  0.4547318E+03  0.7546771E-02  0.1026320E+00
         21   -1    0    0  502  501  0.00000000000E+00  0.00000000000E+00  0.68441678998E+03  0.68441678998E+03  0.00000000000E+00 0. -1.
         21   -1    0    0  501  502 -0.00000000000E+00 -0.00000000000E+00 -0.75531827938E+02  0.75531827938E+02  0.00000000000E+00 0. -1.
      99926    2    1    2    0    0  0.00000000000E+00  0.00000000000E+00  0.60888496204E+03  0.75994861792E+03  0.45473179444E+03 0.  0.
         25    1    3    3    0    0 -0.67096399091E+02 -0.29694375891E+02  0.18524994186E+03  0.23526311183E+03  0.12509000000E+03 0.  0.
         25    1    3    3    0    0 -0.12528561187E+02 -0.42918637102E+02  0.11976864596E+03  0.17886031117E+03  0.12509000000E+03 0.  0.
         25    1    3    3    0    0  0.79624960278E+02  0.72613012994E+02  0.30386637423E+03  0.34582519492E+03  0.12509000000E+03 0.  0.
<mgrwt>
<rscale>  2 0.45473179E+03</rscale>
<asrwt>0</asrwt>
<pdfrwt beam="1">  1       21 0.10064952E+00 0.45473179E+03</pdfrwt>
<pdfrwt beam="2">  1       21 0.11107622E-01 0.45473179E+03</pdfrwt>
<totfact> 0.49867525E+04</totfact>
</mgrwt>
</event>
<event>
 6    0  0.1572624E-007  0.4606971E+03  0.7546771E-02  0.1024579E+00
         21   -1    0    0  502  501  0.00000000000E+00  0.00000000000E+00  0.12759477365E+03  0.12759477365E+03  0.00000000000E+00 0. -1.
         21   -1    0    0  501  502 -0.00000000000E+00 -0.00000000000E+00 -0.41585130151E+03  0.41585130151E+03  0.00000000000E+00 0. -1.
      99926    2    1    2    0    0  0.00000000000E+00  0.71054273576E-14 -0.28825652786E+03  0.54344607516E+03  0.46069709219E+03 0.  0.
         25    1    3    3    0    0  0.47772731587E+01 -0.34503417679E+02 -0.70645436531E+01  0.13004123979E+03  0.12509000000E+03 0.  0.
         25    1    3    3    0    0  0.61912938380E+02 -0.29342337674E+02 -0.97571743101E+02  0.17280607012E+03  0.12509000000E+03 0.  0.
         25    1    3    3    0    0 -0.66690211538E+02  0.63845755353E+02 -0.18362024110E+03  0.24059876524E+03  0.12509000000E+03 0.  0.
<mgrwt>
<rscale>  2 0.46069709E+03</rscale>
<asrwt>0</asrwt>
<pdfrwt beam="1">  1       21 0.18763937E-01 0.46069709E+03</pdfrwt>
<pdfrwt beam="2">  1       21 0.61154604E-01 0.46069709E+03</pdfrwt>
<totfact> 0.59570181E+04</totfact>
</mgrwt>
</event>
<event>
 6    0  0.1572624E-007  0.4572674E+03  0.7546771E-02  0.1025577E+00
         21   -1    0    0  502  501  0.00000000000E+00  0.00000000000E+00  0.10701497292E+03  0.10701497292E+03  0.00000000000E+00 0.  1.
         21   -1    0    0  501  502 -0.00000000000E+00 -0.00000000000E+00 -0.48846786260E+03  0.48846786260E+03  0.00000000000E+00 0.  1.
      99926    2    1    2    0    0  0.71054273576E-14  0.12434497876E-13 -0.38145288968E+03  0.59548283553E+03  0.45726742762E+03 0.  0.
         25    1    3    3    0    0 -0.24884050646E+02 -0.68296698527E+02 -0.43419863323E+02  0.15105114246E+03  0.12509000000E+03 0.  0.
         25    1    3    3    0    0 -0.34852768070E+02  0.71711482689E+02 -0.15179509145E+03  0.21224163135E+03  0.12509000000E+03 0.  0.
         25    1    3    3    0    0  0.59736818716E+02 -0.34147841613E+01 -0.18623793491E+03  0.23219006172E+03  0.12509000000E+03 0.  0.
<mgrwt>
<rscale>  2 0.45726743E+03</rscale>
<asrwt>0</asrwt>
<pdfrwt beam="1">  1       21 0.15737496E-01 0.45726743E+03</pdfrwt>
<pdfrwt beam="2">  1       21 0.71833510E-01 0.45726743E+03</pdfrwt>
<totfact> 0.57912498E+04</totfact>
</mgrwt>
</event>
<event>
 6    0  0.1572624E-007  0.4552971E+03  0.7546771E-02  0.1026154E+00
         21   -1    0    0  502  501  0.00000000000E+00  0.00000000000E+00  0.10596716630E+03  0.10596716630E+03  0.00000000000E+00 0. -1.
         21   -1    0    0  501  502 -0.00000000000E+00 -0.00000000000E+00 -0.48905589687E+03  0.48905589687E+03  0.00000000000E+00 0. -1.
      99926    2    1    2    0    0  0.00000000000E+00  0.71054273576E-14 -0.38308873057E+03  0.59502306317E+03  0.45529712301E+03 0.  0.
         25    1    3    3    0    0 -0.51135527884E+02 -0.35030319051E+02 -0.35983585778E+02  0.14416758308E+03  0.12509000000E+03 0.  0.
         25    1    3    3    0    0  0.61689246483E+01  0.78191275730E+02 -0.16758727463E+03  0.22334935404E+03  0.12509000000E+03 0.  0.
         25    1    3    3    0    0  0.44966603235E+02 -0.43160956679E+02 -0.17951787016E+03  0.22750612606E+03  0.12509000000E+03 0.  0.
<mgrwt>
<rscale>  2 0.45529712E+03</rscale>
<asrwt>0</asrwt>
<pdfrwt beam="1">  1       21 0.15583407E-01 0.45529712E+03</pdfrwt>
<pdfrwt beam="2">  1       21 0.71919985E-01 0.45529712E+03</pdfrwt>
<totfact> 0.58847365E+04</totfact>
</mgrwt>
</event>
<event>
 6    0  0.1572624E-007  0.4548524E+03  0.7546771E-02  0.1026285E+00
         21   -1    0    0  502  501  0.00000000000E+00  0.00000000000E+00  0.12808547146E+03  0.12808547146E+03  0.00000000000E+00 0.  1.
         21   -1    0    0  501  502 -0.00000000000E+00 -0.00000000000E+00 -0.40381369284E+03  0.40381369284E+03  0.00000000000E+00 0.  1.
      99926    2    1    2    0    0  0.17763568394E-14  0.00000000000E+00 -0.27572822138E+03  0.53189916430E+03  0.45485235947E+03 0.  0.
         25    1    3    3    0    0 -0.23761311176E+02  0.31146999487E+02 -0.11513965329E+03  0.17446886067E+03  0.12509000000E+03 0.  0.
         25    1    3    3    0    0  0.28483473903E+02  0.79088542314E+02 -0.57271326225E+02  0.16122598649E+03  0.12509000000E+03 0.  0.
         25    1    3    3    0    0 -0.47221627263E+01 -0.11023554180E+03 -0.10331724186E+03  0.19620431714E+03  0.12509000000E+03 0.  0.
<mgrwt>
<rscale>  2 0.45485236E+03</rscale>
<asrwt>0</asrwt>
<pdfrwt beam="1">  1       21 0.18836099E-01 0.45485236E+03</pdfrwt>
<pdfrwt beam="2">  1       21 0.59384365E-01 0.45485236E+03</pdfrwt>
<totfact> 0.63151983E+04</totfact>
</mgrwt>
</event>
<event>
 6    0  0.1572624E-007  0.4436378E+03  0.7546771E-02  0.1029636E+00
         21   -1    0    0  502  501  0.00000000000E+00  0.00000000000E+00  0.14376386221E+03  0.14376386221E+03  0.00000000000E+00 0. -1.
         21   -1    0    0  501  502 -0.00000000000E+00 -0.00000000000E+00 -0.34225304240E+03  0.34225304240E+03  0.00000000000E+00 0. -1.
      99926    2    1    2    0    0 -0.14210854715E-13  0.00000000000E+00 -0.19848918020E+03  0.48601690461E+03  0.44363777670E+03 0.  0.
         25    1    3    3    0    0 -0.47095788414E+01 -0.17650187164E+02 -0.79830751094E+02  0.14951309695E+03  0.12509000000E+03 0.  0.
         25    1    3    3    0    0  0.91458275199E+02 -0.17737637641E+02 -0.80983174682E+02  0.17574135135E+03  0.12509000000E+03 0.  0.
         25    1    3    3    0    0 -0.86748696358E+02  0.35387824805E+02 -0.37675254422E+02  0.16076245631E+03  0.12509000000E+03 0.  0.
<mgrwt>
<rscale>  2 0.44363778E+03</rscale>
<asrwt>0</asrwt>
<pdfrwt beam="1">  1       21 0.21141744E-01 0.44363778E+03</pdfrwt>
<pdfrwt beam="2">  1       21 0.50331330E-01 0.44363778E+03</pdfrwt>
<totfact> 0.72595072E+04</totfact>
</mgrwt>
</event>
<event>
 6    0  0.1572624E-007  0.4840976E+03  0.7546771E-02  0.1018015E+00
         21   -1    0    0  502  501  0.00000000000E+00  0.00000000000E+00  0.10088486669E+04  0.10088486669E+04  0.00000000000E+00 0. -1.
         21   -1    0    0  501  502 -0.00000000000E+00 -0.00000000000E+00 -0.58073736022E+02  0.58073736022E+02  0.00000000000E+00 0. -1.
      99926    2    1    2    0    0  0.12434497876E-13  0.71054273576E-14  0.95077493088E+03  0.10669224029E+04  0.48409755698E+03 0.  0.
         25    1    3    3    0    0 -0.66736852086E+01 -0.32378728226E+02  0.43524492125E+03  0.45406890412E+03  0.12509000000E+03 0.  0.
         25    1    3    3    0    0  0.94503116836E+02  0.68391861726E+02  0.31175082477E+03  0.35559017237E+03  0.12509000000E+03 0.  0.
         25    1    3    3    0    0 -0.87829431627E+02 -0.36013133500E+02  0.20377918486E+03  0.25726332643E+03  0.12509000000E+03 0.  0.
<mgrwt>
<rscale>  2 0.48409756E+03</rscale>
<asrwt>0</asrwt>
<pdfrwt beam="1">  1       21 0.14836009E+00 0.48409756E+03</pdfrwt>
<pdfrwt beam="2">  1       21 0.85402560E-02 0.48409756E+03</pdfrwt>
<totfact> 0.29397429E+04</totfact>
</mgrwt>
</event>
<event>
 6    0  0.1572624E-007  0.4610989E+03  0.7546771E-02  0.1024463E+00
         21   -1    0    0  502  501  0.00000000000E+00  0.00000000000E+00  0.95340353988E+02  0.95340353988E+02  0.00000000000E+00 0.  1.
         21   -1    0    0  501  502 -0.00000000000E+00 -0.00000000000E+00 -0.55750836501E+03  0.55750836501E+03  0.00000000000E+00 0.  1.
      99926    2    1    2    0    0 -0.71054273576E-14 -0.14210854715E-13 -0.46216801102E+03  0.65284871900E+03  0.46109888255E+03 0.  0.
         25    1    3    3    0    0 -0.84892968437E+02 -0.28088745038E+02 -0.11075875498E+03  0.18950146066E+03  0.12509000000E+03 0.  0.
         25    1    3    3    0    0  0.52993030807E+02 -0.50294405364E+02 -0.21853816425E+03  0.26219120095E+03  0.12509000000E+03 0.  0.
         25    1    3    3    0    0  0.31899937630E+02  0.78383150401E+02 -0.13287109179E+03  0.20115605738E+03  0.12509000000E+03 0.  0.
<mgrwt>
<rscale>  2 0.46109888E+03</rscale>
<asrwt>0</asrwt>
<pdfrwt beam="1">  1       21 0.14020640E-01 0.46109888E+03</pdfrwt>
<pdfrwt beam="2">  1       21 0.81986529E-01 0.46109888E+03</pdfrwt>
<totfact> 0.52944084E+04</totfact>
</mgrwt>
</event>
<event>
 6    0  0.1572624E-007  0.4598944E+03  0.7546771E-02  0.1024812E+00
         21   -1    0    0  502  501  0.00000000000E+00  0.00000000000E+00  0.22286503038E+02  0.22286503038E+02  0.00000000000E+00 0.  1.
         21   -1    0    0  501  502 -0.00000000000E+00 -0.00000000000E+00 -0.23725446551E+04  0.23725446551E+04  0.00000000000E+00 0.  1.
      99926    2    1    2    0    0  0.00000000000E+00  0.00000000000E+00 -0.23502581521E+04  0.23948311582E+04  0.45989443861E+03 0.  0.
         25    1    3    3    0    0 -0.27900660637E+02  0.21851781429E+02 -0.10651164194E+04  0.10730221070E+04  0.12509000000E+03 0.  0.
         25    1    3    3    0    0  0.58482406378E+02  0.20949887647E+02 -0.34942545661E+03  0.37630406253E+03  0.12509000000E+03 0.  0.
         25    1    3    3    0    0 -0.30581745741E+02 -0.42801669075E+02 -0.93571627614E+03  0.94550498866E+03  0.12509000000E+03 0.  0.
<mgrwt>
<rscale>  2 0.45989444E+03</rscale>
<asrwt>0</asrwt>
<pdfrwt beam="1">  1       21 0.32774260E-02 0.45989444E+03</pdfrwt>
<pdfrwt beam="2">  1       21 0.34890373E+00 0.45989444E+03</pdfrwt>
<totfact> 0.79613054E+03</totfact>
</mgrwt>
</event>
<event>
 6    0  0.1572624E-007  0.4564472E+03  0.7546771E-02  0.1025817E+00
         21   -1    0    0  502  501  0.00000000000E+00  0.00000000000E+00  0.34131508399E+02  0.34131508399E+02  0.00000000000E+00 0. -1.
         21   -1    0    0  501  502 -0.00000000000E+00 -0.00000000000E+00 -0.15260386691E+04  0.15260386691E+04  0.00000000000E+00 0. -1.
      99926    2    1    2    0    0  0.35527136788E-14  0.00000000000E+00 -0.14919071607E+04  0.15601701775E+04  0.45644715643E+03 0.  0.
         25    1    3    3    0    0 -0.71647541277E+02 -0.56083435864E+02 -0.47856691336E+03  0.50294385433E+03  0.12509000000E+03 0.  0.
         25    1    3    3    0    0  0.23222679479E+02 -0.31994007886E+02 -0.59203349745E+03  0.60639432681E+03  0.12509000000E+03 0.  0.
         25    1    3    3    0    0  0.48424861798E+02  0.88077443749E+02 -0.42130674994E+03  0.45083199640E+03  0.12509000000E+03 0.  0.
<mgrwt>
<rscale>  2 0.45644716E+03</rscale>
<asrwt>0</asrwt>
<pdfrwt beam="1">  1       21 0.50193391E-02 0.45644716E+03</pdfrwt>
<pdfrwt beam="2">  1       21 0.22441747E+00 0.45644716E+03</pdfrwt>
<totfact> 0.22092908E+04</totfact>
</mgrwt>
</event>
<event>
 6    0  0.1572624E-007  0.4539838E+03  0.7546771E-02  0.1026541E+00
         21   -1    0    0  502  501  0.00000000000E+00  0.00000000000E+00  0.18056787801E+03  0.18056787801E+03  0.00000000000E+00 0.  1.
         21   -1    0    0  501  502 -0.00000000000E+00 -0.00000000000E+00 -0.28535151787E+03  0.28535151787E+03  0.00000000000E+00 0.  1.
      99926    2    1    2    0    0 -0.35527136788E-14  0.00000000000E+00 -0.10478363986E+03  0.46591939587E+03  0.45398377974E+03 0.  0.
         25    1    3    3    0    0  0.21358766874E+02  0.67221044292E+02  0.36794113629E+02  0.14824365287E+03  0.12509000000E+03 0.  0.
         25    1    3    3    0    0 -0.65769707251E+02 -0.25417636432E+02 -0.54944994293E+02  0.15374710121E+03  0.12509000000E+03 0.  0.
         25    1    3    3    0    0  0.44410940378E+02 -0.41803407860E+02 -0.86632759193E+02  0.16392864179E+03  0.12509000000E+03 0.  0.
<mgrwt>
<rscale>  2 0.45398378E+03</rscale>
<asrwt>0</asrwt>
<pdfrwt beam="1">  1       21 0.26554100E-01 0.45398378E+03</pdfrwt>
<pdfrwt beam="2">  1       21 0.41963458E-01 0.45398378E+03</pdfrwt>
<totfact> 0.68289506E+04</totfact>
</mgrwt>
</event>
<event>
 6    0  0.1572624E-007  0.4441549E+03  0.7546771E-02  0.1029480E+00
         21   -1    0    0  502  501  0.00000000000E+00  0.00000000000E+00  0.10698347517E+03  0.10698347517E+03  0.00000000000E+00 0.  1.
         21   -1    0    0  501  502 -0.00000000000E+00 -0.00000000000E+00 -0.46099067660E+03  0.46099067660E+03  0.00000000000E+00 0.  1.
      99926    2    1    2    0    0  0.00000000000E+00 -0.35527136788E-14 -0.35400720143E+03  0.56797415177E+03  0.44415485860E+03 0.  0.
         25    1    3    3    0    0 -0.31821715301E+02  0.70595459797E+02 -0.17311502633E+03  0.22718420049E+03  0.12509000000E+03 0.  0.
         25    1    3    3    0    0 -0.27099461281E+02 -0.60977322528E+02 -0.13229068093E+03  0.19390963623E+03  0.12509000000E+03 0.  0.
         25    1    3    3    0    0  0.58921176582E+02 -0.96181372696E+01 -0.48601494167E+02  0.14688031505E+03  0.12509000000E+03 0.  0.
<mgrwt>
<rscale>  2 0.44415486E+03</rscale>
<asrwt>0</asrwt>
<pdfrwt beam="1">  1       21 0.15732864E-01 0.44415486E+03</pdfrwt>
<pdfrwt beam="2">  1       21 0.67792746E-01 0.44415486E+03</pdfrwt>
<totfact> 0.66190902E+04</totfact>
</mgrwt>
</event>
<event>
 6    0  0.1572624E-007  0.4606829E+03  0.7546771E-02  0.1024583E+00
         21   -1    0    0  502  501  0.00000000000E+00  0.00000000000E+00  0.11998081528E+04  0.11998081528E+04  0.00000000000E+00 0. -1.
         21   -1    0    0  501  502 -0.00000000000E+00 -0.00000000000E+00 -0.44221382119E+02  0.44221382119E+02  0.00000000000E+00 0. -1.
      99926    2    1    2    0    0 -0.26645352591E-14  0.14210854715E-13  0.11555867707E+04  0.12440295349E+04  0.46068286182E+03 0.  0.
         25    1    3    3    0    0  0.28231270430E+02 -0.11125768929E+03  0.40845134591E+03  0.44232938873E+03  0.12509000000E+03 0.  0.
         25    1    3    3    0    0 -0.46379658942E+01  0.10297401283E+03  0.45166212122E+03  0.47986595825E+03  0.12509000000E+03 0.  0.
         25    1    3    3    0    0 -0.23593304536E+02  0.82836764591E+01  0.29547330357E+03  0.32183418796E+03  0.12509000000E+03 0.  0.
<mgrwt>
<rscale>  2 0.46068286E+03</rscale>
<asrwt>0</asrwt>
<pdfrwt beam="1">  1       21 0.17644235E+00 0.46068286E+03</pdfrwt>
<pdfrwt beam="2">  1       21 0.65031452E-02 0.46068286E+03</pdfrwt>
<totfact> 0.29459470E+04</totfact>
</mgrwt>
</event>
<event>
 6    0  0.1572624E-007  0.4520701E+03  0.7546771E-02  0.1027107E+00
         21   -1    0    0  502  501  0.00000000000E+00  0.00000000000E+00  0.11034752485E+04  0.11034752485E+04  0.00000000000E+00 0. -1.
         21   -1    0    0  501  502 -0.00000000000E+00 -0.00000000000E+00 -0.46300852621E+02  0.46300852621E+02  0.00000000000E+00 0. -1.
      99926    2    1    2    0    0  0.11102230246E-15  0.00000000000E+00  0.10571743959E+04  0.11497761012E+04  0.45207010453E+03 0.  0.
         25    1    3    3    0    0 -0.20870242461E+02 -0.24626096829E+02  0.16604752772E+03  0.21038370000E+03  0.12509000000E+03 0.  0.
         25    1    3    3    0    0  0.20049419592E+02  0.89708854088E+02  0.50518356727E+03  0.52849560307E+03  0.12509000000E+03 0.  0.
         25    1    3    3    0    0  0.82082286876E+00 -0.65082757259E+02  0.38594330092E+03  0.41089679808E+03  0.12509000000E+03 0.  0.
<mgrwt>
<rscale>  2 0.45207010E+03</rscale>
<asrwt>0</asrwt>
<pdfrwt beam="1">  1       21 0.16227576E+00 0.45207010E+03</pdfrwt>
<pdfrwt beam="2">  1       21 0.68089496E-02 0.45207010E+03</pdfrwt>
<totfact> 0.34572577E+04</totfact>
</mgrwt>
</event>
<event>
 6    0  0.1572624E-007  0.4517398E+03  0.7546771E-02  0.1027204E+00
         21   -1    0    0  502  501  0.00000000000E+00  0.00000000000E+00  0.11766162148E+03  0.11766162148E+03  0.00000000000E+00 0. -1.
         21   -1    0    0  501  502 -0.00000000000E+00 -0.00000000000E+00 -0.43359256524E+03  0.43359256524E+03  0.00000000000E+00 0. -1.
      99926    2    1    2    0    0  0.00000000000E+00  0.00000000000E+00 -0.31593094376E+03  0.55125418672E+03  0.45173976707E+03 0.  0.
         25    1    3    3    0    0  0.75383098106E+02  0.34554917646E+02 -0.15410018807E+03  0.21510701959E+03  0.12509000000E+03 0.  0.
         25    1    3    3    0    0 -0.50059074216E+02 -0.80298324851E+02 -0.66253060028E+02  0.17026657907E+03  0.12509000000E+03 0.  0.
         25    1    3    3    0    0 -0.25324023890E+02  0.45743407205E+02 -0.95577695659E+02  0.16588058806E+03  0.12509000000E+03 0.  0.
<mgrwt>
<rscale>  2 0.45173977E+03</rscale>
<asrwt>0</asrwt>
<pdfrwt beam="1">  1       21 0.17303179E-01 0.45173977E+03</pdfrwt>
<pdfrwt beam="2">  1       21 0.63763613E-01 0.45173977E+03</pdfrwt>
<totfact> 0.63403357E+04</totfact>
</mgrwt>
</event>
<event>
 6    0  0.1572624E-007  0.4438532E+03  0.7546771E-02  0.1029571E+00
         21   -1    0    0  502  501  0.00000000000E+00  0.00000000000E+00  0.46959541566E+03  0.46959541566E+03  0.00000000000E+00 0.  1.
         21   -1    0    0  501  502 -0.00000000000E+00 -0.00000000000E+00 -0.10488053820E+03  0.10488053820E+03  0.00000000000E+00 0.  1.
      99926    2    1    2    0    0  0.26645352591E-14  0.00000000000E+00  0.36471487746E+03  0.57447595386E+03  0.44385321867E+03 0.  0.
         25    1    3    3    0    0  0.27519003412E+02 -0.81251954520E+02  0.17621846924E+03  0.23250727443E+03  0.12509000000E+03 0.  0.
         25    1    3    3    0    0  0.66860198323E+01  0.89643517872E+02  0.11862467026E+03  0.19442217891E+03  0.12509000000E+03 0.  0.
         25    1    3    3    0    0 -0.34205023244E+02 -0.83915633520E+01  0.69871737958E+02  0.14754650052E+03  0.12509000000E+03 0.  0.
<mgrwt>
<rscale>  2 0.44385322E+03</rscale>
<asrwt>0</asrwt>
<pdfrwt beam="1">  1       21 0.69058148E-01 0.44385322E+03</pdfrwt>
<pdfrwt beam="2">  1       21 0.15423609E-01 0.44385322E+03</pdfrwt>
<totfact> 0.65895939E+04</totfact>
</mgrwt>
</event>
<event>
 6    0  0.1572624E-007  0.4631113E+03  0.7546771E-02  0.1023883E+00
         21   -1    0    0  502  501  0.00000000000E+00  0.00000000000E+00  0.82233716117E+03  0.82233716117E+03  0.00000000000E+00 0. -1.
         21   -1    0    0  501  502 -0.00000000000E+00 -0.00000000000E+00 -0.65201996262E+02  0.65201996262E+02  0.00000000000E+00 0. -1.
      99926    2    1    2    0    0 -0.35527136788E-14 -0.14210854715E-13  0.75713516491E+03  0.88753915743E+03  0.46311132359E+03 0.  0.
         25    1    3    3    0    0  0.20509091469E+02 -0.11456545682E+03  0.26095953340E+03  0.31191866392E+03  0.12509000000E+03 0.  0.
         25    1    3    3    0    0 -0.55505207761E+02  0.42848360601E+02  0.24021706116E+03  0.27976517772E+03  0.12509000000E+03 0.  0.
         25    1    3    3    0    0  0.34996116291E+02  0.71717096216E+02  0.25595857035E+03  0.29585531579E+03  0.12509000000E+03 0.  0.
<mgrwt>
<rscale>  2 0.46311132E+03</rscale>
<asrwt>0</asrwt>
<pdfrwt beam="1">  1       21 0.12093193E+00 0.46311132E+03</pdfrwt>
<pdfrwt beam="2">  1       21 0.95885294E-02 0.46311132E+03</pdfrwt>
<totfact> 0.41103120E+04</totfact>
</mgrwt>
</event>
<event>
 6    0  0.1572624E-007  0.4611264E+03  0.7546771E-02  0.1024455E+00
         21   -1    0    0  502  501  0.00000000000E+00  0.00000000000E+00  0.26647135354E+03  0.26647135354E+03  0.00000000000E+00 0.  1.
         21   -1    0    0  501  502 -0.00000000000E+00 -0.00000000000E+00 -0.19949379107E+03  0.19949379107E+03  0.00000000000E+00 0.  1.
      99926    2    1    2    0    0  0.00000000000E+00  0.00000000000E+00  0.66977562470E+02  0.46596514461E+03  0.46112636242E+03 0.  0.
         25    1    3    3    0    0  0.88359167547E+02 -0.65579532353E+02  0.18349558665E+02  0.16760737441E+03  0.12509000000E+03 0.  0.
         25    1    3    3    0    0 -0.47548149136E+02  0.20137854124E+02  0.77843614256E+02  0.15612013334E+03  0.12509000000E+03 0.  0.
         25    1    3    3    0    0 -0.40811018411E+02  0.45441678229E+02 -0.29215610450E+02  0.14223763685E+03  0.12509000000E+03 0.  0.
<mgrwt>
<rscale>  2 0.46112636E+03</rscale>
<asrwt>0</asrwt>
<pdfrwt beam="1">  1       21 0.39186964E-01 0.46112636E+03</pdfrwt>
<pdfrwt beam="2">  1       21 0.29337322E-01 0.46112636E+03</pdfrwt>
<totfact> 0.64536897E+04</totfact>
</mgrwt>
</event>
<event>
 6    0  0.1572624E-007  0.4509973E+03  0.7546771E-02  0.1027425E+00
         21   -1    0    0  502  501  0.00000000000E+00  0.00000000000E+00  0.38475430829E+02  0.38475430829E+02  0.00000000000E+00 0. -1.
         21   -1    0    0  501  502 -0.00000000000E+00 -0.00000000000E+00 -0.13216132383E+04  0.13216132383E+04  0.00000000000E+00 0. -1.
      99926    2    1    2    0    0  0.00000000000E+00  0.14210854715E-13 -0.12831378075E+04  0.13600886691E+04  0.45099728927E+03 0.  0.
         25    1    3    3    0    0 -0.36190020639E+02 -0.23982206100E+02 -0.30771847782E+03  0.33499706490E+03  0.12509000000E+03 0.  0.
         25    1    3    3    0    0  0.68589600482E+02 -0.65329245840E+02 -0.44196263418E+03  0.46898925549E+03  0.12509000000E+03 0.  0.
         25    1    3    3    0    0 -0.32399579843E+02  0.89311451939E+02 -0.53345669549E+03  0.55610234875E+03  0.12509000000E+03 0.  0.
<mgrwt>
<rscale>  2 0.45099729E+03</rscale>
<asrwt>0</asrwt>
<pdfrwt beam="1">  1       21 0.56581526E-02 0.45099729E+03</pdfrwt>
<pdfrwt beam="2">  1       21 0.19435485E+00 0.45099729E+03</pdfrwt>
<totfact> 0.28285102E+04</totfact>
</mgrwt>
</event>
<event>
 6    0  0.1572624E-007  0.4521593E+03  0.7546771E-02  0.1027080E+00
         21   -1    0    0  502  501  0.00000000000E+00  0.00000000000E+00  0.43444361809E+02  0.43444361809E+02  0.00000000000E+00 0.  1.
         21   -1    0    0  501  502 -0.00000000000E+00 -0.00000000000E+00 -0.11764935700E+04  0.11764935700E+04  0.00000000000E+00 0.  1.
      99926    2    1    2    0    0  0.14210854715E-13  0.00000000000E+00 -0.11330492082E+04  0.12199379318E+04  0.45215931848E+03 0.  0.
         25    1    3    3    0    0 -0.88527214868E+01  0.58219928851E+02 -0.37787811850E+03  0.40237707605E+03  0.12509000000E+03 0.  0.
         25    1    3    3    0    0 -0.61825032723E+02 -0.14201585631E+02 -0.21362107516E+03  0.25554939162E+03  0.12509000000E+03 0.  0.
         25    1    3    3    0    0  0.70677754210E+02 -0.44018343220E+02 -0.54155001454E+03  0.56201146415E+03  0.12509000000E+03 0.  0.
<mgrwt>
<rscale>  2 0.45215932E+03</rscale>
<asrwt>0</asrwt>
<pdfrwt beam="1">  1       21 0.63888771E-02 0.45215932E+03</pdfrwt>
<pdfrwt beam="2">  1       21 0.17301375E+00 0.45215932E+03</pdfrwt>
<totfact> 0.32237673E+04</totfact>
</mgrwt>
</event>
<event>
 6    0  0.1572624E-007  0.4628988E+03  0.7546771E-02  0.1023944E+00
         21   -1    0    0  502  501  0.00000000000E+00  0.00000000000E+00  0.18851409485E+03  0.18851409485E+03  0.00000000000E+00 0.  1.
         21   -1    0    0  501  502 -0.00000000000E+00 -0.00000000000E+00 -0.28416353131E+03  0.28416353131E+03  0.00000000000E+00 0.  1.
      99926    2    1    2    0    0  0.14210854715E-13  0.00000000000E+00 -0.95649436456E+02  0.47267762616E+03  0.46289882650E+03 0.  0.
         25    1    3    3    0    0  0.12346068850E+03  0.20945152950E+02 -0.36353851682E+02  0.18069408310E+03  0.12509000000E+03 0.  0.
         25    1    3    3    0    0 -0.80151650646E+02  0.97848287025E+01 -0.43865782621E+02  0.15521515699E+03  0.12509000000E+03 0.  0.
         25    1    3    3    0    0 -0.43309037854E+02 -0.30729981652E+02 -0.15429802153E+02  0.13676838606E+03  0.12509000000E+03 0.  0.
<mgrwt>
<rscale>  2 0.46289883E+03</rscale>
<asrwt>0</asrwt>
<pdfrwt beam="1">  1       21 0.27722662E-01 0.46289883E+03</pdfrwt>
<pdfrwt beam="2">  1       21 0.41788754E-01 0.46289883E+03</pdfrwt>
<totfact> 0.63182797E+04</totfact>
</mgrwt>
</event>
<event>
 6    0  0.1572624E-007  0.4429150E+03  0.7546771E-02  0.1029856E+00
         21   -1    0    0  502  501  0.00000000000E+00  0.00000000000E+00  0.10830849458E+03  0.10830849458E+03  0.00000000000E+00 0. -1.
         21   -1    0    0  501  502 -0.00000000000E+00 -0.00000000000E+00 -0.45281237338E+03  0.45281237338E+03  0.00000000000E+00 0. -1.
      99926    2    1    2    0    0 -0.17763568394E-14 -0.71054273576E-14 -0.34450387879E+03  0.56112086796E+03  0.44291500986E+03 0.  0.
         25    1    3    3    0    0  0.73813177593E+02 -0.48941794431E+02 -0.10029157493E+03  0.18316547854E+03  0.12509000000E+03 0.  0.
         25    1    3    3    0    0 -0.62046610443E+02  0.20828947613E+01 -0.18391899510E+03  0.23092818186E+03  0.12509000000E+03 0.  0.
         25    1    3    3    0    0 -0.11766567150E+02  0.46858899669E+02 -0.60293308761E+02  0.14702720756E+03  0.12509000000E+03 0.  0.
<mgrwt>
<rscale>  2 0.44291501E+03</rscale>
<asrwt>0</asrwt>
<pdfrwt beam="1">  1       21 0.15927720E-01 0.44291501E+03</pdfrwt>
<pdfrwt beam="2">  1       21 0.66590054E-01 0.44291501E+03</pdfrwt>
<totfact> 0.67347896E+04</totfact>
</mgrwt>
</event>
<event>
 6    0  0.1572624E-007  0.4556707E+03  0.7546771E-02  0.1026044E+00
         21   -1    0    0  502  501  0.00000000000E+00  0.00000000000E+00  0.69073168656E+03  0.69073168656E+03  0.00000000000E+00 0. -1.
         21   -1    0    0  501  502 -0.00000000000E+00 -0.00000000000E+00 -0.75150672939E+02  0.75150672939E+02  0.00000000000E+00 0. -1.
      99926    2    1    2    0    0  0.00000000000E+00  0.14210854715E-13  0.61558101362E+03  0.76588235950E+03  0.45567071912E+03 0.  0.
         25    1    3    3    0    0 -0.76578310934E+01 -0.84800248034E+02  0.14398911417E+03  0.20887818829E+03  0.12509000000E+03 0.  0.
         25    1    3    3    0    0  0.18414823985E+01  0.28528422371E+02  0.10583502689E+03  0.16633046310E+03  0.12509000000E+03 0.  0.
         25    1    3    3    0    0  0.58163486949E+01  0.56271825664E+02  0.36575687257E+03  0.39067370811E+03  0.12509000000E+03 0.  0.
<mgrwt>
<rscale>  2 0.45567072E+03</rscale>
<asrwt>0</asrwt>
<pdfrwt beam="1">  1       21 0.10157819E+00 0.45567072E+03</pdfrwt>
<pdfrwt beam="2">  1       21 0.11051570E-01 0.45567072E+03</pdfrwt>
<totfact> 0.49199570E+04</totfact>
</mgrwt>
</event>
<event>
 6    0  0.1572624E-007  0.4857570E+03  0.7546771E-02  0.1017565E+00
         21   -1    0    0  502  501  0.00000000000E+00  0.00000000000E+00  0.11013624037E+03  0.11013624037E+03  0.00000000000E+00 0. -1.
         21   -1    0    0  501  502 -0.00000000000E+00 -0.00000000000E+00 -0.53560908814E+03  0.53560908814E+03  0.00000000000E+00 0. -1.
      99926    2    1    2    0    0  0.00000000000E+00 -0.11102230246E-15 -0.42547284777E+03  0.64574532851E+03  0.48575702270E+03 0.  0.
         25    1    3    3    0    0 -0.51829967500E+02  0.90409581841E+00 -0.11506344358E+03  0.17769149408E+03  0.12509000000E+03 0.  0.
         25    1    3    3    0    0 -0.74716524902E+02 -0.19467298164E+01 -0.52852490156E+02  0.15500723424E+03  0.12509000000E+03 0.  0.
         25    1    3    3    0    0  0.12654649240E+03  0.10426339980E+01 -0.25755691404E+03  0.31304660019E+03  0.12509000000E+03 0.  0.
<mgrwt>
<rscale>  2 0.48575702E+03</rscale>
<asrwt>0</asrwt>
<pdfrwt beam="1">  1       21 0.16196506E-01 0.48575702E+03</pdfrwt>
<pdfrwt beam="2">  1       21 0.78766043E-01 0.48575702E+03</pdfrwt>
<totfact> 0.44200656E+04</totfact>
</mgrwt>
</event>
<event>
 6    0  0.1572624E-007  0.4551477E+03  0.7546771E-02  0.1026198E+00
         21   -1    0    0  502  501  0.00000000000E+00  0.00000000000E+00  0.43764930182E+03  0.43764930182E+03  0.00000000000E+00 0. -1.
         21   -1    0    0  501  502 -0.00000000000E+00 -0.00000000000E+00 -0.11833643864E+03  0.11833643864E+03  0.00000000000E+00 0. -1.
      99926    2    1    2    0    0 -0.71054273576E-14 -0.35527136788E-14  0.31931286318E+03  0.55598574047E+03  0.45514771120E+03 0.  0.
         25    1    3    3    0    0  0.91445944092E+02 -0.40059734907E+02  0.83563653480E+02  0.18054787546E+03  0.12509000000E+03 0.  0.
         25    1    3    3    0    0 -0.36422664733E+02 -0.20414374110E+02  0.60401298557E+02  0.14504889570E+03  0.12509000000E+03 0.  0.
         25    1    3    3    0    0 -0.55023279360E+02  0.60474109016E+02  0.17534791114E+03  0.23038896930E+03  0.12509000000E+03 0.  0.
<mgrwt>
<rscale>  2 0.45514771E+03</rscale>
<asrwt>0</asrwt>
<pdfrwt beam="1">  1       21 0.64360191E-01 0.45514771E+03</pdfrwt>
<pdfrwt beam="2">  1       21 0.17402418E-01 0.45514771E+03</pdfrwt>
<totfact> 0.61400916E+04</totfact>
</mgrwt>
</event>
<event>
 6    0  0.1572624E-007  0.4542129E+03  0.7546771E-02  0.1026473E+00
         21   -1    0    0  502  501  0.00000000000E+00  0.00000000000E+00  0.71222599296E+03  0.71222599296E+03  0.00000000000E+00 0. -1.
         21   -1    0    0  501  502 -0.00000000000E+00 -0.00000000000E+00 -0.72417085288E+02  0.72417085288E+02  0.00000000000E+00 0. -1.
      99926    2    1    2    0    0  0.14210854715E-13  0.35527136788E-14  0.63980890767E+03  0.78464307825E+03  0.45421285969E+03 0.  0.
         25    1    3    3    0    0  0.98593239090E+02 -0.56241897441E+02  0.21518252851E+03  0.27355951180E+03  0.12509000000E+03 0.  0.
         25    1    3    3    0    0 -0.37783600976E+02 -0.45427677132E+01  0.22601834384E+03  0.26111307338E+03  0.12509000000E+03 0.  0.
         25    1    3    3    0    0 -0.60809638114E+02  0.60784665154E+02  0.19860803533E+03  0.24997049306E+03  0.12509000000E+03 0.  0.
<mgrwt>
<rscale>  2 0.45421286E+03</rscale>
<asrwt>0</asrwt>
<pdfrwt beam="1">  1       21 0.10473911E+00 0.45421286E+03</pdfrwt>
<pdfrwt beam="2">  1       21 0.10649572E-01 0.45421286E+03</pdfrwt>
<totfact> 0.48817515E+04</totfact>
</mgrwt>
</event>
<event>
 6    0  0.1572624E-007  0.4531779E+03  0.7546771E-02  0.1026779E+00
         21   -1    0    0  502  501  0.00000000000E+00  0.00000000000E+00  0.70277762550E+02  0.70277762550E+02  0.00000000000E+00 0.  1.
         21   -1    0    0  501  502 -0.00000000000E+00 -0.00000000000E+00 -0.73056597176E+03  0.73056597176E+03  0.00000000000E+00 0.  1.
      99926    2    1    2    0    0  0.11102230246E-14  0.00000000000E+00 -0.66028820921E+03  0.80084373431E+03  0.45317785423E+03 0.  0.
         25    1    3    3    0    0 -0.47628054312E+02 -0.14789117864E+02 -0.29781865153E+03  0.32684951716E+03  0.12509000000E+03 0.  0.
         25    1    3    3    0    0  0.49291607645E+02  0.58991609317E+01 -0.31017249251E+03  0.33811084853E+03  0.12509000000E+03 0.  0.
         25    1    3    3    0    0 -0.16635533326E+01  0.88899569318E+01 -0.52297065173E+02  0.13588336863E+03  0.12509000000E+03 0.  0.
<mgrwt>
<rscale>  2 0.45317785E+03</rscale>
<asrwt>0</asrwt>
<pdfrwt beam="1">  1       21 0.10334965E-01 0.45317785E+03</pdfrwt>
<pdfrwt beam="2">  1       21 0.10743617E+00 0.45317785E+03</pdfrwt>
<totfact> 0.48412609E+04</totfact>
</mgrwt>
</event>
<event>
 6    0  0.1572624E-007  0.4411024E+03  0.7546771E-02  0.1030409E+00
         21   -1    0    0  502  501  0.00000000000E+00  0.00000000000E+00  0.23329022116E+03  0.23329022116E+03  0.00000000000E+00 0.  1.
         21   -1    0    0  501  502 -0.00000000000E+00 -0.00000000000E+00 -0.20850777342E+03  0.20850777342E+03  0.00000000000E+00 0.  1.
      99926    2    1    2    0    0  0.00000000000E+00  0.15265566589E-15  0.24782447742E+02  0.44179799458E+03  0.44110236714E+03 0.  0.
         25    1    3    3    0    0 -0.94993060471E+01 -0.46044702908E+02 -0.22898680710E+02  0.13558100590E+03  0.12509000000E+03 0.  0.
         25    1    3    3    0    0  0.23880790596E+02  0.45947748344E+02 -0.52605436795E+02  0.14524574974E+03  0.12509000000E+03 0.  0.
         25    1    3    3    0    0 -0.14381484549E+02  0.96954563716E-01  0.10028656525E+03  0.16097123894E+03  0.12509000000E+03 0.  0.
<mgrwt>
<rscale>  2 0.44110237E+03</rscale>
<asrwt>0</asrwt>
<pdfrwt beam="1">  1       21 0.34307386E-01 0.44110237E+03</pdfrwt>
<pdfrwt beam="2">  1       21 0.30662908E-01 0.44110237E+03</pdfrwt>
<totfact> 0.77799648E+04</totfact>
</mgrwt>
</event>
<event>
 6    0  0.1572624E-007  0.4539958E+03  0.7546771E-02  0.1026537E+00
         21   -1    0    0  502  501  0.00000000000E+00  0.00000000000E+00  0.24379310956E+03  0.24379310956E+03  0.00000000000E+00 0. -1.
         21   -1    0    0  501  502 -0.00000000000E+00 -0.00000000000E+00 -0.21135968759E+03  0.21135968759E+03  0.00000000000E+00 0. -1.
      99926    2    1    2    0    0  0.00000000000E+00  0.00000000000E+00  0.32433421968E+02  0.45515279715E+03  0.45399575096E+03 0.  0.
         25    1    3    3    0    0 -0.70990717431E+02  0.75117076262E+01  0.43154913989E+02  0.15035279317E+03  0.12509000000E+03 0.  0.
         25    1    3    3    0    0  0.51987504041E+02 -0.66884152077E+02 -0.50827910257E+02  0.15939628269E+03  0.12509000000E+03 0.  0.
         25    1    3    3    0    0  0.19003213390E+02  0.59372444451E+02  0.40106418237E+02  0.14540372128E+03  0.12509000000E+03 0.  0.
<mgrwt>
<rscale>  2 0.45399575E+03</rscale>
<asrwt>0</asrwt>
<pdfrwt beam="1">  1       21 0.35851928E-01 0.45399575E+03</pdfrwt>
<pdfrwt beam="2">  1       21 0.31082307E-01 0.45399575E+03</pdfrwt>
<totfact> 0.69086546E+04</totfact>
</mgrwt>
</event>
<event>
 6    0  0.1572624E-007  0.4533565E+03  0.7546771E-02  0.1026726E+00
         21   -1    0    0  502  501  0.00000000000E+00  0.00000000000E+00  0.38754664629E+03  0.38754664629E+03  0.00000000000E+00 0.  1.
         21   -1    0    0  501  502 -0.00000000000E+00 -0.00000000000E+00 -0.13258540290E+03  0.13258540290E+03  0.00000000000E+00 0.  1.
      99926    2    1    2    0    0  0.71054273576E-14  0.00000000000E+00  0.25496124339E+03  0.52013204919E+03  0.45335649655E+03 0.  0.
         25    1    3    3    0    0 -0.37954373160E+02 -0.48472840695E+02  0.53240913564E+01  0.13952062491E+03  0.12509000000E+03 0.  0.
         25    1    3    3    0    0 -0.39451190647E+02  0.19272015143E+02  0.82935089315E+02  0.15637629024E+03  0.12509000000E+03 0.  0.
         25    1    3    3    0    0  0.77405563807E+02  0.29200825552E+02  0.16670206272E+03  0.22423513403E+03  0.12509000000E+03 0.  0.
<mgrwt>
<rscale>  2 0.45335650E+03</rscale>
<asrwt>0</asrwt>
<pdfrwt beam="1">  1       21 0.56992154E-01 0.45335650E+03</pdfrwt>
<pdfrwt beam="2">  1       21 0.19497853E-01 0.45335650E+03</pdfrwt>
<totfact> 0.64717993E+04</totfact>
</mgrwt>
</event>
<event>
 6    0  0.1572624E-007  0.4684114E+03  0.7546771E-02  0.1022370E+00
         21   -1    0    0  502  501  0.00000000000E+00  0.00000000000E+00  0.40355380142E+03  0.40355380142E+03  0.00000000000E+00 0. -1.
         21   -1    0    0  501  502 -0.00000000000E+00 -0.00000000000E+00 -0.13592316607E+03  0.13592316607E+03  0.00000000000E+00 0. -1.
      99926    2    1    2    0    0  0.00000000000E+00  0.00000000000E+00  0.26763063535E+03  0.53947696750E+03  0.46841140196E+03 0.  0.
         25    1    3    3    0    0  0.41448144236E+02  0.27096444108E+02  0.81721049107E+02  0.15741030434E+03  0.12509000000E+03 0.  0.
         25    1    3    3    0    0 -0.89021607572E+02 -0.89067927479E+02  0.14450388379E+03  0.22888167871E+03  0.12509000000E+03 0.  0.
         25    1    3    3    0    0  0.47573463335E+02  0.61971483371E+02  0.41405702450E+02  0.15318498445E+03  0.12509000000E+03 0.  0.
<mgrwt>
<rscale>  2 0.46841140E+03</rscale>
<asrwt>0</asrwt>
<pdfrwt beam="1">  1       21 0.59346147E-01 0.46841140E+03</pdfrwt>
<pdfrwt beam="2">  1       21 0.19988701E-01 0.46841140E+03</pdfrwt>
<totfact> 0.56338570E+04</totfact>
</mgrwt>
</event>
<event>
 6    0  0.1572624E-007  0.4535204E+03  0.7546771E-02  0.1026677E+00
         21   -1    0    0  502  501  0.00000000000E+00  0.00000000000E+00  0.19255966226E+03  0.19255966226E+03  0.00000000000E+00 0.  1.
         21   -1    0    0  501  502 -0.00000000000E+00 -0.00000000000E+00 -0.26703508869E+03  0.26703508869E+03  0.00000000000E+00 0.  1.
      99926    2    1    2    0    0  0.00000000000E+00 -0.17763568394E-14 -0.74475426425E+02  0.45959475095E+03  0.45352039200E+03 0.  0.
         25    1    3    3    0    0  0.25136579725E+02 -0.86821257814E+02 -0.97495859560E+02  0.18254514285E+03  0.12509000000E+03 0.  0.
         25    1    3    3    0    0 -0.19508502402E+02  0.77816529999E+02  0.28827559008E+02  0.15137546124E+03  0.12509000000E+03 0.  0.
         25    1    3    3    0    0 -0.56280773233E+01  0.90047278142E+01 -0.58071258729E+01  0.12567414686E+03  0.12509000000E+03 0.  0.
<mgrwt>
<rscale>  2 0.45352039E+03</rscale>
<asrwt>0</asrwt>
<pdfrwt beam="1">  1       21 0.28317598E-01 0.45352039E+03</pdfrwt>
<pdfrwt beam="2">  1       21 0.39269866E-01 0.45352039E+03</pdfrwt>
<totfact> 0.69020845E+04</totfact>
</mgrwt>
</event>
<event>
 6    0  0.1572624E-007  0.4522463E+03  0.7546771E-02  0.1027054E+00
         21   -1    0    0  502  501  0.00000000000E+00  0.00000000000E+00  0.60330159928E+03  0.60330159928E+03  0.00000000000E+00 0.  1.
         21   -1    0    0  501  502 -0.00000000000E+00 -0.00000000000E+00 -0.84753085723E+02  0.84753085723E+02  0.00000000000E+00 0.  1.
      99926    2    1    2    0    0 -0.71054273576E-14  0.35527136788E-14  0.51854851356E+03  0.68805468500E+03  0.45224626991E+03 0.  0.
         25    1    3    3    0    0  0.46027640828E+02  0.16990102514E+02  0.21367460583E+03  0.25241147474E+03  0.12509000000E+03 0.  0.
         25    1    3    3    0    0  0.50569439296E+02 -0.48569740409E+02  0.18851973170E+03  0.23686174283E+03  0.12509000000E+03 0.  0.
         25    1    3    3    0    0 -0.96597080125E+02  0.31579637895E+02  0.11635417603E+03  0.19878146744E+03  0.12509000000E+03 0.  0.
<mgrwt>
<rscale>  2 0.45224627E+03</rscale>
<asrwt>0</asrwt>
<pdfrwt beam="1">  1       21 0.88720821E-01 0.45224627E+03</pdfrwt>
<pdfrwt beam="2">  1       21 0.12463689E-01 0.45224627E+03</pdfrwt>
<totfact> 0.54733376E+04</totfact>
</mgrwt>
</event>
<event>
 6    0  0.1572624E-007  0.4585833E+03  0.7546771E-02  0.1025193E+00
         21   -1    0    0  502  501  0.00000000000E+00  0.00000000000E+00  0.25472754741E+03  0.25472754741E+03  0.00000000000E+00 0.  1.
         21   -1    0    0  501  502 -0.00000000000E+00 -0.00000000000E+00 -0.20639565637E+03  0.20639565637E+03  0.00000000000E+00 0.  1.
      99926    2    1    2    0    0  0.35527136788E-14 -0.35527136788E-14  0.48331891041E+02  0.46112320379E+03  0.45858329383E+03 0.  0.
         25    1    3    3    0    0  0.21662352635E+02 -0.42757158549E+01  0.10182423877E+03  0.16279810493E+03  0.12509000000E+03 0.  0.
         25    1    3    3    0    0 -0.49829795152E+02  0.55709844074E+02  0.10446381906E+02  0.14609322437E+03  0.12509000000E+03 0.  0.
         25    1    3    3    0    0  0.28167442517E+02 -0.51434128219E+02 -0.63938729634E+02  0.15223187449E+03  0.12509000000E+03 0.  0.
<mgrwt>
<rscale>  2 0.45858329E+03</rscale>
<asrwt>0</asrwt>
<pdfrwt beam="1">  1       21 0.37459934E-01 0.45858329E+03</pdfrwt>
<pdfrwt beam="2">  1       21 0.30352302E-01 0.45858329E+03</pdfrwt>
<totfact> 0.66186908E+04</totfact>
</mgrwt>
</event>
<event>
 6    0  0.1572624E-007  0.4553041E+03  0.7546771E-02  0.1026152E+00
         21   -1    0    0  502  501  0.00000000000E+00  0.00000000000E+00  0.53841573393E+02  0.53841573393E+02  0.00000000000E+00 0.  1.
         21   -1    0    0  501  502 -0.00000000000E+00 -0.00000000000E+00 -0.96255474957E+03  0.96255474957E+03  0.00000000000E+00 0.  1.
      99926    2    1    2    0    0  0.00000000000E+00  0.71054273576E-14 -0.90871317618E+03  0.10163963230E+04  0.45530412778E+03 0.  0.
         25    1    3    3    0    0 -0.26990742178E+02  0.78990319910E+02 -0.40059491742E+03  0.42789223733E+03  0.12509000000E+03 0.  0.
         25    1    3    3    0    0  0.59093539266E+02 -0.59887173712E+02 -0.36435966806E+03  0.39431458985E+03  0.12509000000E+03 0.  0.
         25    1    3    3    0    0 -0.32102797089E+02 -0.19103146198E+02 -0.14375859070E+03  0.19418949579E+03  0.12509000000E+03 0.  0.
<mgrwt>
<rscale>  2 0.45530413E+03</rscale>
<asrwt>0</asrwt>
<pdfrwt beam="1">  1       21 0.79178781E-02 0.45530413E+03</pdfrwt>
<pdfrwt beam="2">  1       21 0.14155217E+00 0.45530413E+03</pdfrwt>
<totfact> 0.38443656E+04</totfact>
</mgrwt>
</event>
<event>
 6    0  0.1572624E-007  0.4610315E+03  0.7546771E-02  0.1024482E+00
         21   -1    0    0  502  501  0.00000000000E+00  0.00000000000E+00  0.60107674281E+03  0.60107674281E+03  0.00000000000E+00 0. -1.
         21   -1    0    0  501  502 -0.00000000000E+00 -0.00000000000E+00 -0.88403862055E+02  0.88403862055E+02  0.00000000000E+00 0. -1.
      99926    2    1    2    0    0  0.10658141036E-13  0.00000000000E+00  0.51267288075E+03  0.68948060486E+03  0.46103147596E+03 0.  0.
         25    1    3    3    0    0 -0.72408919628E+02 -0.99310875780E+02  0.22029650465E+03  0.28157371992E+03  0.12509000000E+03 0.  0.
         25    1    3    3    0    0  0.24770378500E+02  0.41709926488E+02  0.10404948266E+03  0.16978543094E+03  0.12509000000E+03 0.  0.
         25    1    3    3    0    0  0.47638541128E+02  0.57600949292E+02  0.18832689344E+03  0.23812145400E+03  0.12509000000E+03 0.  0.
<mgrwt>
<rscale>  2 0.46103148E+03</rscale>
<asrwt>0</asrwt>
<pdfrwt beam="1">  1       21 0.88393636E-01 0.46103148E+03</pdfrwt>
<pdfrwt beam="2">  1       21 0.13000568E-01 0.46103148E+03</pdfrwt>
<totfact> 0.51011888E+04</totfact>
</mgrwt>
</event>
<event>
 6    0  0.1572624E-007  0.4566563E+03  0.7546771E-02  0.1025755E+00
         21   -1    0    0  502  501  0.00000000000E+00  0.00000000000E+00  0.10421031854E+03  0.10421031854E+03  0.00000000000E+00 0.  1.
         21   -1    0    0  501  502 -0.00000000000E+00 -0.00000000000E+00 -0.50027429966E+03  0.50027429966E+03  0.00000000000E+00 0.  1.
      99926    2    1    2    0    0  0.00000000000E+00  0.71054273576E-14 -0.39606398112E+03  0.60448461820E+03  0.45665630019E+03 0.  0.
         25    1    3    3    0    0  0.35568470758E+02  0.42754576640E+02 -0.18987530305E+03  0.23407949236E+03  0.12509000000E+03 0.  0.
         25    1    3    3    0    0 -0.69817605412E+02  0.42471947406E+02 -0.12740769404E+03  0.19636342058E+03  0.12509000000E+03 0.  0.
         25    1    3    3    0    0  0.34249134654E+02 -0.85226524046E+02 -0.78780984032E+02  0.17404170526E+03  0.12509000000E+03 0.  0.
<mgrwt>
<rscale>  2 0.45665630E+03</rscale>
<asrwt>0</asrwt>
<pdfrwt beam="1">  1       21 0.15325047E-01 0.45665630E+03</pdfrwt>
<pdfrwt beam="2">  1       21 0.73569747E-01 0.45665630E+03</pdfrwt>
<totfact> 0.57645064E+04</totfact>
</mgrwt>
</event>
<event>
 6    0  0.1572624E-007  0.4539751E+03  0.7546771E-02  0.1026543E+00
         21   -1    0    0  502  501  0.00000000000E+00  0.00000000000E+00  0.97984106596E+02  0.97984106596E+02  0.00000000000E+00 0.  1.
         21   -1    0    0  501  502 -0.00000000000E+00 -0.00000000000E+00 -0.52583362866E+03  0.52583362866E+03  0.00000000000E+00 0.  1.
      99926    2    1    2    0    0  0.00000000000E+00  0.71054273576E-14 -0.42784952206E+03  0.62381773526E+03  0.45397505800E+03 0.  0.
         25    1    3    3    0    0  0.36231548211E+01  0.35799120251E+02 -0.19156935816E+03  0.23160533532E+03  0.12509000000E+03 0.  0.
         25    1    3    3    0    0 -0.64682184184E+02 -0.60335089536E+02 -0.18873033061E+03  0.24308589793E+03  0.12509000000E+03 0.  0.
         25    1    3    3    0    0  0.61059029362E+02  0.24535969285E+02 -0.47549833294E+02  0.14912650201E+03  0.12509000000E+03 0.  0.
<mgrwt>
<rscale>  2 0.45397506E+03</rscale>
<asrwt>0</asrwt>
<pdfrwt beam="1">  1       21 0.14409427E-01 0.45397506E+03</pdfrwt>
<pdfrwt beam="2">  1       21 0.77328476E-01 0.45397506E+03</pdfrwt>
<totfact> 0.57701190E+04</totfact>
</mgrwt>
</event>
<event>
 6    0  0.1572624E-007  0.4690623E+03  0.7546771E-02  0.1022185E+00
         21   -1    0    0  502  501  0.00000000000E+00  0.00000000000E+00  0.79934529609E+02  0.79934529609E+02  0.00000000000E+00 0. -1.
         21   -1    0    0  501  502 -0.00000000000E+00 -0.00000000000E+00 -0.68812391000E+03  0.68812391000E+03  0.00000000000E+00 0. -1.
      99926    2    1    2    0    0  0.17763568394E-14  0.00000000000E+00 -0.60818938039E+03  0.76805843961E+03  0.46906230315E+03 0.  0.
         25    1    3    3    0    0 -0.48572363175E+02 -0.57717793336E+02 -0.28826389489E+03  0.32316280623E+03  0.12509000000E+03 0.  0.
         25    1    3    3    0    0  0.14542160861E+02  0.23451199264E+02 -0.39480719908E+02  0.13404353223E+03  0.12509000000E+03 0.  0.
         25    1    3    3    0    0  0.34030202315E+02  0.34266594073E+02 -0.28044476559E+03  0.31085210114E+03  0.12509000000E+03 0.  0.
<mgrwt>
<rscale>  2 0.46906230E+03</rscale>
<asrwt>0</asrwt>
<pdfrwt beam="1">  1       21 0.11755078E-01 0.46906230E+03</pdfrwt>
<pdfrwt beam="2">  1       21 0.10119469E+00 0.46906230E+03</pdfrwt>
<totfact> 0.44256844E+04</totfact>
</mgrwt>
</event>
<event>
 6    0  0.1572624E-007  0.4528790E+03  0.7546771E-02  0.1026867E+00
         21   -1    0    0  502  501  0.00000000000E+00  0.00000000000E+00  0.79842121324E+02  0.79842121324E+02  0.00000000000E+00 0. -1.
         21   -1    0    0  501  502 -0.00000000000E+00 -0.00000000000E+00 -0.64220306918E+03  0.64220306918E+03  0.00000000000E+00 0. -1.
      99926    2    1    2    0    0  0.00000000000E+00  0.35527136788E-14 -0.56236094786E+03  0.72204519051E+03  0.45287903623E+03 0.  0.
         25    1    3    3    0    0 -0.12745248253E+02  0.40648876881E+02 -0.12115648875E+03  0.17927960121E+03  0.12509000000E+03 0.  0.
         25    1    3    3    0    0  0.25977963779E+02 -0.12972287155E+02 -0.62616345523E+02  0.14286864479E+03  0.12509000000E+03 0.  0.
         25    1    3    3    0    0 -0.13232715526E+02 -0.27676589727E+02 -0.37858811358E+03  0.39989694451E+03  0.12509000000E+03 0.  0.
<mgrwt>
<rscale>  2 0.45287904E+03</rscale>
<asrwt>0</asrwt>
<pdfrwt beam="1">  1       21 0.11741488E-01 0.45287904E+03</pdfrwt>
<pdfrwt beam="2">  1       21 0.94441629E-01 0.45287904E+03</pdfrwt>
<totfact> 0.52594262E+04</totfact>
</mgrwt>
</event>
<event>
 6    0  0.1572624E-007  0.4589932E+03  0.7546771E-02  0.1025074E+00
         21   -1    0    0  502  501  0.00000000000E+00  0.00000000000E+00  0.84607161167E+02  0.84607161167E+02  0.00000000000E+00 0.  1.
         21   -1    0    0  501  502 -0.00000000000E+00 -0.00000000000E+00 -0.62250876551E+03  0.62250876551E+03  0.00000000000E+00 0.  1.
      99926    2    1    2    0    0  0.34416913763E-14 -0.71054273576E-14 -0.53790160434E+03  0.70711592668E+03  0.45899324375E+03 0.  0.
         25    1    3    3    0    0  0.52525448839E+02  0.86757475280E+02 -0.19816777759E+03  0.25535026624E+03  0.12509000000E+03 0.  0.
         25    1    3    3    0    0 -0.48587018175E+00 -0.35125196001E+02 -0.24862522382E+03  0.28052811888E+03  0.12509000000E+03 0.  0.
         25    1    3    3    0    0 -0.52039578657E+02 -0.51632279278E+02 -0.91108602934E+02  0.17123754156E+03  0.12509000000E+03 0.  0.
<mgrwt>
<rscale>  2 0.45899324E+03</rscale>
<asrwt>0</asrwt>
<pdfrwt beam="1">  1       21 0.12442230E-01 0.45899324E+03</pdfrwt>
<pdfrwt beam="2">  1       21 0.91545402E-01 0.45899324E+03</pdfrwt>
<totfact> 0.50900065E+04</totfact>
</mgrwt>
</event>
<event>
 6    0  0.1572624E-007  0.4547847E+03  0.7546771E-02  0.1026305E+00
         21   -1    0    0  502  501  0.00000000000E+00  0.00000000000E+00  0.12676098390E+03  0.12676098390E+03  0.00000000000E+00 0.  1.
         21   -1    0    0  501  502 -0.00000000000E+00 -0.00000000000E+00 -0.40791171136E+03  0.40791171136E+03  0.00000000000E+00 0.  1.
      99926    2    1    2    0    0  0.00000000000E+00  0.00000000000E+00 -0.28115072745E+03  0.53467269526E+03  0.45478473974E+03 0.  0.
         25    1    3    3    0    0 -0.96261513302E+02  0.41404449082E+02 -0.13201544149E+03  0.20989566989E+03  0.12509000000E+03 0.  0.
         25    1    3    3    0    0  0.99560663531E+01 -0.29548300776E+02 -0.32811984092E+02  0.13302766530E+03  0.12509000000E+03 0.  0.
         25    1    3    3    0    0  0.86305446949E+02 -0.11856148305E+02 -0.11632330187E+03  0.19174936006E+03  0.12509000000E+03 0.  0.
<mgrwt>
<rscale>  2 0.45478474E+03</rscale>
<asrwt>0</asrwt>
<pdfrwt beam="1">  1       21 0.18641322E-01 0.45478474E+03</pdfrwt>
<pdfrwt beam="2">  1       21 0.59987014E-01 0.45478474E+03</pdfrwt>
<totfact> 0.62998123E+04</totfact>
</mgrwt>
</event>
<event>
 6    0  0.1572624E-007  0.4567926E+03  0.7546771E-02  0.1025716E+00
         21   -1    0    0  502  501  0.00000000000E+00  0.00000000000E+00  0.23908655923E+04  0.23908655923E+04  0.00000000000E+00 0.  1.
         21   -1    0    0  501  502 -0.00000000000E+00 -0.00000000000E+00 -0.21818403472E+02  0.21818403472E+02  0.00000000000E+00 0.  1.
      99926    2    1    2    0    0  0.00000000000E+00  0.00000000000E+00  0.23690471888E+04  0.24126839957E+04  0.45679260125E+03 0.  0.
         25    1    3    3    0    0 -0.16784726195E+02 -0.31644560694E+02  0.66327584484E+03  0.67591823448E+03  0.12509000000E+03 0.  0.
         25    1    3    3    0    0 -0.34603533175E+02  0.10556196963E+03  0.10414650011E+04  0.10548163777E+04  0.12509000000E+03 0.  0.
         25    1    3    3    0    0  0.51388259370E+02 -0.73917408941E+02  0.66430634282E+03  0.68194938357E+03  0.12509000000E+03 0.  0.
<mgrwt>
<rscale>  2 0.45679260E+03</rscale>
<asrwt>0</asrwt>
<pdfrwt beam="1">  1       21 0.35159770E+00 0.45679260E+03</pdfrwt>
<pdfrwt beam="2">  1       21 0.32085904E-02 0.45679260E+03</pdfrwt>
<totfact> 0.79554586E+03</totfact>
</mgrwt>
</event>
<event>
 6    0  0.1572624E-007  0.4551774E+03  0.7546771E-02  0.1026189E+00
         21   -1    0    0  502  501  0.00000000000E+00  0.00000000000E+00  0.37163805987E+03  0.37163805987E+03  0.00000000000E+00 0.  1.
         21   -1    0    0  501  502 -0.00000000000E+00 -0.00000000000E+00 -0.13937381179E+03  0.13937381179E+03  0.00000000000E+00 0.  1.
      99926    2    1    2    0    0  0.00000000000E+00  0.00000000000E+00  0.23226424808E+03  0.51101187166E+03  0.45517738525E+03 0.  0.
         25    1    3    3    0    0 -0.82592172100E+02  0.20689886709E+02  0.29516721169E+02  0.15416965730E+03  0.12509000000E+03 0.  0.
         25    1    3    3    0    0  0.17693576664E+02 -0.10901010560E+02  0.24070405184E+02  0.12906892419E+03  0.12509000000E+03 0.  0.
         25    1    3    3    0    0  0.64898595436E+02 -0.97888761491E+01  0.17867712172E+03  0.22777329017E+03  0.12509000000E+03 0.  0.
<mgrwt>
<rscale>  2 0.45517739E+03</rscale>
<asrwt>0</asrwt>
<pdfrwt beam="1">  1       21 0.54652656E-01 0.45517739E+03</pdfrwt>
<pdfrwt beam="2">  1       21 0.20496149E-01 0.45517739E+03</pdfrwt>
<totfact> 0.64413037E+04</totfact>
</mgrwt>
</event>
<event>
 6    0  0.1572624E-007  0.4543004E+03  0.7546771E-02  0.1026447E+00
         21   -1    0    0  502  501  0.00000000000E+00  0.00000000000E+00  0.97073520118E+02  0.97073520118E+02  0.00000000000E+00 0. -1.
         21   -1    0    0  501  502 -0.00000000000E+00 -0.00000000000E+00 -0.53152707396E+03  0.53152707396E+03  0.00000000000E+00 0. -1.
      99926    2    1    2    0    0  0.71054273576E-14  0.00000000000E+00 -0.43445355384E+03  0.62860059408E+03  0.45430035927E+03 0.  0.
         25    1    3    3    0    0  0.35008919833E+02 -0.18976551085E+02 -0.20607796887E+03  0.24433864065E+03  0.12509000000E+03 0.  0.
         25    1    3    3    0    0  0.57283951603E+02 -0.23174356389E+02 -0.61938097981E+02  0.15265103336E+03  0.12509000000E+03 0.  0.
         25    1    3    3    0    0 -0.92292871436E+02  0.42150907474E+02 -0.16643748699E+03  0.23161092007E+03  0.12509000000E+03 0.  0.
<mgrwt>
<rscale>  2 0.45430036E+03</rscale>
<asrwt>0</asrwt>
<pdfrwt beam="1">  1       21 0.14275518E-01 0.45430036E+03</pdfrwt>
<pdfrwt beam="2">  1       21 0.78165745E-01 0.45430036E+03</pdfrwt>
<totfact> 0.57267118E+04</totfact>
</mgrwt>
</event>
<event>
 6    0  0.1572624E-007  0.4606525E+03  0.7546771E-02  0.1024592E+00
         21   -1    0    0  502  501  0.00000000000E+00  0.00000000000E+00  0.21924206875E+03  0.21924206875E+03  0.00000000000E+00 0. -1.
         21   -1    0    0  501  502 -0.00000000000E+00 -0.00000000000E+00 -0.24197076499E+03  0.24197076499E+03  0.00000000000E+00 0. -1.
      99926    2    1    2    0    0 -0.71054273576E-14  0.00000000000E+00 -0.22728696237E+02  0.46121283374E+03  0.46065245508E+03 0.  0.
         25    1    3    3    0    0 -0.57392078595E+02  0.97046639130E+02 -0.28820448970E+02  0.17085089181E+03  0.12509000000E+03 0.  0.
         25    1    3    3    0    0  0.50989565600E+02 -0.33387503994E+02 -0.35926167040E+02  0.14371102533E+03  0.12509000000E+03 0.  0.
         25    1    3    3    0    0  0.64025129948E+01 -0.63659135137E+02  0.42017919773E+02  0.14665091660E+03  0.12509000000E+03 0.  0.
<mgrwt>
<rscale>  2 0.46065246E+03</rscale>
<asrwt>0</asrwt>
<pdfrwt beam="1">  1       21 0.32241481E-01 0.46065246E+03</pdfrwt>
<pdfrwt beam="2">  1       21 0.35583936E-01 0.46065246E+03</pdfrwt>
<totfact> 0.65106801E+04</totfact>
</mgrwt>
</event>
<event>
 6    0  0.1572624E-007  0.4584247E+03  0.7546771E-02  0.1025239E+00
         21   -1    0    0  502  501  0.00000000000E+00  0.00000000000E+00  0.19963993113E+03  0.19963993113E+03  0.00000000000E+00 0. -1.
         21   -1    0    0  501  502 -0.00000000000E+00 -0.00000000000E+00 -0.26316529651E+03  0.26316529651E+03  0.00000000000E+00 0. -1.
      99926    2    1    2    0    0  0.71054273576E-14  0.00000000000E+00 -0.63525365388E+02  0.46280522764E+03  0.45842470122E+03 0.  0.
         25    1    3    3    0    0 -0.40691853477E+02  0.42865504945E+02 -0.84777760660E+02  0.16225922241E+03  0.12509000000E+03 0.  0.
         25    1    3    3    0    0  0.89880152085E+02 -0.31329788868E+02 -0.22349900979E+02  0.15876719933E+03  0.12509000000E+03 0.  0.
         25    1    3    3    0    0 -0.49188298608E+02 -0.11535716077E+02  0.43602296250E+02  0.14177880590E+03  0.12509000000E+03 0.  0.
<mgrwt>
<rscale>  2 0.45842470E+03</rscale>
<asrwt>0</asrwt>
<pdfrwt beam="1">  1       21 0.29358814E-01 0.45842470E+03</pdfrwt>
<pdfrwt beam="2">  1       21 0.38700779E-01 0.45842470E+03</pdfrwt>
<totfact> 0.66151397E+04</totfact>
</mgrwt>
</event>
<event>
 6    0  0.1572624E-007  0.4542567E+03  0.7546771E-02  0.1026460E+00
         21   -1    0    0  502  501  0.00000000000E+00  0.00000000000E+00  0.93043225978E+02  0.93043225978E+02  0.00000000000E+00 0.  1.
         21   -1    0    0  501  502 -0.00000000000E+00 -0.00000000000E+00 -0.55444420243E+03  0.55444420243E+03  0.00000000000E+00 0.  1.
      99926    2    1    2    0    0  0.00000000000E+00 -0.35527136788E-14 -0.46140097645E+03  0.64748742841E+03  0.45425665529E+03 0.  0.
         25    1    3    3    0    0  0.49470693701E+02  0.66530088941E+01 -0.79850478092E+02  0.15657336624E+03  0.12509000000E+03 0.  0.
         25    1    3    3    0    0  0.17512544163E+02 -0.35867338880E+02 -0.73445422339E+02  0.15044897263E+03  0.12509000000E+03 0.  0.
         25    1    3    3    0    0 -0.66983237864E+02  0.29214329986E+02 -0.30810507602E+03  0.34046508955E+03  0.12509000000E+03 0.  0.
<mgrwt>
<rscale>  2 0.45425666E+03</rscale>
<asrwt>0</asrwt>
<pdfrwt beam="1">  1       21 0.13682827E-01 0.45425666E+03</pdfrwt>
<pdfrwt beam="2">  1       21 0.81535916E-01 0.45425666E+03</pdfrwt>
<totfact> 0.56175194E+04</totfact>
</mgrwt>
</event>
<event>
 6    0  0.1572624E-007  0.4586976E+03  0.7546771E-02  0.1025160E+00
         21   -1    0    0  502  501  0.00000000000E+00  0.00000000000E+00  0.34287157539E+02  0.34287157539E+02  0.00000000000E+00 0.  1.
         21   -1    0    0  501  502 -0.00000000000E+00 -0.00000000000E+00 -0.15341277305E+04  0.15341277305E+04  0.00000000000E+00 0.  1.
      99926    2    1    2    0    0  0.00000000000E+00  0.58841820305E-14 -0.14998405729E+04  0.15684148880E+04  0.45869763103E+03 0.  0.
         25    1    3    3    0    0 -0.37232166961E+02  0.66042332498E+02 -0.29666264902E+03  0.33076284459E+03  0.12509000000E+03 0.  0.
         25    1    3    3    0    0  0.24451049189E+02 -0.57328049096E+00 -0.80417672249E+03  0.81421489274E+03  0.12509000000E+03 0.  0.
         25    1    3    3    0    0  0.12781117772E+02 -0.65469052007E+02 -0.39900120140E+03  0.42343715066E+03  0.12509000000E+03 0.  0.
<mgrwt>
<rscale>  2 0.45869763E+03</rscale>
<asrwt>0</asrwt>
<pdfrwt beam="1">  1       21 0.50422285E-02 0.45869763E+03</pdfrwt>
<pdfrwt beam="2">  1       21 0.22560705E+00 0.45869763E+03</pdfrwt>
<totfact> 0.21526291E+04</totfact>
</mgrwt>
</event>
<event>
 6    0  0.1572624E-007  0.4515755E+03  0.7546771E-02  0.1027253E+00
         21   -1    0    0  502  501  0.00000000000E+00  0.00000000000E+00  0.29488028531E+03  0.29488028531E+03  0.00000000000E+00 0.  1.
         21   -1    0    0  501  502 -0.00000000000E+00 -0.00000000000E+00 -0.17288409031E+03  0.17288409031E+03  0.00000000000E+00 0.  1.
      99926    2    1    2    0    0  0.00000000000E+00  0.88817841970E-14  0.12199619500E+03  0.46776437562E+03  0.45157550809E+03 0.  0.
         25    1    3    3    0    0 -0.27389738679E+02  0.61514524250E+02 -0.25426281657E+01  0.14208521224E+03  0.12509000000E+03 0.  0.
         25    1    3    3    0    0  0.80127072661E+02  0.63643253494E+01  0.70641407906E+02  0.16461642999E+03  0.12509000000E+03 0.  0.
         25    1    3    3    0    0 -0.52737333982E+02 -0.67878849599E+02  0.53897415259E+02  0.16106273340E+03  0.12509000000E+03 0.  0.
<mgrwt>
<rscale>  2 0.45157551E+03</rscale>
<asrwt>0</asrwt>
<pdfrwt beam="1">  1       21 0.43364748E-01 0.45157551E+03</pdfrwt>
<pdfrwt beam="2">  1       21 0.25424131E-01 0.45157551E+03</pdfrwt>
<totfact> 0.69470551E+04</totfact>
</mgrwt>
</event>
<event>
 6    0  0.1572624E-007  0.4557384E+03  0.7546771E-02  0.1026024E+00
         21   -1    0    0  502  501  0.00000000000E+00  0.00000000000E+00  0.10365511350E+04  0.10365511350E+04  0.00000000000E+00 0.  1.
         21   -1    0    0  501  502 -0.00000000000E+00 -0.00000000000E+00 -0.50093409761E+02  0.50093409761E+02  0.00000000000E+00 0.  1.
      99926    2    1    2    0    0  0.00000000000E+00  0.00000000000E+00  0.98645772523E+03  0.10866445447E+04  0.45573843702E+03 0.  0.
         25    1    3    3    0    0  0.46403530983E+02 -0.33297646189E+02  0.44712630223E+03  0.46779424877E+03  0.12509000000E+03 0.  0.
         25    1    3    3    0    0 -0.60294147260E+02  0.46834624060E+02  0.15105905145E+03  0.21046427566E+03  0.12509000000E+03 0.  0.
         25    1    3    3    0    0  0.13890616278E+02 -0.13536977872E+02  0.38827237155E+03  0.40838602032E+03  0.12509000000E+03 0.  0.
<mgrwt>
<rscale>  2 0.45573844E+03</rscale>
<asrwt>0</asrwt>
<pdfrwt beam="1">  1       21 0.15243398E+00 0.45573844E+03</pdfrwt>
<pdfrwt beam="2">  1       21 0.73666786E-02 0.45573844E+03</pdfrwt>
<totfact> 0.35754365E+04</totfact>
</mgrwt>
</event>
<event>
 6    0  0.1572624E-007  0.4553670E+03  0.7546771E-02  0.1026134E+00
         21   -1    0    0  502  501  0.00000000000E+00  0.00000000000E+00  0.98263193861E+03  0.98263193861E+03  0.00000000000E+00 0. -1.
         21   -1    0    0  501  502 -0.00000000000E+00 -0.00000000000E+00 -0.52756047823E+02  0.52756047823E+02  0.00000000000E+00 0. -1.
      99926    2    1    2    0    0  0.71054273576E-14  0.17763568394E-14  0.92987589079E+03  0.10353879864E+04  0.45536700603E+03 0.  0.
         25    1    3    3    0    0 -0.87435193567E+02 -0.47624524605E+02  0.49482003796E+03  0.52000710234E+03  0.12509000000E+03 0.  0.
         25    1    3    3    0    0  0.47880257105E+02  0.54591555730E+02  0.21625174233E+03  0.26016356612E+03  0.12509000000E+03 0.  0.
         25    1    3    3    0    0  0.39554936461E+02 -0.69670311251E+01  0.21880411050E+03  0.25521731798E+03  0.12509000000E+03 0.  0.
<mgrwt>
<rscale>  2 0.45536701E+03</rscale>
<asrwt>0</asrwt>
<pdfrwt beam="1">  1       21 0.14450469E+00 0.45536701E+03</pdfrwt>
<pdfrwt beam="2">  1       21 0.77582429E-02 0.45536701E+03</pdfrwt>
<totfact> 0.37710012E+04</totfact>
</mgrwt>
</event>
<event>
 6    0  0.1572624E-007  0.4529798E+03  0.7546771E-02  0.1026837E+00
         21   -1    0    0  502  501  0.00000000000E+00  0.00000000000E+00  0.13309222839E+03  0.13309222839E+03  0.00000000000E+00 0.  1.
         21   -1    0    0  501  502 -0.00000000000E+00 -0.00000000000E+00 -0.38542946778E+03  0.38542946778E+03  0.00000000000E+00 0.  1.
      99926    2    1    2    0    0  0.00000000000E+00  0.00000000000E+00 -0.25233723939E+03  0.51852169618E+03  0.45297976448E+03 0.  0.
         25    1    3    3    0    0 -0.91632506404E+02 -0.17581623790E+02 -0.26044222233E+02  0.15821327168E+03  0.12509000000E+03 0.  0.
         25    1    3    3    0    0  0.68489477398E+02  0.14555578616E+02 -0.72332341638E+02  0.16056820710E+03  0.12509000000E+03 0.  0.
         25    1    3    3    0    0  0.23143029006E+02  0.30260451742E+01 -0.15396067552E+03  0.19974021740E+03  0.12509000000E+03 0.  0.
<mgrwt>
<rscale>  2 0.45297976E+03</rscale>
<asrwt>0</asrwt>
<pdfrwt beam="1">  1       21 0.19572387E-01 0.45297976E+03</pdfrwt>
<pdfrwt beam="2">  1       21 0.56680802E-01 0.45297976E+03</pdfrwt>
<totfact> 0.65024088E+04</totfact>
</mgrwt>
</event>
<event>
 6    0  0.1572624E-007  0.4518277E+03  0.7546771E-02  0.1027178E+00
         21   -1    0    0  502  501  0.00000000000E+00  0.00000000000E+00  0.41804906223E+02  0.41804906223E+02  0.00000000000E+00 0. -1.
         21   -1    0    0  501  502 -0.00000000000E+00 -0.00000000000E+00 -0.12208394437E+04  0.12208394437E+04  0.00000000000E+00 0. -1.
      99926    2    1    2    0    0 -0.35527136788E-14 -0.71054273576E-14 -0.11790345375E+04  0.12626443499E+04  0.45182774796E+03 0.  0.
         25    1    3    3    0    0 -0.31737383076E+02 -0.43845526854E+02 -0.66300792987E+03  0.67687274645E+03  0.12509000000E+03 0.  0.
         25    1    3    3    0    0  0.19125884974E+02  0.49250350720E+02 -0.17001272919E+03  0.21758500111E+03  0.12509000000E+03 0.  0.
         25    1    3    3    0    0  0.12611498102E+02 -0.54048238657E+01 -0.34601387840E+03  0.36818660235E+03  0.12509000000E+03 0.  0.
<mgrwt>
<rscale>  2 0.45182775E+03</rscale>
<asrwt>0</asrwt>
<pdfrwt beam="1">  1       21 0.61477823E-02 0.45182775E+03</pdfrwt>
<pdfrwt beam="2">  1       21 0.17953516E+00 0.45182775E+03</pdfrwt>
<totfact> 0.30976992E+04</totfact>
</mgrwt>
</event>
<event>
 6    0  0.1572624E-007  0.4527784E+03  0.7546771E-02  0.1026897E+00
         21   -1    0    0  502  501  0.00000000000E+00  0.00000000000E+00  0.86527294995E+02  0.86527294995E+02  0.00000000000E+00 0. -1.
         21   -1    0    0  501  502 -0.00000000000E+00 -0.00000000000E+00 -0.59232253287E+03  0.59232253287E+03  0.00000000000E+00 0. -1.
      99926    2    1    2    0    0 -0.71054273576E-14  0.00000000000E+00 -0.50579523787E+03  0.67884982786E+03  0.45277838523E+03 0.  0.
         25    1    3    3    0    0 -0.52976325614E+02  0.10312414114E+02 -0.26390138101E+03  0.29699206043E+03  0.12509000000E+03 0.  0.
         25    1    3    3    0    0 -0.41189519547E+02 -0.13297484720E+02 -0.71541341062E+02  0.15046285655E+03  0.12509000000E+03 0.  0.
         25    1    3    3    0    0  0.94165845161E+02  0.29850706054E+01 -0.17035251580E+03  0.23139491088E+03  0.12509000000E+03 0.  0.
<mgrwt>
<rscale>  2 0.45277839E+03</rscale>
<asrwt>0</asrwt>
<pdfrwt beam="1">  1       21 0.12724603E-01 0.45277839E+03</pdfrwt>
<pdfrwt beam="2">  1       21 0.87106252E-01 0.45277839E+03</pdfrwt>
<totfact> 0.55023131E+04</totfact>
</mgrwt>
</event>
<event>
 6    0  0.1572624E-007  0.4525058E+03  0.7546771E-02  0.1026977E+00
         21   -1    0    0  502  501  0.00000000000E+00  0.00000000000E+00  0.63340733429E+02  0.63340733429E+02  0.00000000000E+00 0. -1.
         21   -1    0    0  501  502 -0.00000000000E+00 -0.00000000000E+00 -0.80817458350E+03  0.80817458350E+03  0.00000000000E+00 0. -1.
      99926    2    1    2    0    0  0.00000000000E+00  0.00000000000E+00 -0.74483385007E+03  0.87151531692E+03  0.45250578276E+03 0.  0.
         25    1    3    3    0    0  0.96662460227E+02 -0.27079233612E+02 -0.32141090028E+03  0.35920661329E+03  0.12509000000E+03 0.  0.
         25    1    3    3    0    0 -0.12783165695E+02 -0.11192057256E+02 -0.13594356127E+03  0.18551773883E+03  0.12509000000E+03 0.  0.
         25    1    3    3    0    0 -0.83879294531E+02  0.38271290868E+02 -0.28747938852E+03  0.32679096480E+03  0.12509000000E+03 0.  0.
<mgrwt>
<rscale>  2 0.45250578E+03</rscale>
<asrwt>0</asrwt>
<pdfrwt beam="1">  1       21 0.93148145E-02 0.45250578E+03</pdfrwt>
<pdfrwt beam="2">  1       21 0.11884919E+00 0.45250578E+03</pdfrwt>
<totfact> 0.45368102E+04</totfact>
</mgrwt>
</event>
<event>
 6    0  0.1572624E-007  0.4519209E+03  0.7546771E-02  0.1027151E+00
         21   -1    0    0  502  501  0.00000000000E+00  0.00000000000E+00  0.13723873851E+03  0.13723873851E+03  0.00000000000E+00 0.  1.
         21   -1    0    0  501  502 -0.00000000000E+00 -0.00000000000E+00 -0.37203867372E+03  0.37203867372E+03  0.00000000000E+00 0.  1.
      99926    2    1    2    0    0 -0.17763568394E-14 -0.26645352591E-14 -0.23479993521E+03  0.50927741223E+03  0.45192087033E+03 0.  0.
         25    1    3    3    0    0 -0.54463679728E+01 -0.79330675173E+01 -0.59704440592E+02  0.13894144382E+03  0.12509000000E+03 0.  0.
         25    1    3    3    0    0 -0.54654641352E+02 -0.81636138183E+02 -0.64957236758E+02  0.17180960272E+03  0.12509000000E+03 0.  0.
         25    1    3    3    0    0  0.60101009325E+02  0.89569205700E+02 -0.11013825786E+03  0.19852636570E+03  0.12509000000E+03 0.  0.
<mgrwt>
<rscale>  2 0.45192087E+03</rscale>
<asrwt>0</asrwt>
<pdfrwt beam="1">  1       21 0.20182168E-01 0.45192087E+03</pdfrwt>
<pdfrwt beam="2">  1       21 0.54711569E-01 0.45192087E+03</pdfrwt>
<totfact> 0.66227288E+04</totfact>
</mgrwt>
</event>
<event>
 6    0  0.1572624E-007  0.4378028E+03  0.7546771E-02  0.1031423E+00
         21   -1    0    0  502  501  0.00000000000E+00  0.00000000000E+00  0.83058487386E+02  0.83058487386E+02  0.00000000000E+00 0. -1.
         21   -1    0    0  501  502 -0.00000000000E+00 -0.00000000000E+00 -0.57691655498E+03  0.57691655498E+03  0.00000000000E+00 0. -1.
      99926    2    1    2    0    0  0.00000000000E+00 -0.35527136788E-14 -0.49385806759E+03  0.65997504236E+03  0.43780277022E+03 0.  0.
         25    1    3    3    0    0 -0.47569315057E+02 -0.78665842687E+01 -0.18299258481E+03  0.22684469815E+03  0.12509000000E+03 0.  0.
         25    1    3    3    0    0  0.60997316055E+02 -0.63421925748E+02 -0.19507786684E+03  0.24788282608E+03  0.12509000000E+03 0.  0.
         25    1    3    3    0    0 -0.13428000998E+02  0.71288510016E+02 -0.11578761594E+03  0.18524751814E+03  0.12509000000E+03 0.  0.
<mgrwt>
<rscale>  2 0.43780277E+03</rscale>
<asrwt>0</asrwt>
<pdfrwt beam="1">  1       21 0.12214484E-01 0.43780277E+03</pdfrwt>
<pdfrwt beam="2">  1       21 0.84840668E-01 0.43780277E+03</pdfrwt>
<totfact> 0.63279961E+04</totfact>
</mgrwt>
</event>
<event>
 6    0  0.1572624E-007  0.4566327E+03  0.7546771E-02  0.1025762E+00
         21   -1    0    0  502  501  0.00000000000E+00  0.00000000000E+00  0.64633117968E+03  0.64633117968E+03  0.00000000000E+00 0.  1.
         21   -1    0    0  501  502 -0.00000000000E+00 -0.00000000000E+00 -0.80652704549E+02  0.80652704549E+02  0.00000000000E+00 0.  1.
      99926    2    1    2    0    0  0.00000000000E+00  0.00000000000E+00  0.56567847513E+03  0.72698388423E+03  0.45663270875E+03 0.  0.
         25    1    3    3    0    0  0.97396112596E+01  0.57583942233E+02  0.28007929774E+03  0.31225420982E+03  0.12509000000E+03 0.  0.
         25    1    3    3    0    0 -0.59010640315E+02 -0.86277161342E+02  0.14672274407E+03  0.21931957497E+03  0.12509000000E+03 0.  0.
         25    1    3    3    0    0  0.49271029056E+02  0.28693219109E+02  0.13887643333E+03  0.19541009943E+03  0.12509000000E+03 0.  0.
<mgrwt>
<rscale>  2 0.45663271E+03</rscale>
<asrwt>0</asrwt>
<pdfrwt beam="1">  1       21 0.95048700E-01 0.45663271E+03</pdfrwt>
<pdfrwt beam="2">  1       21 0.11860692E-01 0.45663271E+03</pdfrwt>
<totfact> 0.50806813E+04</totfact>
</mgrwt>
</event>
<event>
 6    0  0.1572624E-007  0.4494431E+03  0.7546771E-02  0.1027888E+00
         21   -1    0    0  502  501  0.00000000000E+00  0.00000000000E+00  0.21882787372E+03  0.21882787372E+03  0.00000000000E+00 0. -1.
         21   -1    0    0  501  502 -0.00000000000E+00 -0.00000000000E+00 -0.23077393030E+03  0.23077393030E+03  0.00000000000E+00 0. -1.
      99926    2    1    2    0    0  0.00000000000E+00 -0.71054273576E-14 -0.11946056575E+02  0.44960180402E+03  0.44944307083E+03 0.  0.
         25    1    3    3    0    0 -0.47354901699E+02 -0.32471501623E+02 -0.65605968267E+02  0.15247470710E+03  0.12509000000E+03 0.  0.
         25    1    3    3    0    0 -0.45031573244E+01  0.68659071749E+02 -0.10140059011E+02  0.14312468500E+03  0.12509000000E+03 0.  0.
         25    1    3    3    0    0  0.51858059024E+02 -0.36187570127E+02  0.63799970704E+02  0.15400241193E+03  0.12509000000E+03 0.  0.
<mgrwt>
<rscale>  2 0.44944307E+03</rscale>
<asrwt>0</asrwt>
<pdfrwt beam="1">  1       21 0.32180570E-01 0.44944307E+03</pdfrwt>
<pdfrwt beam="2">  1       21 0.33937343E-01 0.44944307E+03</pdfrwt>
<totfact> 0.72086666E+04</totfact>
</mgrwt>
</event>
<event>
 6    0  0.1572624E-007  0.4556130E+03  0.7546771E-02  0.1026061E+00
         21   -1    0    0  502  501  0.00000000000E+00  0.00000000000E+00  0.52688246181E+03  0.52688246181E+03  0.00000000000E+00 0.  1.
         21   -1    0    0  501  502 -0.00000000000E+00 -0.00000000000E+00 -0.98495977124E+02  0.98495977124E+02  0.00000000000E+00 0.  1.
      99926    2    1    2    0    0  0.71054273576E-14  0.71054273576E-14  0.42838648468E+03  0.62537843893E+03  0.45561300642E+03 0.  0.
         25    1    3    3    0    0  0.75983320508E+02 -0.78682436390E+02  0.11880444657E+03  0.20427039780E+03  0.12509000000E+03 0.  0.
         25    1    3    3    0    0 -0.81076776290E+02  0.38098607168E+02  0.16714232932E+03  0.22717617364E+03  0.12509000000E+03 0.  0.
         25    1    3    3    0    0  0.50934557813E+01  0.40583829222E+02  0.14243970880E+03  0.19393186749E+03  0.12509000000E+03 0.  0.
<mgrwt>
<rscale>  2 0.45561301E+03</rscale>
<asrwt>0</asrwt>
<pdfrwt beam="1">  1       21 0.77482714E-01 0.45561301E+03</pdfrwt>
<pdfrwt beam="2">  1       21 0.14484703E-01 0.45561301E+03</pdfrwt>
<totfact> 0.56867003E+04</totfact>
</mgrwt>
</event>
<event>
 6    0  0.1572624E-007  0.4513493E+03  0.7546771E-02  0.1027320E+00
         21   -1    0    0  502  501  0.00000000000E+00  0.00000000000E+00  0.19955445787E+03  0.19955445787E+03  0.00000000000E+00 0.  1.
         21   -1    0    0  501  502 -0.00000000000E+00 -0.00000000000E+00 -0.25521376404E+03  0.25521376404E+03  0.00000000000E+00 0.  1.
      99926    2    1    2    0    0  0.17763568394E-14  0.00000000000E+00 -0.55659306168E+02  0.45476822191E+03  0.45134928525E+03 0.  0.
         25    1    3    3    0    0 -0.78307591858E+02  0.13768557193E+02 -0.20658884928E+02  0.14965276388E+03  0.12509000000E+03 0.  0.
         25    1    3    3    0    0  0.14220345955E+02 -0.20940969273E+02  0.54022923093E+02  0.13858833556E+03  0.12509000000E+03 0.  0.
         25    1    3    3    0    0  0.64087245903E+02  0.71724120797E+01 -0.89023344333E+02  0.16652712247E+03  0.12509000000E+03 0.  0.
<mgrwt>
<rscale>  2 0.45134929E+03</rscale>
<asrwt>0</asrwt>
<pdfrwt beam="1">  1       21 0.29346244E-01 0.45134929E+03</pdfrwt>
<pdfrwt beam="2">  1       21 0.37531436E-01 0.45134929E+03</pdfrwt>
<totfact> 0.70596575E+04</totfact>
</mgrwt>
</event>
<event>
 6    0  0.1572624E-007  0.4528345E+03  0.7546771E-02  0.1026880E+00
         21   -1    0    0  502  501  0.00000000000E+00  0.00000000000E+00  0.34483359467E+03  0.34483359467E+03  0.00000000000E+00 0. -1.
         21   -1    0    0  501  502 -0.00000000000E+00 -0.00000000000E+00 -0.14866524405E+03  0.14866524405E+03  0.00000000000E+00 0. -1.
      99926    2    1    2    0    0 -0.35527136788E-14  0.00000000000E+00  0.19616835063E+03  0.49349883872E+03  0.45283449740E+03 0.  0.
         25    1    3    3    0    0 -0.71153957411E+02 -0.47100067797E+02  0.73622728038E+02  0.16837195795E+03  0.12509000000E+03 0.  0.
         25    1    3    3    0    0  0.94665154627E+02  0.70071865850E+02  0.69827624408E+02  0.18545879088E+03  0.12509000000E+03 0.  0.
         25    1    3    3    0    0 -0.23511197216E+02 -0.22971798053E+02  0.52717998181E+02  0.13966808989E+03  0.12509000000E+03 0.  0.
<mgrwt>
<rscale>  2 0.45283450E+03</rscale>
<asrwt>0</asrwt>
<pdfrwt beam="1">  1       21 0.50710823E-01 0.45283450E+03</pdfrwt>
<pdfrwt beam="2">  1       21 0.21862536E-01 0.45283450E+03</pdfrwt>
<totfact> 0.66872060E+04</totfact>
</mgrwt>
</event>
<event>
 6    0  0.9305440E-007  0.4657566E+03  0.7546771E-02  0.1023125E+00
         21   -1    0    0  502  501  0.00000000000E+00  0.00000000000E+00  0.34941586778E+03  0.34941586778E+03  0.00000000000E+00 0. -1.
         21   -1    0    0  501  502 -0.00000000000E+00 -0.00000000000E+00 -0.15520847952E+03  0.15520847952E+03  0.00000000000E+00 0.  1.
      99926    2    1    2    0    0 -0.35527136788E-14 -0.14210854715E-13  0.19420738826E+03  0.50462434730E+03  0.46575661266E+03 0.  0.
         25    1    3    3    0    0 -0.21178637749E+02 -0.96656055100E+02  0.54755042077E+01  0.15958827316E+03  0.12509000000E+03 0.  0.
         25    1    3    3    0    0  0.46881932508E+02  0.14289491788E+02  0.65911525591E+02  0.14964605734E+03  0.12509000000E+03 0.  0.
         25    1    3    3    0    0 -0.25703294759E+02  0.82366563312E+02  0.12282035846E+03  0.19539001680E+03  0.12509000000E+03 0.  0.
<mgrwt>
<rscale>  2 0.46575661E+03</rscale>
<asrwt>0</asrwt>
<pdfrwt beam="1">  1       21 0.51384686E-01 0.46575661E+03</pdfrwt>
<pdfrwt beam="2">  1       21 0.22824777E-01 0.46575661E+03</pdfrwt>
<totfact> 0.59685439E+04</totfact>
</mgrwt>
</event>
<event>
 6    0  0.1572624E-007  0.4552401E+03  0.7546771E-02  0.1026171E+00
         21   -1    0    0  502  501  0.00000000000E+00  0.00000000000E+00  0.30899827401E+03  0.30899827401E+03  0.00000000000E+00 0.  1.
         21   -1    0    0  501  502 -0.00000000000E+00 -0.00000000000E+00 -0.16767368208E+03  0.16767368208E+03  0.00000000000E+00 0.  1.
      99926    2    1    2    0    0  0.00000000000E+00  0.24424906542E-14  0.14132459193E+03  0.47667195608E+03  0.45524006132E+03 0.  0.
         25    1    3    3    0    0 -0.91092894319E+02  0.46464176266E+02  0.22765085292E+02  0.16316431068E+03  0.12509000000E+03 0.  0.
         25    1    3    3    0    0  0.17107989996E+02 -0.47210761296E+02  0.98166281539E+02  0.16675031105E+03  0.12509000000E+03 0.  0.
         25    1    3    3    0    0  0.73984904323E+02  0.74658502928E+00  0.20393225100E+02  0.14675733435E+03  0.12509000000E+03 0.  0.
<mgrwt>
<rscale>  2 0.45524006E+03</rscale>
<asrwt>0</asrwt>
<pdfrwt beam="1">  1       21 0.45440923E-01 0.45524006E+03</pdfrwt>
<pdfrwt beam="2">  1       21 0.24657894E-01 0.45524006E+03</pdfrwt>
<totfact> 0.66815773E+04</totfact>
</mgrwt>
</event>
<event>
 6    0  0.1572624E-007  0.4658820E+03  0.7546771E-02  0.1023089E+00
         21   -1    0    0  502  501  0.00000000000E+00  0.00000000000E+00  0.46321771001E+03  0.46321771001E+03  0.00000000000E+00 0.  1.
         21   -1    0    0  501  502 -0.00000000000E+00 -0.00000000000E+00 -0.11714041853E+03  0.11714041853E+03  0.00000000000E+00 0.  1.
      99926    2    1    2    0    0  0.71054273576E-14  0.00000000000E+00  0.34607729147E+03  0.58035812854E+03  0.46588202979E+03 0.  0.
         25    1    3    3    0    0 -0.11804173878E+03 -0.65524767801E+01  0.14531394809E+03  0.22525638427E+03  0.12509000000E+03 0.  0.
         25    1    3    3    0    0  0.64665665129E+02  0.48092798944E+02  0.12278692992E+03  0.19292149651E+03  0.12509000000E+03 0.  0.
         25    1    3    3    0    0  0.53376073654E+02 -0.41540322164E+02  0.77976413463E+02  0.16218024775E+03  0.12509000000E+03 0.  0.
<mgrwt>
<rscale>  2 0.46588203E+03</rscale>
<asrwt>0</asrwt>
<pdfrwt beam="1">  1       21 0.68120251E-01 0.46588203E+03</pdfrwt>
<pdfrwt beam="2">  1       21 0.17226532E-01 0.46588203E+03</pdfrwt>
<totfact> 0.55015721E+04</totfact>
</mgrwt>
</event>
<event>
 6    0  0.1572624E-007  0.4520174E+03  0.7546771E-02  0.1027122E+00
         21   -1    0    0  502  501  0.00000000000E+00  0.00000000000E+00  0.29871621297E+02  0.29871621297E+02  0.00000000000E+00 0. -1.
         21   -1    0    0  501  502 -0.00000000000E+00 -0.00000000000E+00 -0.17099820185E+04  0.17099820185E+04  0.00000000000E+00 0. -1.
      99926    2    1    2    0    0 -0.35527136788E-14 -0.10658141036E-13 -0.16801103972E+04  0.17398536397E+04  0.45201741240E+03 0.  0.
         25    1    3    3    0    0 -0.23256218332E+02 -0.74945492935E+02 -0.42785369661E+03  0.45261901463E+03  0.12509000000E+03 0.  0.
         25    1    3    3    0    0  0.49194243678E+02  0.98083364605E+02 -0.63217641778E+03  0.65370861346E+03  0.12509000000E+03 0.  0.
         25    1    3    3    0    0 -0.25938025346E+02 -0.23137871669E+02 -0.62008028277E+03  0.63352601166E+03  0.12509000000E+03 0.  0.
<mgrwt>
<rscale>  2 0.45201741E+03</rscale>
<asrwt>0</asrwt>
<pdfrwt beam="1">  1       21 0.43928848E-02 0.45201741E+03</pdfrwt>
<pdfrwt beam="2">  1       21 0.25146798E+00 0.45201741E+03</pdfrwt>
<totfact> 0.18877666E+04</totfact>
</mgrwt>
</event>
<event>
 6    0  0.1572624E-007  0.4523800E+03  0.7546771E-02  0.1027015E+00
         21   -1    0    0  502  501  0.00000000000E+00  0.00000000000E+00  0.20668579672E+04  0.20668579672E+04  0.00000000000E+00 0. -1.
         21   -1    0    0  501  502 -0.00000000000E+00 -0.00000000000E+00 -0.24753474331E+02  0.24753474331E+02  0.00000000000E+00 0. -1.
      99926    2    1    2    0    0  0.88817841970E-15  0.35527136788E-14  0.20421044929E+04  0.20916114415E+04  0.45237999795E+03 0.  0.
         25    1    3    3    0    0 -0.39642925458E+01  0.25696804373E+02  0.41418469189E+03  0.43344262419E+03  0.12509000000E+03 0.  0.
         25    1    3    3    0    0 -0.54191223684E+02  0.47440839453E+02  0.53408107945E+03  0.55324264975E+03  0.12509000000E+03 0.  0.
         25    1    3    3    0    0  0.58155516230E+02 -0.73137643826E+02  0.10938387215E+04  0.11049261676E+04  0.12509000000E+03 0.  0.
<mgrwt>
<rscale>  2 0.45238000E+03</rscale>
<asrwt>0</asrwt>
<pdfrwt beam="1">  1       21 0.30394958E+00 0.45238000E+03</pdfrwt>
<pdfrwt beam="2">  1       21 0.36402182E-02 0.45238000E+03</pdfrwt>
<totfact> 0.12524011E+04</totfact>
</mgrwt>
</event>
<event>
 6    0  0.1572624E-007  0.4577586E+03  0.7546771E-02  0.1025433E+00
         21   -1    0    0  502  501  0.00000000000E+00  0.00000000000E+00  0.28066821004E+03  0.28066821004E+03  0.00000000000E+00 0.  1.
         21   -1    0    0  501  502 -0.00000000000E+00 -0.00000000000E+00 -0.18664650081E+03  0.18664650081E+03  0.00000000000E+00 0.  1.
      99926    2    1    2    0    0  0.00000000000E+00  0.17763568394E-14  0.94021709233E+02  0.46731471085E+03  0.45775862326E+03 0.  0.
         25    1    3    3    0    0  0.81482026833E+02  0.15435881018E+02  0.62086421073E+01  0.15021199172E+03  0.12509000000E+03 0.  0.
         25    1    3    3    0    0 -0.14937927613E+02  0.60113432643E+02  0.13713945436E+02  0.14025814367E+03  0.12509000000E+03 0.  0.
         25    1    3    3    0    0 -0.66544099219E+02 -0.75549313661E+02  0.74099121690E+02  0.17684457546E+03  0.12509000000E+03 0.  0.
<mgrwt>
<rscale>  2 0.45775862E+03</rscale>
<asrwt>0</asrwt>
<pdfrwt beam="1">  1       21 0.41274737E-01 0.45775862E+03</pdfrwt>
<pdfrwt beam="2">  1       21 0.27448015E-01 0.45775862E+03</pdfrwt>
<totfact> 0.66175698E+04</totfact>
</mgrwt>
</event>
<event>
 6    0  0.1572624E-007  0.4540432E+03  0.7546771E-02  0.1026523E+00
         21   -1    0    0  502  501  0.00000000000E+00  0.00000000000E+00  0.28176216016E+03  0.28176216016E+03  0.00000000000E+00 0.  1.
         21   -1    0    0  501  502 -0.00000000000E+00 -0.00000000000E+00 -0.18291597787E+03  0.18291597787E+03  0.00000000000E+00 0.  1.
      99926    2    1    2    0    0  0.00000000000E+00  0.00000000000E+00  0.98846182297E+02  0.46467813803E+03  0.45404317439E+03 0.  0.
         25    1    3    3    0    0  0.22972001899E+02  0.60863035364E+02  0.40895152655E+01  0.14105408247E+03  0.12509000000E+03 0.  0.
         25    1    3    3    0    0 -0.29275462885E+02 -0.58247020718E+02  0.13173320188E+03  0.19300495519E+03  0.12509000000E+03 0.  0.
         25    1    3    3    0    0  0.63034609864E+01 -0.26160146466E+01 -0.36976534850E+02  0.13061910037E+03  0.12509000000E+03 0.  0.
<mgrwt>
<rscale>  2 0.45404317E+03</rscale>
<asrwt>0</asrwt>
<pdfrwt beam="1">  1       21 0.41435612E-01 0.45404317E+03</pdfrwt>
<pdfrwt beam="2">  1       21 0.26899408E-01 0.45404317E+03</pdfrwt>
<totfact> 0.68351403E+04</totfact>
</mgrwt>
</event>
<event>
 6    0  0.1572624E-007  0.4499808E+03  0.7546771E-02  0.1027728E+00
         21   -1    0    0  502  501  0.00000000000E+00  0.00000000000E+00  0.27243841916E+03  0.27243841916E+03  0.00000000000E+00 0.  1.
         21   -1    0    0  501  502 -0.00000000000E+00 -0.00000000000E+00 -0.18580592486E+03  0.18580592486E+03  0.00000000000E+00 0.  1.
      99926    2    1    2    0    0  0.68833827527E-14 -0.71054273576E-14  0.86632494301E+02  0.45824434402E+03  0.44998076598E+03 0.  0.
         25    1    3    3    0    0  0.16124165317E+01 -0.46238465435E+02  0.12542179387E+03  0.18308121162E+03  0.12509000000E+03 0.  0.
         25    1    3    3    0    0 -0.34374741182E+02  0.56394871338E+02 -0.70592749939E+01  0.14163101994E+03  0.12509000000E+03 0.  0.
         25    1    3    3    0    0  0.32762324650E+02 -0.10156405903E+02 -0.31730024573E+02  0.13353211246E+03  0.12509000000E+03 0.  0.
<mgrwt>
<rscale>  2 0.44998077E+03</rscale>
<asrwt>0</asrwt>
<pdfrwt beam="1">  1       21 0.40064474E-01 0.44998077E+03</pdfrwt>
<pdfrwt beam="2">  1       21 0.27324401E-01 0.44998077E+03</pdfrwt>
<totfact> 0.71109796E+04</totfact>
</mgrwt>
</event>
<event>
 6    0  0.1572624E-007  0.4545016E+03  0.7546771E-02  0.1026388E+00
         21   -1    0    0  502  501  0.00000000000E+00  0.00000000000E+00  0.42211771347E+03  0.42211771347E+03  0.00000000000E+00 0. -1.
         21   -1    0    0  501  502 -0.00000000000E+00 -0.00000000000E+00 -0.12234248958E+03  0.12234248958E+03  0.00000000000E+00 0. -1.
      99926    2    1    2    0    0  0.00000000000E+00  0.00000000000E+00  0.29977522389E+03  0.54446020305E+03  0.45450162578E+03 0.  0.
         25    1    3    3    0    0 -0.10678319668E+02 -0.59490424143E+02  0.13437826280E+03  0.19328259800E+03  0.12509000000E+03 0.  0.
         25    1    3    3    0    0 -0.69120134978E+02  0.12521970594E+02  0.12526307923E+03  0.19045403625E+03  0.12509000000E+03 0.  0.
         25    1    3    3    0    0  0.79798454646E+02  0.46968453549E+02  0.40133881863E+02  0.16072356879E+03  0.12509000000E+03 0.  0.
<mgrwt>
<rscale>  2 0.45450163E+03</rscale>
<asrwt>0</asrwt>
<pdfrwt beam="1">  1       21 0.62076134E-01 0.45450163E+03</pdfrwt>
<pdfrwt beam="2">  1       21 0.17991543E-01 0.45450163E+03</pdfrwt>
<totfact> 0.62480112E+04</totfact>
</mgrwt>
</event>
<event>
 6    0  0.1572624E-007  0.4554523E+03  0.7546771E-02  0.1026108E+00
         21   -1    0    0  502  501  0.00000000000E+00  0.00000000000E+00  0.37029421335E+03  0.37029421335E+03  0.00000000000E+00 0.  1.
         21   -1    0    0  501  502 -0.00000000000E+00 -0.00000000000E+00 -0.14004862595E+03  0.14004862595E+03  0.00000000000E+00 0.  1.
      99926    2    1    2    0    0  0.00000000000E+00 -0.71054273576E-14  0.23024558740E+03  0.51034283930E+03  0.45545228412E+03 0.  0.
         25    1    3    3    0    0 -0.40916218710E+02 -0.45557048703E+02  0.43370786250E+02  0.14587019860E+03  0.12509000000E+03 0.  0.
         25    1    3    3    0    0  0.63978997383E+02  0.92116624934E+01  0.18459256305E+03  0.23216392757E+03  0.12509000000E+03 0.  0.
         25    1    3    3    0    0 -0.23062778673E+02  0.36345386210E+02  0.22822381025E+01  0.13230871313E+03  0.12509000000E+03 0.  0.
<mgrwt>
<rscale>  2 0.45545228E+03</rscale>
<asrwt>0</asrwt>
<pdfrwt beam="1">  1       21 0.54455031E-01 0.45545228E+03</pdfrwt>
<pdfrwt beam="2">  1       21 0.20595386E-01 0.45545228E+03</pdfrwt>
<totfact> 0.64318803E+04</totfact>
</mgrwt>
</event>
<event>
 6    0  0.1572624E-007  0.4491248E+03  0.7546771E-02  0.1027983E+00
         21   -1    0    0  502  501  0.00000000000E+00  0.00000000000E+00  0.20697335703E+03  0.20697335703E+03  0.00000000000E+00 0.  1.
         21   -1    0    0  501  502 -0.00000000000E+00 -0.00000000000E+00 -0.24364623811E+03  0.24364623811E+03  0.00000000000E+00 0.  1.
      99926    2    1    2    0    0  0.00000000000E+00  0.71054273576E-14 -0.36672881076E+02  0.45061959515E+03  0.44912483712E+03 0.  0.
         25    1    3    3    0    0 -0.31188652384E+02 -0.48172542809E+02  0.38599156156E+02  0.14293610067E+03  0.12509000000E+03 0.  0.
         25    1    3    3    0    0  0.19498404253E+02  0.55259597361E+02  0.32611996084E+02  0.14193259406E+03  0.12509000000E+03 0.  0.
         25    1    3    3    0    0  0.11690248130E+02 -0.70870545517E+01 -0.10788403332E+03  0.16575090041E+03  0.12509000000E+03 0.  0.
<mgrwt>
<rscale>  2 0.44912484E+03</rscale>
<asrwt>0</asrwt>
<pdfrwt beam="1">  1       21 0.30437258E-01 0.44912484E+03</pdfrwt>
<pdfrwt beam="2">  1       21 0.35830329E-01 0.44912484E+03</pdfrwt>
<totfact> 0.72193171E+04</totfact>
</mgrwt>
</event>
<event>
 6    0  0.1572624E-007  0.4520740E+03  0.7546771E-02  0.1027105E+00
         21   -1    0    0  502  501  0.00000000000E+00  0.00000000000E+00  0.15990976216E+04  0.15990976216E+04  0.00000000000E+00 0.  1.
         21   -1    0    0  501  502 -0.00000000000E+00 -0.00000000000E+00 -0.31950970101E+02  0.31950970101E+02  0.00000000000E+00 0.  1.
      99926    2    1    2    0    0  0.00000000000E+00  0.00000000000E+00  0.15671466515E+04  0.16310485917E+04  0.45207397755E+03 0.  0.
         25    1    3    3    0    0  0.98309985730E+02  0.11026853548E+02  0.54296597458E+03  0.56590282068E+03  0.12509000000E+03 0.  0.
         25    1    3    3    0    0 -0.35600382087E+02 -0.60793533994E+02  0.47303562648E+03  0.49434143362E+03  0.12509000000E+03 0.  0.
         25    1    3    3    0    0 -0.62709603643E+02  0.49766680446E+02  0.55114505041E+03  0.57080433737E+03  0.12509000000E+03 0.  0.
<mgrwt>
<rscale>  2 0.45207398E+03</rscale>
<asrwt>0</asrwt>
<pdfrwt beam="1">  1       21 0.23516136E+00 0.45207398E+03</pdfrwt>
<pdfrwt beam="2">  1       21 0.46986732E-02 0.45207398E+03</pdfrwt>
<totfact> 0.21215081E+04</totfact>
</mgrwt>
</event>
<event>
 6    0  0.1572624E-007  0.4602601E+03  0.7546771E-02  0.1024706E+00
         21   -1    0    0  502  501  0.00000000000E+00  0.00000000000E+00  0.42745209236E+03  0.42745209236E+03  0.00000000000E+00 0.  1.
         21   -1    0    0  501  502 -0.00000000000E+00 -0.00000000000E+00 -0.12389653729E+03  0.12389653729E+03  0.00000000000E+00 0.  1.
      99926    2    1    2    0    0  0.00000000000E+00 -0.17763568394E-14  0.30355555508E+03  0.55134862965E+03  0.46026007474E+03 0.  0.
         25    1    3    3    0    0 -0.39099728814E+02 -0.14529231890E+02 -0.21305944352E+02  0.13357147427E+03  0.12509000000E+03 0.  0.
         25    1    3    3    0    0  0.20918469232E+02  0.86446987281E+01  0.21704999442E+03  0.25153632213E+03  0.12509000000E+03 0.  0.
         25    1    3    3    0    0  0.18181259581E+02  0.58845331618E+01  0.10781150501E+03  0.16624083326E+03  0.12509000000E+03 0.  0.
<mgrwt>
<rscale>  2 0.46026007E+03</rscale>
<asrwt>0</asrwt>
<pdfrwt beam="1">  1       21 0.62860602E-01 0.46026007E+03</pdfrwt>
<pdfrwt beam="2">  1       21 0.18220079E-01 0.46026007E+03</pdfrwt>
<totfact> 0.59272014E+04</totfact>
</mgrwt>
</event>
<event>
 6    0  0.1572624E-007  0.4557230E+03  0.7546771E-02  0.1026029E+00
         21   -1    0    0  502  501  0.00000000000E+00  0.00000000000E+00  0.12492239753E+04  0.12492239753E+04  0.00000000000E+00 0. -1.
         21   -1    0    0  501  502 -0.00000000000E+00 -0.00000000000E+00 -0.41562485685E+02  0.41562485685E+02  0.00000000000E+00 0. -1.
      99926    2    1    2    0    0  0.35527136788E-14 -0.35527136788E-14  0.12076614896E+04  0.12907864610E+04  0.45572295791E+03 0.  0.
         25    1    3    3    0    0 -0.32072034999E+02 -0.22494050147E+02  0.36081383271E+03  0.38388634737E+03  0.12509000000E+03 0.  0.
         25    1    3    3    0    0  0.51342767715E+02 -0.81506714708E+01  0.16866557023E+03  0.21632867569E+03  0.12509000000E+03 0.  0.
         25    1    3    3    0    0 -0.19270732716E+02  0.30644721618E+02  0.67818208671E+03  0.69057143796E+03  0.12509000000E+03 0.  0.
<mgrwt>
<rscale>  2 0.45572296E+03</rscale>
<asrwt>0</asrwt>
<pdfrwt beam="1">  1       21 0.18370938E+00 0.45572296E+03</pdfrwt>
<pdfrwt beam="2">  1       21 0.61121311E-02 0.45572296E+03</pdfrwt>
<totfact> 0.29218853E+04</totfact>
</mgrwt>
</event>
<event>
 6    0  0.1572624E-007  0.4531587E+03  0.7546771E-02  0.1026784E+00
         21   -1    0    0  502  501  0.00000000000E+00  0.00000000000E+00  0.15584287460E+03  0.15584287460E+03  0.00000000000E+00 0.  1.
         21   -1    0    0  501  502 -0.00000000000E+00 -0.00000000000E+00 -0.32942279190E+03  0.32942279190E+03  0.00000000000E+00 0.  1.
      99926    2    1    2    0    0  0.17763568394E-14 -0.14210854715E-13 -0.17357991729E+03  0.48526566650E+03  0.45315866912E+03 0.  0.
         25    1    3    3    0    0  0.59417650797E+01 -0.10272214920E+03 -0.42943558223E+02  0.16756730529E+03  0.12509000000E+03 0.  0.
         25    1    3    3    0    0  0.12760374027E+02  0.63756790594E+01 -0.86289266021E+02  0.15263296485E+03  0.12509000000E+03 0.  0.
         25    1    3    3    0    0 -0.18702139107E+02  0.96346470136E+02 -0.44347093047E+02  0.16506539636E+03  0.12509000000E+03 0.  0.
<mgrwt>
<rscale>  2 0.45315867E+03</rscale>
<asrwt>0</asrwt>
<pdfrwt beam="1">  1       21 0.22918070E-01 0.45315867E+03</pdfrwt>
<pdfrwt beam="2">  1       21 0.48444528E-01 0.45315867E+03</pdfrwt>
<totfact> 0.67297096E+04</totfact>
</mgrwt>
</event>
<event>
 6    0  0.1572624E-007  0.4551800E+03  0.7546771E-02  0.1026188E+00
         21   -1    0    0  502  501  0.00000000000E+00  0.00000000000E+00  0.33252359084E+02  0.33252359084E+02  0.00000000000E+00 0.  1.
         21   -1    0    0  501  502 -0.00000000000E+00 -0.00000000000E+00 -0.15577002939E+04  0.15577002939E+04  0.00000000000E+00 0.  1.
      99926    2    1    2    0    0 -0.71054273576E-14  0.00000000000E+00 -0.15244479348E+04  0.15909526530E+04  0.45518000624E+03 0.  0.
         25    1    3    3    0    0 -0.36675166540E+02  0.17067811385E+02 -0.41532291807E+03  0.43563403494E+03  0.12509000000E+03 0.  0.
         25    1    3    3    0    0  0.67384664733E+02 -0.12213388225E+02 -0.88792105975E+03  0.89930038159E+03  0.12509000000E+03 0.  0.
         25    1    3    3    0    0 -0.30709498193E+02 -0.48544231596E+01 -0.22120395702E+03  0.25601823647E+03  0.12509000000E+03 0.  0.
<mgrwt>
<rscale>  2 0.45518001E+03</rscale>
<asrwt>0</asrwt>
<pdfrwt beam="1">  1       21 0.48900515E-02 0.45518001E+03</pdfrwt>
<pdfrwt beam="2">  1       21 0.22907363E+00 0.45518001E+03</pdfrwt>
<totfact> 0.21604767E+04</totfact>
</mgrwt>
</event>
<event>
 6    0  0.1572624E-007  0.4573334E+03  0.7546771E-02  0.1025557E+00
         21   -1    0    0  502  501  0.00000000000E+00  0.00000000000E+00  0.42656379696E+03  0.42656379696E+03  0.00000000000E+00 0. -1.
         21   -1    0    0  501  502 -0.00000000000E+00 -0.00000000000E+00 -0.12258060840E+03  0.12258060840E+03  0.00000000000E+00 0. -1.
      99926    2    1    2    0    0  0.77715611724E-15  0.00000000000E+00  0.30398318856E+03  0.54914440537E+03  0.45733335656E+03 0.  0.
         25    1    3    3    0    0 -0.28938533176E+02 -0.15523477839E+02  0.18129175287E+01  0.12934145444E+03  0.12509000000E+03 0.  0.
         25    1    3    3    0    0  0.28092587069E+02  0.74506496005E+02  0.19424427439E+03  0.24437421637E+03  0.12509000000E+03 0.  0.
         25    1    3    3    0    0  0.84594610699E+00 -0.58983018166E+02  0.10792599664E+03  0.17542873456E+03  0.12509000000E+03 0.  0.
<mgrwt>
<rscale>  2 0.45733336E+03</rscale>
<asrwt>0</asrwt>
<pdfrwt beam="1">  1       21 0.62729970E-01 0.45733336E+03</pdfrwt>
<pdfrwt beam="2">  1       21 0.18026560E-01 0.45733336E+03</pdfrwt>
<totfact> 0.60792941E+04</totfact>
</mgrwt>
</event>
<event>
 6    0  0.1572624E-007  0.4666826E+03  0.7546771E-02  0.1022861E+00
         21   -1    0    0  502  501  0.00000000000E+00  0.00000000000E+00  0.28137929210E+03  0.28137929210E+03  0.00000000000E+00 0.  1.
         21   -1    0    0  501  502 -0.00000000000E+00 -0.00000000000E+00 -0.19350450751E+03  0.19350450751E+03  0.00000000000E+00 0.  1.
      99926    2    1    2    0    0  0.00000000000E+00  0.00000000000E+00  0.87874784587E+02  0.47488379962E+03  0.46668259596E+03 0.  0.
         25    1    3    3    0    0 -0.14533601065E+02  0.36870889686E+02 -0.25602339711E+02  0.13369246787E+03  0.12509000000E+03 0.  0.
         25    1    3    3    0    0  0.54314332421E+02  0.44410407891E+02 -0.96046639123E+01  0.14374313446E+03  0.12509000000E+03 0.  0.
         25    1    3    3    0    0 -0.39780731356E+02 -0.81281297578E+02  0.12308178821E+03  0.19744819729E+03  0.12509000000E+03 0.  0.
<mgrwt>
<rscale>  2 0.46668260E+03</rscale>
<asrwt>0</asrwt>
<pdfrwt beam="1">  1       21 0.41379308E-01 0.46668260E+03</pdfrwt>
<pdfrwt beam="2">  1       21 0.28456545E-01 0.46668260E+03</pdfrwt>
<totfact> 0.61198784E+04</totfact>
</mgrwt>
</event>
<event>
 6    0  0.1572624E-007  0.4578363E+03  0.7546771E-02  0.1025411E+00
         21   -1    0    0  502  501  0.00000000000E+00  0.00000000000E+00  0.92931955475E+02  0.92931955475E+02  0.00000000000E+00 0.  1.
         21   -1    0    0  501  502 -0.00000000000E+00 -0.00000000000E+00 -0.56389123634E+03  0.56389123634E+03  0.00000000000E+00 0.  1.
      99926    2    1    2    0    0  0.00000000000E+00  0.00000000000E+00 -0.47095928087E+03  0.65682319182E+03  0.45783628195E+03 0.  0.
         25    1    3    3    0    0  0.11132412515E+01 -0.10195894821E+03 -0.10784569626E+03  0.19410066648E+03  0.12509000000E+03 0.  0.
         25    1    3    3    0    0  0.15776305894E+02  0.57790877551E+02 -0.25688791965E+03  0.29193764525E+03  0.12509000000E+03 0.  0.
         25    1    3    3    0    0 -0.16889547145E+02  0.44168070659E+02 -0.10622566496E+03  0.17078488008E+03  0.12509000000E+03 0.  0.
<mgrwt>
<rscale>  2 0.45783628E+03</rscale>
<asrwt>0</asrwt>
<pdfrwt beam="1">  1       21 0.13666464E-01 0.45783628E+03</pdfrwt>
<pdfrwt beam="2">  1       21 0.82925180E-01 0.45783628E+03</pdfrwt>
<totfact> 0.54089887E+04</totfact>
</mgrwt>
</event>
<event>
 6    0  0.1572624E-007  0.4608791E+03  0.7546771E-02  0.1024527E+00
         21   -1    0    0  502  501  0.00000000000E+00  0.00000000000E+00  0.34202162387E+03  0.34202162387E+03  0.00000000000E+00 0. -1.
         21   -1    0    0  501  502 -0.00000000000E+00 -0.00000000000E+00 -0.15526033766E+03  0.15526033766E+03  0.00000000000E+00 0. -1.
      99926    2    1    2    0    0 -0.71054273576E-14 -0.14210854715E-13  0.18676128622E+03  0.49728196153E+03  0.46087912866E+03 0.  0.
         25    1    3    3    0    0 -0.97139919135E+01  0.55028462999E+02  0.29988984071E+02  0.14024742652E+03  0.12509000000E+03 0.  0.
         25    1    3    3    0    0 -0.42379127647E+02 -0.11033285588E+03  0.10601060362E+03  0.20212641026E+03  0.12509000000E+03 0.  0.
         25    1    3    3    0    0  0.52093119561E+02  0.55304392879E+02  0.50761698530E+02  0.15490812475E+03  0.12509000000E+03 0.  0.
<mgrwt>
<rscale>  2 0.46087913E+03</rscale>
<asrwt>0</asrwt>
<pdfrwt beam="1">  1       21 0.50297298E-01 0.46087913E+03</pdfrwt>
<pdfrwt beam="2">  1       21 0.22832403E-01 0.46087913E+03</pdfrwt>
<totfact> 0.62493994E+04</totfact>
</mgrwt>
</event>
<event>
 6    0  0.1572624E-007  0.4563056E+03  0.7546771E-02  0.1025858E+00
         21   -1    0    0  502  501  0.00000000000E+00  0.00000000000E+00  0.26252427643E+03  0.26252427643E+03  0.00000000000E+00 0. -1.
         21   -1    0    0  501  502 -0.00000000000E+00 -0.00000000000E+00 -0.19828147280E+03  0.19828147280E+03  0.00000000000E+00 0. -1.
      99926    2    1    2    0    0 -0.17763568394E-14 -0.71054273576E-14  0.64242803636E+02  0.46080574923E+03  0.45630560013E+03 0.  0.
         25    1    3    3    0    0 -0.81353851852E+01  0.50975774326E+02 -0.71317280804E+02  0.15296527940E+03  0.12509000000E+03 0.  0.
         25    1    3    3    0    0 -0.29643018677E+02 -0.66560076204E+02  0.68890664779E+02  0.16031963103E+03  0.12509000000E+03 0.  0.
         25    1    3    3    0    0  0.37778403862E+02  0.15584301878E+02  0.66669419661E+02  0.14752083880E+03  0.12509000000E+03 0.  0.
<mgrwt>
<rscale>  2 0.45630560E+03</rscale>
<asrwt>0</asrwt>
<pdfrwt beam="1">  1       21 0.38606511E-01 0.45630560E+03</pdfrwt>
<pdfrwt beam="2">  1       21 0.29159040E-01 0.45630560E+03</pdfrwt>
<totfact> 0.67417218E+04</totfact>
</mgrwt>
</event>
<event>
 6    0  0.1572624E-007  0.4558017E+03  0.7546771E-02  0.1026006E+00
         21   -1    0    0  502  501  0.00000000000E+00  0.00000000000E+00  0.20438081507E+03  0.20438081507E+03  0.00000000000E+00 0. -1.
         21   -1    0    0  501  502 -0.00000000000E+00 -0.00000000000E+00 -0.25412761227E+03  0.25412761227E+03  0.00000000000E+00 0. -1.
      99926    2    1    2    0    0  0.00000000000E+00  0.71054273576E-14 -0.49746797195E+02  0.45850842735E+03  0.45580174870E+03 0.  0.
         25    1    3    3    0    0 -0.38852611474E+02  0.54534804833E+02 -0.19634349011E+02  0.14323612016E+03  0.12509000000E+03 0.  0.
         25    1    3    3    0    0 -0.66772652727E+02 -0.23114770423E+02 -0.37228961815E+02  0.14841288172E+03  0.12509000000E+03 0.  0.
         25    1    3    3    0    0  0.10562526420E+03 -0.31420034410E+02  0.71165136317E+01  0.16685942546E+03  0.12509000000E+03 0.  0.
<mgrwt>
<rscale>  2 0.45580175E+03</rscale>
<asrwt>0</asrwt>
<pdfrwt beam="1">  1       21 0.30056003E-01 0.45580175E+03</pdfrwt>
<pdfrwt beam="2">  1       21 0.37371707E-01 0.45580175E+03</pdfrwt>
<totfact> 0.67854393E+04</totfact>
</mgrwt>
</event>
<event>
 6    0  0.1572624E-007  0.4567244E+03  0.7546771E-02  0.1025736E+00
         21   -1    0    0  502  501  0.00000000000E+00  0.00000000000E+00  0.14997945024E+04  0.14997945024E+04  0.00000000000E+00 0.  1.
         21   -1    0    0  501  502 -0.00000000000E+00 -0.00000000000E+00 -0.34770961447E+02  0.34770961447E+02  0.00000000000E+00 0.  1.
      99926    2    1    2    0    0  0.00000000000E+00 -0.14210854715E-13  0.14650235410E+04  0.15345654639E+04  0.45672441065E+03 0.  0.
         25    1    3    3    0    0 -0.21525213173E+02 -0.36031978567E+02  0.62562753339E+03  0.63938951893E+03  0.12509000000E+03 0.  0.
         25    1    3    3    0    0  0.18622723633E+02 -0.71549192681E+02  0.36249328808E+03  0.39053166941E+03  0.12509000000E+03 0.  0.
         25    1    3    3    0    0  0.29024895408E+01  0.10758117125E+03  0.47690271951E+03  0.50464427553E+03  0.12509000000E+03 0.  0.
<mgrwt>
<rscale>  2 0.45672441E+03</rscale>
<asrwt>0</asrwt>
<pdfrwt beam="1">  1       21 0.22055797E+00 0.45672441E+03</pdfrwt>
<pdfrwt beam="2">  1       21 0.51133777E-02 0.45672441E+03</pdfrwt>
<totfact> 0.22639834E+04</totfact>
</mgrwt>
</event>
<event>
 6    0  0.1572624E-007  0.4524330E+03  0.7546771E-02  0.1026999E+00
         21   -1    0    0  502  501  0.00000000000E+00  0.00000000000E+00  0.13434287884E+04  0.13434287884E+04  0.00000000000E+00 0. -1.
         21   -1    0    0  501  502 -0.00000000000E+00 -0.00000000000E+00 -0.38092019825E+02  0.38092019825E+02  0.00000000000E+00 0. -1.
      99926    2    1    2    0    0  0.00000000000E+00  0.00000000000E+00  0.13053367686E+04  0.13815208082E+04  0.45243304937E+03 0.  0.
         25    1    3    3    0    0 -0.13521934809E+02 -0.47164584363E+02  0.46552067165E+03  0.48452486476E+03  0.12509000000E+03 0.  0.
         25    1    3    3    0    0 -0.76970114724E+02  0.27534036018E+02  0.29945741766E+03  0.33467114425E+03  0.12509000000E+03 0.  0.
         25    1    3    3    0    0  0.90492049532E+02  0.19630548345E+02  0.54035867929E+03  0.56232479924E+03  0.12509000000E+03 0.  0.
<mgrwt>
<rscale>  2 0.45243305E+03</rscale>
<asrwt>0</asrwt>
<pdfrwt beam="1">  1       21 0.19756303E+00 0.45243305E+03</pdfrwt>
<pdfrwt beam="2">  1       21 0.56017685E-02 0.45243305E+03</pdfrwt>
<totfact> 0.27370625E+04</totfact>
</mgrwt>
</event>
<event>
 6    0  0.1572624E-007  0.4648635E+03  0.7546771E-02  0.1023380E+00
         21   -1    0    0  502  501  0.00000000000E+00  0.00000000000E+00  0.13457318744E+03  0.13457318744E+03  0.00000000000E+00 0.  1.
         21   -1    0    0  501  502 -0.00000000000E+00 -0.00000000000E+00 -0.40145091977E+03  0.40145091977E+03  0.00000000000E+00 0.  1.
      99926    2    1    2    0    0  0.00000000000E+00 -0.71054273576E-14 -0.26687773233E+03  0.53602410722E+03  0.46486354934E+03 0.  0.
         25    1    3    3    0    0  0.55300280151E+02 -0.37273389915E+02 -0.16568423387E+03  0.21805091156E+03  0.12509000000E+03 0.  0.
         25    1    3    3    0    0 -0.11373111508E+02 -0.79450496387E+01 -0.12326704016E+03  0.17616680382E+03  0.12509000000E+03 0.  0.
         25    1    3    3    0    0 -0.43927168644E+02  0.45218439553E+02  0.22073541703E+02  0.14180639183E+03  0.12509000000E+03 0.  0.
<mgrwt>
<rscale>  2 0.46486355E+03</rscale>
<asrwt>0</asrwt>
<pdfrwt beam="1">  1       21 0.19790174E-01 0.46486355E+03</pdfrwt>
<pdfrwt beam="2">  1       21 0.59036901E-01 0.46486355E+03</pdfrwt>
<totfact> 0.58122011E+04</totfact>
</mgrwt>
</event>
<event>
 6    0  0.1572624E-007  0.4600487E+03  0.7546771E-02  0.1024767E+00
         21   -1    0    0  502  501  0.00000000000E+00  0.00000000000E+00  0.64504380031E+03  0.64504380031E+03  0.00000000000E+00 0. -1.
         21   -1    0    0  501  502 -0.00000000000E+00 -0.00000000000E+00 -0.82027312212E+02  0.82027312212E+02  0.00000000000E+00 0. -1.
      99926    2    1    2    0    0  0.00000000000E+00 -0.14210854715E-13  0.56301648810E+03  0.72707111252E+03  0.46004873306E+03 0.  0.
         25    1    3    3    0    0 -0.16166617245E+02  0.81393768363E+02  0.21668532978E+03  0.26360262761E+03  0.12509000000E+03 0.  0.
         25    1    3    3    0    0  0.55120007318E+02 -0.90448145373E+02  0.12510547420E+03  0.20619886028E+03  0.12509000000E+03 0.  0.
         25    1    3    3    0    0 -0.38953390073E+02  0.90543770097E+01  0.22122568412E+03  0.25726962463E+03  0.12509000000E+03 0.  0.
<mgrwt>
<rscale>  2 0.46004873E+03</rscale>
<asrwt>0</asrwt>
<pdfrwt beam="1">  1       21 0.94859380E-01 0.46004873E+03</pdfrwt>
<pdfrwt beam="2">  1       21 0.12062840E-01 0.46004873E+03</pdfrwt>
<totfact> 0.49464339E+04</totfact>
</mgrwt>
</event>
<event>
 6    0  0.1572624E-007  0.4732096E+03  0.7546771E-02  0.1021018E+00
         21   -1    0    0  502  501  0.00000000000E+00  0.00000000000E+00  0.65997501415E+02  0.65997501415E+02  0.00000000000E+00 0.  1.
         21   -1    0    0  501  502 -0.00000000000E+00 -0.00000000000E+00 -0.84824169466E+03  0.84824169466E+03  0.00000000000E+00 0.  1.
      99926    2    1    2    0    0  0.00000000000E+00  0.00000000000E+00 -0.78224419324E+03  0.91423919607E+03  0.47320960448E+03 0.  0.
         25    1    3    3    0    0 -0.83296559904E+01 -0.86680602975E+01 -0.10546431483E+03  0.16405714931E+03  0.12509000000E+03 0.  0.
         25    1    3    3    0    0 -0.67547171799E+02  0.39282368577E+02 -0.18736665572E+03  0.23845229434E+03  0.12509000000E+03 0.  0.
         25    1    3    3    0    0  0.75876827789E+02 -0.30614308280E+02 -0.48941322270E+03  0.51172975242E+03  0.12509000000E+03 0.  0.
<mgrwt>
<rscale>  2 0.47320960E+03</rscale>
<asrwt>0</asrwt>
<pdfrwt beam="1">  1       21 0.97055154E-02 0.47320960E+03</pdfrwt>
<pdfrwt beam="2">  1       21 0.12474142E+00 0.47320960E+03</pdfrwt>
<totfact> 0.37052817E+04</totfact>
</mgrwt>
</event>
<event>
 6    0  0.1572624E-007  0.4698913E+03  0.7546771E-02  0.1021951E+00
         21   -1    0    0  502  501  0.00000000000E+00  0.00000000000E+00  0.12254525835E+04  0.12254525835E+04  0.00000000000E+00 0. -1.
         21   -1    0    0  501  502 -0.00000000000E+00 -0.00000000000E+00 -0.45044142016E+02  0.45044142016E+02  0.00000000000E+00 0. -1.
      99926    2    1    2    0    0 -0.71054273576E-14  0.71054273576E-14  0.11804084415E+04  0.12704967255E+04  0.46989130745E+03 0.  0.
         25    1    3    3    0    0  0.96981616980E+02  0.49250889663E+02  0.29807753646E+03  0.34107009544E+03  0.12509000000E+03 0.  0.
         25    1    3    3    0    0 -0.34454863649E+02  0.35017868171E+01  0.54874689374E+03  0.56388834145E+03  0.12509000000E+03 0.  0.
         25    1    3    3    0    0 -0.62526753331E+02 -0.52752676480E+02  0.33358401126E+03  0.36553828860E+03  0.12509000000E+03 0.  0.
<mgrwt>
<rscale>  2 0.46989131E+03</rscale>
<asrwt>0</asrwt>
<pdfrwt beam="1">  1       21 0.18021359E+00 0.46989131E+03</pdfrwt>
<pdfrwt beam="2">  1       21 0.66241393E-02 0.46989131E+03</pdfrwt>
<totfact> 0.26746706E+04</totfact>
</mgrwt>
</event>
<event>
 6    0  0.1572624E-007  0.4592272E+03  0.7546771E-02  0.1025006E+00
         21   -1    0    0  502  501  0.00000000000E+00  0.00000000000E+00  0.56132007756E+02  0.56132007756E+02  0.00000000000E+00 0.  1.
         21   -1    0    0  501  502 -0.00000000000E+00 -0.00000000000E+00 -0.93925762722E+03  0.93925762722E+03  0.00000000000E+00 0.  1.
      99926    2    1    2    0    0  0.00000000000E+00  0.00000000000E+00 -0.88312561947E+03  0.99538963498E+03  0.45922724839E+03 0.  0.
         25    1    3    3    0    0 -0.92759332660E+02  0.35114669078E+01 -0.16611375832E+03  0.22772332555E+03  0.12509000000E+03 0.  0.
         25    1    3    3    0    0  0.39438830163E+02 -0.20726887588E+01 -0.43897274646E+03  0.45815313771E+03  0.12509000000E+03 0.  0.
         25    1    3    3    0    0  0.53320502498E+02 -0.14387781490E+01 -0.27803911469E+03  0.30951317172E+03  0.12509000000E+03 0.  0.
<mgrwt>
<rscale>  2 0.45922725E+03</rscale>
<asrwt>0</asrwt>
<pdfrwt beam="1">  1       21 0.82547070E-02 0.45922725E+03</pdfrwt>
<pdfrwt beam="2">  1       21 0.13812612E+00 0.45922725E+03</pdfrwt>
<totfact> 0.38073911E+04</totfact>
</mgrwt>
</event>
<event>
 6    0  0.1572624E-007  0.4483392E+03  0.7546771E-02  0.1028218E+00
         21   -1    0    0  502  501  0.00000000000E+00  0.00000000000E+00  0.50797006915E+03  0.50797006915E+03  0.00000000000E+00 0. -1.
         21   -1    0    0  501  502 -0.00000000000E+00 -0.00000000000E+00 -0.98927101251E+02  0.98927101251E+02  0.00000000000E+00 0. -1.
      99926    2    1    2    0    0  0.00000000000E+00  0.00000000000E+00  0.40904296790E+03  0.60689717040E+03  0.44833918617E+03 0.  0.
         25    1    3    3    0    0 -0.65078532435E+02 -0.34360461217E+02  0.24730188412E+03  0.28674306734E+03  0.12509000000E+03 0.  0.
         25    1    3    3    0    0  0.69028078228E+01 -0.20371270472E+02  0.87837589126E+02  0.15435539375E+03  0.12509000000E+03 0.  0.
         25    1    3    3    0    0  0.58175724613E+02  0.54731731689E+02  0.73903494659E+02  0.16579870932E+03  0.12509000000E+03 0.  0.
<mgrwt>
<rscale>  2 0.44833919E+03</rscale>
<asrwt>0</asrwt>
<pdfrwt beam="1">  1       21 0.74701480E-01 0.44833919E+03</pdfrwt>
<pdfrwt beam="2">  1       21 0.14548103E-01 0.44833919E+03</pdfrwt>
<totfact> 0.61424410E+04</totfact>
</mgrwt>
</event>
<event>
 6    0  0.1572624E-007  0.4556944E+03  0.7546771E-02  0.1026037E+00
         21   -1    0    0  502  501  0.00000000000E+00  0.00000000000E+00  0.28506340053E+03  0.28506340053E+03  0.00000000000E+00 0.  1.
         21   -1    0    0  501  502 -0.00000000000E+00 -0.00000000000E+00 -0.18211509212E+03  0.18211509212E+03  0.00000000000E+00 0.  1.
      99926    2    1    2    0    0  0.17763568394E-14  0.00000000000E+00  0.10294830841E+03  0.46717849265E+03  0.45569440395E+03 0.  0.
         25    1    3    3    0    0  0.14392773756E+02 -0.50602213646E+02 -0.16229641917E+02  0.13666984063E+03  0.12509000000E+03 0.  0.
         25    1    3    3    0    0  0.24607724671E+02 -0.37193604773E+02  0.11013095546E+03  0.17252605543E+03  0.12509000000E+03 0.  0.
         25    1    3    3    0    0 -0.39000498427E+02  0.87795818419E+02  0.90469948631E+01  0.15798259659E+03  0.12509000000E+03 0.  0.
<mgrwt>
<rscale>  2 0.45569440E+03</rscale>
<asrwt>0</asrwt>
<pdfrwt beam="1">  1       21 0.41921088E-01 0.45569440E+03</pdfrwt>
<pdfrwt beam="2">  1       21 0.26781631E-01 0.45569440E+03</pdfrwt>
<totfact> 0.67275150E+04</totfact>
</mgrwt>
</event>
<event>
 6    0  0.1572624E-007  0.4644880E+03  0.7546771E-02  0.1023488E+00
         21   -1    0    0  502  501  0.00000000000E+00  0.00000000000E+00  0.19135692899E+03  0.19135692899E+03  0.00000000000E+00 0.  1.
         21   -1    0    0  501  502 -0.00000000000E+00 -0.00000000000E+00 -0.28186737302E+03  0.28186737302E+03  0.00000000000E+00 0.  1.
      99926    2    1    2    0    0 -0.35527136788E-14 -0.71054273576E-14 -0.90510444028E+02  0.47322430202E+03  0.46448799720E+03 0.  0.
         25    1    3    3    0    0  0.35560715786E+02  0.84771855664E+02 -0.66193469252E+01  0.15537746257E+03  0.12509000000E+03 0.  0.
         25    1    3    3    0    0 -0.10001982715E+02 -0.50258694510E+02 -0.11999039983E+03  0.18075170866E+03  0.12509000000E+03 0.  0.
         25    1    3    3    0    0 -0.25558733071E+02 -0.34513161154E+02  0.36099302728E+02  0.13709513079E+03  0.12509000000E+03 0.  0.
<mgrwt>
<rscale>  2 0.46448800E+03</rscale>
<asrwt>0</asrwt>
<pdfrwt beam="1">  1       21 0.28140725E-01 0.46448800E+03</pdfrwt>
<pdfrwt beam="2">  1       21 0.41451084E-01 0.46448800E+03</pdfrwt>
<totfact> 0.62365866E+04</totfact>
</mgrwt>
</event>
<event>
 6    0  0.1572624E-007  0.4591437E+03  0.7546771E-02  0.1025030E+00
         21   -1    0    0  502  501  0.00000000000E+00  0.00000000000E+00  0.38591212603E+03  0.38591212603E+03  0.00000000000E+00 0.  1.
         21   -1    0    0  501  502 -0.00000000000E+00 -0.00000000000E+00 -0.13656797009E+03  0.13656797009E+03  0.00000000000E+00 0.  1.
      99926    2    1    2    0    0  0.00000000000E+00  0.14210854715E-13  0.24934415594E+03  0.52248009612E+03  0.45914370598E+03 0.  0.
         25    1    3    3    0    0  0.57294723894E+02 -0.12263638780E+02  0.10851397403E+03  0.17565839827E+03  0.12509000000E+03 0.  0.
         25    1    3    3    0    0 -0.78329738597E+02 -0.72406481981E+02  0.75728493432E+02  0.18099878287E+03  0.12509000000E+03 0.  0.
         25    1    3    3    0    0  0.21035014703E+02  0.84670120761E+02  0.65101688479E+02  0.16582291499E+03  0.12509000000E+03 0.  0.
<mgrwt>
<rscale>  2 0.45914371E+03</rscale>
<asrwt>0</asrwt>
<pdfrwt beam="1">  1       21 0.56751783E-01 0.45914371E+03</pdfrwt>
<pdfrwt beam="2">  1       21 0.20083525E-01 0.45914371E+03</pdfrwt>
<totfact> 0.61666229E+04</totfact>
</mgrwt>
</event>
<event>
 6    0  0.1572624E-007  0.4840219E+03  0.7546771E-02  0.1018036E+00
         21   -1    0    0  502  501  0.00000000000E+00  0.00000000000E+00  0.16209405470E+03  0.16209405470E+03  0.00000000000E+00 0. -1.
         21   -1    0    0  501  502 -0.00000000000E+00 -0.00000000000E+00 -0.36132905201E+03  0.36132905201E+03  0.00000000000E+00 0. -1.
      99926    2    1    2    0    0  0.14210854715E-13 -0.17763568394E-14 -0.19923499731E+03  0.52342310671E+03  0.48402186364E+03 0.  0.
         25    1    3    3    0    0  0.12992363614E+03 -0.33576478860E+02 -0.12993461200E+03  0.22480667841E+03  0.12509000000E+03 0.  0.
         25    1    3    3    0    0 -0.52190482648E+02 -0.59401589564E+01 -0.13906062199E+02  0.13638188528E+03  0.12509000000E+03 0.  0.
         25    1    3    3    0    0 -0.77733153489E+02  0.39516637816E+02 -0.55394323109E+02  0.16223454302E+03  0.12509000000E+03 0.  0.
<mgrwt>
<rscale>  2 0.48402186E+03</rscale>
<asrwt>0</asrwt>
<pdfrwt beam="1">  1       21 0.23837362E-01 0.48402186E+03</pdfrwt>
<pdfrwt beam="2">  1       21 0.53136624E-01 0.48402186E+03</pdfrwt>
<totfact> 0.50884524E+04</totfact>
</mgrwt>
</event>
<event>
 6    0  0.1572624E-007  0.4562600E+03  0.7546771E-02  0.1025872E+00
         21   -1    0    0  502  501  0.00000000000E+00  0.00000000000E+00  0.29432288358E+03  0.29432288358E+03  0.00000000000E+00 0.  1.
         21   -1    0    0  501  502 -0.00000000000E+00 -0.00000000000E+00 -0.17682380922E+03  0.17682380922E+03  0.00000000000E+00 0.  1.
      99926    2    1    2    0    0 -0.71054273576E-14  0.00000000000E+00  0.11749907435E+03  0.47114669280E+03  0.45625998472E+03 0.  0.
         25    1    3    3    0    0 -0.51671962731E+02 -0.24054931212E+02  0.38280456026E+02  0.14269384311E+03  0.12509000000E+03 0.  0.
         25    1    3    3    0    0  0.49810913544E+01 -0.67970473131E+02  0.85554151209E+02  0.16616803958E+03  0.12509000000E+03 0.  0.
         25    1    3    3    0    0  0.46690871377E+02  0.92025404343E+02 -0.63355328815E+01  0.16228481011E+03  0.12509000000E+03 0.  0.
<mgrwt>
<rscale>  2 0.45625998E+03</rscale>
<asrwt>0</asrwt>
<pdfrwt beam="1">  1       21 0.43282777E-01 0.45625998E+03</pdfrwt>
<pdfrwt beam="2">  1       21 0.26003501E-01 0.45625998E+03</pdfrwt>
<totfact> 0.66681507E+04</totfact>
</mgrwt>
</event>
<event>
 6    0  0.1572624E-007  0.4512054E+03  0.7546771E-02  0.1027363E+00
         21   -1    0    0  502  501  0.00000000000E+00  0.00000000000E+00  0.44152926544E+02  0.44152926544E+02  0.00000000000E+00 0.  1.
         21   -1    0    0  501  502 -0.00000000000E+00 -0.00000000000E+00 -0.11527338361E+04  0.11527338361E+04  0.00000000000E+00 0.  1.
      99926    2    1    2    0    0  0.00000000000E+00  0.00000000000E+00 -0.11085809096E+04  0.11968867627E+04  0.45120537404E+03 0.  0.
         25    1    3    3    0    0 -0.32424550212E+02  0.21859897597E+02 -0.64808766301E+03  0.66120672534E+03  0.12509000000E+03 0.  0.
         25    1    3    3    0    0  0.40577481436E+02  0.25766782898E+02 -0.17640199753E+03  0.22153020546E+03  0.12509000000E+03 0.  0.
         25    1    3    3    0    0 -0.81529312235E+01 -0.47626680495E+02 -0.28409124904E+03  0.31414983187E+03  0.12509000000E+03 0.  0.
<mgrwt>
<rscale>  2 0.45120537E+03</rscale>
<asrwt>0</asrwt>
<pdfrwt beam="1">  1       21 0.64930767E-02 0.45120537E+03</pdfrwt>
<pdfrwt beam="2">  1       21 0.16951970E+00 0.45120537E+03</pdfrwt>
<totfact> 0.33226141E+04</totfact>
</mgrwt>
</event>
<event>
 6    0  0.1572624E-007  0.4367785E+03  0.7546771E-02  0.1031740E+00
         21   -1    0    0  502  501  0.00000000000E+00  0.00000000000E+00  0.71813073775E+03  0.71813073775E+03  0.00000000000E+00 0. -1.
         21   -1    0    0  501  502 -0.00000000000E+00 -0.00000000000E+00 -0.66413905632E+02  0.66413905632E+02  0.00000000000E+00 0. -1.
      99926    2    1    2    0    0  0.13322676296E-14  0.00000000000E+00  0.65171683212E+03  0.78454464338E+03  0.43677851160E+03 0.  0.
         25    1    3    3    0    0  0.10357290511E+02  0.46184804456E+02  0.99981043836E+02  0.16698510968E+03  0.12509000000E+03 0.  0.
         25    1    3    3    0    0 -0.14312032597E+02  0.31644965810E+02  0.27093764212E+03  0.30043460546E+03  0.12509000000E+03 0.  0.
         25    1    3    3    0    0  0.39547420855E+01 -0.77829770265E+02  0.28079814616E+03  0.31712492824E+03  0.12509000000E+03 0.  0.
<mgrwt>
<rscale>  2 0.43677851E+03</rscale>
<asrwt>0</asrwt>
<pdfrwt beam="1">  1       21 0.10560746E+00 0.43677851E+03</pdfrwt>
<pdfrwt beam="2">  1       21 0.97667512E-02 0.43677851E+03</pdfrwt>
<totfact> 0.56128841E+04</totfact>
</mgrwt>
</event>
<event>
 6    0  0.1572624E-007  0.4565850E+03  0.7546771E-02  0.1025776E+00
         21   -1    0    0  502  501  0.00000000000E+00  0.00000000000E+00  0.10449985048E+03  0.10449985048E+03  0.00000000000E+00 0. -1.
         21   -1    0    0  501  502 -0.00000000000E+00 -0.00000000000E+00 -0.49873234700E+03  0.49873234700E+03  0.00000000000E+00 0. -1.
      99926    2    1    2    0    0 -0.35527136788E-14  0.71054273576E-14 -0.39423249652E+03  0.60323219747E+03  0.45658495678E+03 0.  0.
         25    1    3    3    0    0 -0.47616594381E+02 -0.33745285458E+02 -0.18312583328E+03  0.22932218223E+03  0.12509000000E+03 0.  0.
         25    1    3    3    0    0  0.38877530074E+02  0.67833506618E+02 -0.29230853279E+02  0.15038217264E+03  0.12509000000E+03 0.  0.
         25    1    3    3    0    0  0.87390643070E+01 -0.34088221160E+02 -0.18187580996E+03  0.22352784260E+03  0.12509000000E+03 0.  0.
<mgrwt>
<rscale>  2 0.45658496E+03</rscale>
<asrwt>0</asrwt>
<pdfrwt beam="1">  1       21 0.15367625E-01 0.45658496E+03</pdfrwt>
<pdfrwt beam="2">  1       21 0.73342992E-01 0.45658496E+03</pdfrwt>
<totfact> 0.57753164E+04</totfact>
</mgrwt>
</event>
<event>
 6    0  0.1572624E-007  0.4306346E+03  0.7546771E-02  0.1033660E+00
         21   -1    0    0  502  501  0.00000000000E+00  0.00000000000E+00  0.59154829830E+03  0.59154829830E+03  0.00000000000E+00 0.  1.
         21   -1    0    0  501  502 -0.00000000000E+00 -0.00000000000E+00 -0.78373209608E+02  0.78373209608E+02  0.00000000000E+00 0.  1.
      99926    2    1    2    0    0  0.00000000000E+00  0.88817841970E-15  0.51317508869E+03  0.66992150791E+03  0.43063459580E+03 0.  0.
         25    1    3    3    0    0 -0.27435400159E+02 -0.29860959909E+02  0.28506792529E+03  0.31393567532E+03  0.12509000000E+03 0.  0.
         25    1    3    3    0    0  0.58825672548E+02  0.22856743119E+02  0.88114166845E+02  0.16551285435E+03  0.12509000000E+03 0.  0.
         25    1    3    3    0    0 -0.31390272389E+02  0.70042167906E+01  0.13999299655E+03  0.19047297823E+03  0.12509000000E+03 0.  0.
<mgrwt>
<rscale>  2 0.43063460E+03</rscale>
<asrwt>0</asrwt>
<pdfrwt beam="1">  1       21 0.86992395E-01 0.43063460E+03</pdfrwt>
<pdfrwt beam="2">  1       21 0.11525472E-01 0.43063460E+03</pdfrwt>
<totfact> 0.66426488E+04</totfact>
</mgrwt>
</event>
<event>
 6    0  0.1572624E-007  0.4539354E+03  0.7546771E-02  0.1026555E+00
         21   -1    0    0  502  501  0.00000000000E+00  0.00000000000E+00  0.16520959927E+03  0.16520959927E+03  0.00000000000E+00 0. -1.
         21   -1    0    0  501  502 -0.00000000000E+00 -0.00000000000E+00 -0.31181207425E+03  0.31181207425E+03  0.00000000000E+00 0. -1.
      99926    2    1    2    0    0  0.35527136788E-14  0.00000000000E+00 -0.14660247498E+03  0.47702167352E+03  0.45393544843E+03 0.  0.
         25    1    3    3    0    0 -0.28264151740E+02 -0.25295889599E+02 -0.80243298007E+02  0.15337939653E+03  0.12509000000E+03 0.  0.
         25    1    3    3    0    0  0.72375630548E+02  0.16083776047E+02 -0.11148881878E+03  0.18323259689E+03  0.12509000000E+03 0.  0.
         25    1    3    3    0    0 -0.44111478808E+02  0.92121135518E+01  0.45129641802E+02  0.14040968011E+03  0.12509000000E+03 0.  0.
<mgrwt>
<rscale>  2 0.45393545E+03</rscale>
<asrwt>0</asrwt>
<pdfrwt beam="1">  1       21 0.24295530E-01 0.45393545E+03</pdfrwt>
<pdfrwt beam="2">  1       21 0.45854716E-01 0.45393545E+03</pdfrwt>
<totfact> 0.67485937E+04</totfact>
</mgrwt>
</event>
<event>
 6    0  0.1572624E-007  0.4509230E+03  0.7546771E-02  0.1027447E+00
         21   -1    0    0  502  501  0.00000000000E+00  0.00000000000E+00  0.29664048709E+02  0.29664048709E+02  0.00000000000E+00 0. -1.
         21   -1    0    0  501  502 -0.00000000000E+00 -0.00000000000E+00 -0.17136190153E+04  0.17136190153E+04  0.00000000000E+00 0. -1.
      99926    2    1    2    0    0  0.16375789613E-14 -0.14210854715E-13 -0.16839549666E+04  0.17432830640E+04  0.45092295545E+03 0.  0.
         25    1    3    3    0    0 -0.13772076643E+02  0.34565860063E+02 -0.35725158799E+03  0.38034283745E+03  0.12509000000E+03 0.  0.
         25    1    3    3    0    0 -0.16350542261E+00 -0.10327772424E+03 -0.56357940084E+03  0.58646019832E+03  0.12509000000E+03 0.  0.
         25    1    3    3    0    0  0.13935582066E+02  0.68711864180E+02 -0.76312397772E+03  0.77648002821E+03  0.12509000000E+03 0.  0.
<mgrwt>
<rscale>  2 0.45092296E+03</rscale>
<asrwt>0</asrwt>
<pdfrwt beam="1">  1       21 0.43623600E-02 0.45092296E+03</pdfrwt>
<pdfrwt beam="2">  1       21 0.25200280E+00 0.45092296E+03</pdfrwt>
<totfact> 0.18968497E+04</totfact>
</mgrwt>
</event>
<event>
 6    0  0.1572624E-007  0.4516692E+03  0.7546771E-02  0.1027225E+00
         21   -1    0    0  502  501  0.00000000000E+00  0.00000000000E+00  0.69961655872E+02  0.69961655872E+02  0.00000000000E+00 0.  1.
         21   -1    0    0  501  502 -0.00000000000E+00 -0.00000000000E+00 -0.72898880334E+03  0.72898880334E+03  0.00000000000E+00 0.  1.
      99926    2    1    2    0    0  0.00000000000E+00  0.00000000000E+00 -0.65902714747E+03  0.79895045921E+03  0.45166918776E+03 0.  0.
         25    1    3    3    0    0  0.58691793287E+02  0.14566040571E+02 -0.13002329310E+03  0.19029046478E+03  0.12509000000E+03 0.  0.
         25    1    3    3    0    0  0.44114184775E+02 -0.12899673037E+02 -0.29921602923E+03  0.32755183271E+03  0.12509000000E+03 0.  0.
         25    1    3    3    0    0 -0.10280597806E+03 -0.16663675333E+01 -0.22978782514E+03  0.28110816173E+03  0.12509000000E+03 0.  0.
<mgrwt>
<rscale>  2 0.45166919E+03</rscale>
<asrwt>0</asrwt>
<pdfrwt beam="1">  1       21 0.10288478E-01 0.45166919E+03</pdfrwt>
<pdfrwt beam="2">  1       21 0.10720424E+00 0.45166919E+03</pdfrwt>
<totfact> 0.49086197E+04</totfact>
</mgrwt>
</event>
<event>
 6    0  0.1572624E-007  0.4529667E+03  0.7546771E-02  0.1026841E+00
         21   -1    0    0  502  501  0.00000000000E+00  0.00000000000E+00  0.37267976537E+03  0.37267976537E+03  0.00000000000E+00 0.  1.
         21   -1    0    0  501  502 -0.00000000000E+00 -0.00000000000E+00 -0.13763752024E+03  0.13763752024E+03  0.00000000000E+00 0.  1.
      99926    2    1    2    0    0 -0.71054273576E-14  0.00000000000E+00  0.23504224513E+03  0.51031728561E+03  0.45296674823E+03 0.  0.
         25    1    3    3    0    0 -0.78821457794E+02 -0.12667287679E+02  0.85898414282E+02  0.17146232257E+03  0.12509000000E+03 0.  0.
         25    1    3    3    0    0  0.18426268747E+02  0.74256315494E+02  0.40694133349E+02  0.15217440113E+03  0.12509000000E+03 0.  0.
         25    1    3    3    0    0  0.60395189047E+02 -0.61589027815E+02  0.10844969750E+03  0.18668056191E+03  0.12509000000E+03 0.  0.
<mgrwt>
<rscale>  2 0.45296675E+03</rscale>
<asrwt>0</asrwt>
<pdfrwt beam="1">  1       21 0.54805848E-01 0.45296675E+03</pdfrwt>
<pdfrwt beam="2">  1       21 0.20240812E-01 0.45296675E+03</pdfrwt>
<totfact> 0.65603946E+04</totfact>
</mgrwt>
</event>
<event>
 6    0  0.1572624E-007  0.4564611E+03  0.7546771E-02  0.1025813E+00
         21   -1    0    0  502  501  0.00000000000E+00  0.00000000000E+00  0.73560264438E+03  0.73560264438E+03  0.00000000000E+00 0.  1.
         21   -1    0    0  501  502 -0.00000000000E+00 -0.00000000000E+00 -0.70811589355E+02  0.70811589355E+02  0.00000000000E+00 0.  1.
      99926    2    1    2    0    0  0.00000000000E+00 -0.17763568394E-14  0.66479105503E+03  0.80641423374E+03  0.45646113693E+03 0.  0.
         25    1    3    3    0    0 -0.19089493834E+02 -0.51146208697E+02  0.27144283159E+03  0.30382406481E+03  0.12509000000E+03 0.  0.
         25    1    3    3    0    0  0.95861898797E+02  0.13442147392E+02  0.23632383323E+03  0.28437063354E+03  0.12509000000E+03 0.  0.
         25    1    3    3    0    0 -0.76772404963E+02  0.37704061305E+02  0.15702439021E+03  0.21821953538E+03  0.12509000000E+03 0.  0.
<mgrwt>
<rscale>  2 0.45646114E+03</rscale>
<asrwt>0</asrwt>
<pdfrwt beam="1">  1       21 0.10817686E+00 0.45646114E+03</pdfrwt>
<pdfrwt beam="2">  1       21 0.10413469E-01 0.45646114E+03</pdfrwt>
<totfact> 0.46915861E+04</totfact>
</mgrwt>
</event>
<event>
 6    0  0.1572624E-007  0.4504668E+03  0.7546771E-02  0.1027583E+00
         21   -1    0    0  502  501  0.00000000000E+00  0.00000000000E+00  0.67081295655E+03  0.67081295655E+03  0.00000000000E+00 0. -1.
         21   -1    0    0  501  502 -0.00000000000E+00 -0.00000000000E+00 -0.75624791560E+02  0.75624791560E+02  0.00000000000E+00 0. -1.
      99926    2    1    2    0    0  0.00000000000E+00 -0.17763568394E-14  0.59518816499E+03  0.74643774811E+03  0.45046682459E+03 0.  0.
         25    1    3    3    0    0  0.90792043288E+00  0.28907440714E+02  0.26775278668E+03  0.29694364335E+03  0.12509000000E+03 0.  0.
         25    1    3    3    0    0  0.86377944940E+02 -0.20191596763E+02  0.18837767139E+03  0.24290431270E+03  0.12509000000E+03 0.  0.
         25    1    3    3    0    0 -0.87285865373E+02 -0.87158439510E+01  0.13905770692E+03  0.20658979206E+03  0.12509000000E+03 0.  0.
<mgrwt>
<rscale>  2 0.45046682E+03</rscale>
<asrwt>0</asrwt>
<pdfrwt beam="1">  1       21 0.98648961E-01 0.45046682E+03</pdfrwt>
<pdfrwt beam="2">  1       21 0.11121293E-01 0.45046682E+03</pdfrwt>
<totfact> 0.52291604E+04</totfact>
</mgrwt>
</event>
<event>
 6    0  0.1572624E-007  0.4568463E+03  0.7546771E-02  0.1025700E+00
         21   -1    0    0  502  501  0.00000000000E+00  0.00000000000E+00  0.38753649406E+03  0.38753649406E+03  0.00000000000E+00 0. -1.
         21   -1    0    0  501  502 -0.00000000000E+00 -0.00000000000E+00 -0.13463800987E+03  0.13463800987E+03  0.00000000000E+00 0. -1.
      99926    2    1    2    0    0  0.00000000000E+00  0.00000000000E+00  0.25289848420E+03  0.52217450393E+03  0.45684633001E+03 0.  0.
         25    1    3    3    0    0 -0.67385103642E+02 -0.56362538199E+02  0.46964148198E+02  0.15990818372E+03  0.12509000000E+03 0.  0.
         25    1    3    3    0    0 -0.31325038568E+02  0.50532766830E+02  0.91362413358E+02  0.16591991212E+03  0.12509000000E+03 0.  0.
         25    1    3    3    0    0  0.98710142209E+02  0.58297713685E+01  0.11457192264E+03  0.19634640808E+03  0.12509000000E+03 0.  0.
<mgrwt>
<rscale>  2 0.45684633E+03</rscale>
<asrwt>0</asrwt>
<pdfrwt beam="1">  1       21 0.56990661E-01 0.45684633E+03</pdfrwt>
<pdfrwt beam="2">  1       21 0.19799707E-01 0.45684633E+03</pdfrwt>
<totfact> 0.62814193E+04</totfact>
</mgrwt>
</event>
<event>
 6    0  0.1572624E-007  0.4593384E+03  0.7546771E-02  0.1024973E+00
         21   -1    0    0  502  501  0.00000000000E+00  0.00000000000E+00  0.45960557609E+03  0.45960557609E+03  0.00000000000E+00 0. -1.
         21   -1    0    0  501  502 -0.00000000000E+00 -0.00000000000E+00 -0.11476785396E+03  0.11476785396E+03  0.00000000000E+00 0. -1.
      99926    2    1    2    0    0  0.35527136788E-14  0.00000000000E+00  0.34483772213E+03  0.57437343005E+03  0.45933841832E+03 0.  0.
         25    1    3    3    0    0 -0.15202757876E+01 -0.30568022439E+02  0.26642807462E+03  0.29591914821E+03  0.12509000000E+03 0.  0.
         25    1    3    3    0    0  0.23252669305E+02  0.52676069082E+02  0.49867117535E+02  0.14645713501E+03  0.12509000000E+03 0.  0.
         25    1    3    3    0    0 -0.21732393517E+02 -0.22108046643E+02  0.28542529976E+02  0.13199714683E+03  0.12509000000E+03 0.  0.
<mgrwt>
<rscale>  2 0.45933842E+03</rscale>
<asrwt>0</asrwt>
<pdfrwt beam="1">  1       21 0.67589055E-01 0.45933842E+03</pdfrwt>
<pdfrwt beam="2">  1       21 0.16877626E-01 0.45933842E+03</pdfrwt>
<totfact> 0.58259641E+04</totfact>
</mgrwt>
</event>
<event>
 6    0  0.1572624E-007  0.4583189E+03  0.7546771E-02  0.1025270E+00
         21   -1    0    0  502  501  0.00000000000E+00  0.00000000000E+00  0.47193259504E+03  0.47193259504E+03  0.00000000000E+00 0.  1.
         21   -1    0    0  501  502 -0.00000000000E+00 -0.00000000000E+00 -0.11127450042E+03  0.11127450042E+03  0.00000000000E+00 0.  1.
      99926    2    1    2    0    0  0.00000000000E+00 -0.35527136788E-14  0.36065809461E+03  0.58320709546E+03  0.45831894461E+03 0.  0.
         25    1    3    3    0    0 -0.10145252341E+02  0.25253295061E+02  0.15788898175E+03  0.20326606631E+03  0.12509000000E+03 0.  0.
         25    1    3    3    0    0  0.45396270058E+02  0.40383444846E+02  0.11469463936E+02  0.13953745252E+03  0.12509000000E+03 0.  0.
         25    1    3    3    0    0 -0.35251017717E+02 -0.65636739908E+02  0.19129964893E+03  0.24040357663E+03  0.12509000000E+03 0.  0.
<mgrwt>
<rscale>  2 0.45831894E+03</rscale>
<asrwt>0</asrwt>
<pdfrwt beam="1">  1       21 0.69401851E-01 0.45831894E+03</pdfrwt>
<pdfrwt beam="2">  1       21 0.16363897E-01 0.45831894E+03</pdfrwt>
<totfact> 0.58182404E+04</totfact>
</mgrwt>
</event>
<event>
 6    0  0.1572624E-007  0.4529745E+03  0.7546771E-02  0.1026839E+00
         21   -1    0    0  502  501  0.00000000000E+00  0.00000000000E+00  0.77142878554E+03  0.77142878554E+03  0.00000000000E+00 0.  1.
         21   -1    0    0  501  502 -0.00000000000E+00 -0.00000000000E+00 -0.66495419453E+02  0.66495419453E+02  0.00000000000E+00 0.  1.
      99926    2    1    2    0    0  0.00000000000E+00  0.17763568394E-14  0.70493336608E+03  0.83792420499E+03  0.45297452764E+03 0.  0.
         25    1    3    3    0    0  0.55386646039E+01  0.25623159121E+02  0.12614902357E+03  0.17957813714E+03  0.12509000000E+03 0.  0.
         25    1    3    3    0    0 -0.75530394757E+02 -0.40493584480E+02  0.40577205512E+03  0.43317783846E+03  0.12509000000E+03 0.  0.
         25    1    3    3    0    0  0.69991730153E+02  0.14870425359E+02  0.17301228739E+03  0.22516822939E+03  0.12509000000E+03 0.  0.
<mgrwt>
<rscale>  2 0.45297453E+03</rscale>
<asrwt>0</asrwt>
<pdfrwt beam="1">  1       21 0.11344540E+00 0.45297453E+03</pdfrwt>
<pdfrwt beam="2">  1       21 0.97787386E-02 0.45297453E+03</pdfrwt>
<totfact> 0.46722545E+04</totfact>
</mgrwt>
</event>
<event>
 6    0  0.1572624E-007  0.4560989E+03  0.7546771E-02  0.1025919E+00
         21   -1    0    0  502  501  0.00000000000E+00  0.00000000000E+00  0.22079820571E+03  0.22079820571E+03  0.00000000000E+00 0. -1.
         21   -1    0    0  501  502 -0.00000000000E+00 -0.00000000000E+00 -0.23553878288E+03  0.23553878288E+03  0.00000000000E+00 0. -1.
      99926    2    1    2    0    0 -0.37643499429E-14  0.00000000000E+00 -0.14740577165E+02  0.45633698859E+03  0.45609885172E+03 0.  0.
         25    1    3    3    0    0 -0.41040282142E+02  0.27641200370E+02  0.87569232570E+02  0.16051236497E+03  0.12509000000E+03 0.  0.
         25    1    3    3    0    0 -0.15202577657E-01 -0.61048709073E+02 -0.31767528847E+02  0.14277124745E+03  0.12509000000E+03 0.  0.
         25    1    3    3    0    0  0.41055484720E+02  0.33407508703E+02 -0.70542280888E+02  0.15305337617E+03  0.12509000000E+03 0.  0.
<mgrwt>
<rscale>  2 0.45609885E+03</rscale>
<asrwt>0</asrwt>
<pdfrwt beam="1">  1       21 0.32470324E-01 0.45609885E+03</pdfrwt>
<pdfrwt beam="2">  1       21 0.34638056E-01 0.45609885E+03</pdfrwt>
<totfact> 0.67851120E+04</totfact>
</mgrwt>
</event>
<event>
 6    0  0.1572624E-007  0.4575654E+03  0.7546771E-02  0.1025490E+00
         21   -1    0    0  502  501  0.00000000000E+00  0.00000000000E+00  0.65921434644E+03  0.65921434644E+03  0.00000000000E+00 0.  1.
         21   -1    0    0  501  502 -0.00000000000E+00 -0.00000000000E+00 -0.79399848559E+02  0.79399848559E+02  0.00000000000E+00 0.  1.
      99926    2    1    2    0    0  0.00000000000E+00  0.14210854715E-13  0.57981449788E+03  0.73861419500E+03  0.45756538014E+03 0.  0.
         25    1    3    3    0    0  0.58738404496E+02  0.18107478883E+02  0.16929666873E+03  0.21928737104E+03  0.12509000000E+03 0.  0.
         25    1    3    3    0    0 -0.41819834684E+02 -0.84810666606E+02  0.12660875884E+03  0.20154164249E+03  0.12509000000E+03 0.  0.
         25    1    3    3    0    0 -0.16918569812E+02  0.66703187723E+02  0.28390907031E+03  0.31778518147E+03  0.12509000000E+03 0.  0.
<mgrwt>
<rscale>  2 0.45756538E+03</rscale>
<asrwt>0</asrwt>
<pdfrwt beam="1">  1       21 0.96943283E-01 0.45756538E+03</pdfrwt>
<pdfrwt beam="2">  1       21 0.11676449E-01 0.45756538E+03</pdfrwt>
<totfact> 0.49843206E+04</totfact>
</mgrwt>
</event>
<event>
 6    0  0.1572624E-007  0.4543963E+03  0.7546771E-02  0.1026419E+00
         21   -1    0    0  502  501  0.00000000000E+00  0.00000000000E+00  0.10118346757E+03  0.10118346757E+03  0.00000000000E+00 0. -1.
         21   -1    0    0  501  502 -0.00000000000E+00 -0.00000000000E+00 -0.51015248456E+03  0.51015248456E+03  0.00000000000E+00 0. -1.
      99926    2    1    2    0    0  0.19984014443E-14 -0.35527136788E-14 -0.40896901699E+03  0.61133595213E+03  0.45439629125E+03 0.  0.
         25    1    3    3    0    0 -0.58678980687E+00  0.22748905097E+02 -0.13132938507E+03  0.18279160946E+03  0.12509000000E+03 0.  0.
         25    1    3    3    0    0  0.63092167637E+02  0.14950241201E+02 -0.24098003773E+03  0.27914694699E+03  0.12509000000E+03 0.  0.
         25    1    3    3    0    0 -0.62505377830E+02 -0.37699146298E+02 -0.36659594193E+02  0.14939739568E+03  0.12509000000E+03 0.  0.
<mgrwt>
<rscale>  2 0.45439629E+03</rscale>
<asrwt>0</asrwt>
<pdfrwt beam="1">  1       21 0.14879922E-01 0.45439629E+03</pdfrwt>
<pdfrwt beam="2">  1       21 0.75022422E-01 0.45439629E+03</pdfrwt>
<totfact> 0.58263211E+04</totfact>
</mgrwt>
</event>
<event>
 6    0  0.1572624E-007  0.4543966E+03  0.7546771E-02  0.1026419E+00
         21   -1    0    0  502  501  0.00000000000E+00  0.00000000000E+00  0.21904895777E+03  0.21904895777E+03  0.00000000000E+00 0.  1.
         21   -1    0    0  501  502 -0.00000000000E+00 -0.00000000000E+00 -0.23565083670E+03  0.23565083670E+03  0.00000000000E+00 0.  1.
      99926    2    1    2    0    0  0.00000000000E+00  0.35527136788E-14 -0.16601878929E+02  0.45469979447E+03  0.45439661169E+03 0.  0.
         25    1    3    3    0    0 -0.28458035402E+02 -0.47124522506E+02 -0.10331782559E+03  0.17132618476E+03  0.12509000000E+03 0.  0.
         25    1    3    3    0    0 -0.80657445725E+01  0.56723373814E+02  0.29417070851E+02  0.14069637355E+03  0.12509000000E+03 0.  0.
         25    1    3    3    0    0  0.36523779975E+02 -0.95988513078E+01  0.57298875810E+02  0.14267723616E+03  0.12509000000E+03 0.  0.
<mgrwt>
<rscale>  2 0.45439661E+03</rscale>
<asrwt>0</asrwt>
<pdfrwt beam="1">  1       21 0.32213082E-01 0.45439661E+03</pdfrwt>
<pdfrwt beam="2">  1       21 0.34654535E-01 0.45439661E+03</pdfrwt>
<totfact> 0.68898915E+04</totfact>
</mgrwt>
</event>
<event>
 6    0  0.1572624E-007  0.4581380E+03  0.7546771E-02  0.1025323E+00
         21   -1    0    0  502  501  0.00000000000E+00  0.00000000000E+00  0.51291697459E+03  0.51291697459E+03  0.00000000000E+00 0.  1.
         21   -1    0    0  501  502 -0.00000000000E+00 -0.00000000000E+00 -0.10230233433E+03  0.10230233433E+03  0.00000000000E+00 0.  1.
      99926    2    1    2    0    0 -0.71054273576E-14  0.00000000000E+00  0.41061464026E+03  0.61521930892E+03  0.45813798716E+03 0.  0.
         25    1    3    3    0    0  0.21416154983E+02 -0.72731041846E+02  0.72884419952E+02  0.16342613902E+03  0.12509000000E+03 0.  0.
         25    1    3    3    0    0 -0.73180224719E+02  0.31293599894E+01  0.19620793115E+03  0.24394712241E+03  0.12509000000E+03 0.  0.
         25    1    3    3    0    0  0.51764069736E+02  0.69601681856E+02  0.14152228916E+03  0.20784604750E+03  0.12509000000E+03 0.  0.
<mgrwt>
<rscale>  2 0.45813799E+03</rscale>
<asrwt>0</asrwt>
<pdfrwt beam="1">  1       21 0.75428966E-01 0.45813799E+03</pdfrwt>
<pdfrwt beam="2">  1       21 0.15044461E-01 0.45813799E+03</pdfrwt>
<totfact> 0.56341755E+04</totfact>
</mgrwt>
</event>
<event>
 6    0  0.1572624E-007  0.4622184E+03  0.7546771E-02  0.1024140E+00
         21   -1    0    0  502  501  0.00000000000E+00  0.00000000000E+00  0.10292363563E+04  0.10292363563E+04  0.00000000000E+00 0. -1.
         21   -1    0    0  501  502 -0.00000000000E+00 -0.00000000000E+00 -0.51894256923E+02  0.51894256923E+02  0.00000000000E+00 0. -1.
      99926    2    1    2    0    0  0.00000000000E+00  0.00000000000E+00  0.97734209942E+03  0.10811306133E+04  0.46221837225E+03 0.  0.
         25    1    3    3    0    0 -0.99507580882E+02 -0.18149144460E+02  0.30168623142E+03  0.34189653468E+03  0.12509000000E+03 0.  0.
         25    1    3    3    0    0  0.57188438821E+02  0.13384284359E+01  0.50154018489E+03  0.52005997163E+03  0.12509000000E+03 0.  0.
         25    1    3    3    0    0  0.42319142061E+02  0.16810716024E+02  0.17411568310E+03  0.21917410696E+03  0.12509000000E+03 0.  0.
<mgrwt>
<rscale>  2 0.46221837E+03</rscale>
<asrwt>0</asrwt>
<pdfrwt beam="1">  1       21 0.15135828E+00 0.46221837E+03</pdfrwt>
<pdfrwt beam="2">  1       21 0.76315090E-02 0.46221837E+03</pdfrwt>
<totfact> 0.34188831E+04</totfact>
</mgrwt>
</event>
<event>
 6    0  0.1572624E-007  0.4508168E+03  0.7546771E-02  0.1027479E+00
         21   -1    0    0  502  501  0.00000000000E+00  0.00000000000E+00  0.88963698244E+03  0.88963698244E+03  0.00000000000E+00 0.  1.
         21   -1    0    0  501  502 -0.00000000000E+00 -0.00000000000E+00 -0.57111998189E+02  0.57111998189E+02  0.00000000000E+00 0.  1.
      99926    2    1    2    0    0  0.00000000000E+00  0.71054273576E-14  0.83252498425E+03  0.94674898063E+03  0.45081679529E+03 0.  0.
         25    1    3    3    0    0 -0.28959005571E+02 -0.46074567855E+01  0.10517565895E+03  0.16603999517E+03  0.12509000000E+03 0.  0.
         25    1    3    3    0    0 -0.19938835601E+02 -0.46747936552E+02  0.28070807211E+03  0.31149230582E+03  0.12509000000E+03 0.  0.
         25    1    3    3    0    0  0.48897841172E+02  0.51355393337E+02  0.44664125319E+03  0.46921667964E+03  0.12509000000E+03 0.  0.
<mgrwt>
<rscale>  2 0.45081680E+03</rscale>
<asrwt>0</asrwt>
<pdfrwt beam="1">  1       21 0.13082896E+00 0.45081680E+03</pdfrwt>
<pdfrwt beam="2">  1       21 0.83988238E-02 0.45081680E+03</pdfrwt>
<totfact> 0.42650954E+04</totfact>
</mgrwt>
</event>
<event>
 6    0  0.1572624E-007  0.4556379E+03  0.7546771E-02  0.1026054E+00
         21   -1    0    0  502  501  0.00000000000E+00  0.00000000000E+00  0.50586014054E+03  0.50586014054E+03  0.00000000000E+00 0. -1.
         21   -1    0    0  501  502 -0.00000000000E+00 -0.00000000000E+00 -0.10260045405E+03  0.10260045405E+03  0.00000000000E+00 0. -1.
      99926    2    1    2    0    0  0.62172489379E-14  0.00000000000E+00  0.40325968649E+03  0.60846059459E+03  0.45563792688E+03 0.  0.
         25    1    3    3    0    0  0.71716927923E+02 -0.25529620301E+02  0.13366611999E+03  0.19826552649E+03  0.12509000000E+03 0.  0.
         25    1    3    3    0    0 -0.78072472421E+02 -0.31913633807E+02  0.66752046243E+02  0.16497616419E+03  0.12509000000E+03 0.  0.
         25    1    3    3    0    0  0.63555444975E+01  0.57443254108E+02  0.20284152026E+03  0.24521890390E+03  0.12509000000E+03 0.  0.
<mgrwt>
<rscale>  2 0.45563793E+03</rscale>
<asrwt>0</asrwt>
<pdfrwt beam="1">  1       21 0.74391196E-01 0.45563793E+03</pdfrwt>
<pdfrwt beam="2">  1       21 0.15088302E-01 0.45563793E+03</pdfrwt>
<totfact> 0.57868336E+04</totfact>
</mgrwt>
</event>
<event>
 6    0  0.1572624E-007  0.4576899E+03  0.7546771E-02  0.1025453E+00
         21   -1    0    0  502  501  0.00000000000E+00  0.00000000000E+00  0.32318594787E+02  0.32318594787E+02  0.00000000000E+00 0. -1.
         21   -1    0    0  501  502 -0.00000000000E+00 -0.00000000000E+00 -0.16204294833E+04  0.16204294833E+04  0.00000000000E+00 0. -1.
      99926    2    1    2    0    0  0.00000000000E+00  0.00000000000E+00 -0.15881108885E+04  0.16527480781E+04  0.45768986815E+03 0.  0.
         25    1    3    3    0    0 -0.39317369324E+02 -0.59657607221E+02 -0.36834267568E+03  0.39551070839E+03  0.12509000000E+03 0.  0.
         25    1    3    3    0    0  0.86300955936E+02  0.48927314778E+02 -0.82567474406E+03  0.84096850607E+03  0.12509000000E+03 0.  0.
         25    1    3    3    0    0 -0.46983586612E+02  0.10730292443E+02 -0.39409346875E+03  0.41626886359E+03  0.12509000000E+03 0.  0.
<mgrwt>
<rscale>  2 0.45768987E+03</rscale>
<asrwt>0</asrwt>
<pdfrwt beam="1">  1       21 0.47527328E-02 0.45768987E+03</pdfrwt>
<pdfrwt beam="2">  1       21 0.23829854E+00 0.45768987E+03</pdfrwt>
<totfact> 0.19845887E+04</totfact>
</mgrwt>
</event>
<event>
 6    0  0.1572624E-007  0.4518580E+03  0.7546771E-02  0.1027169E+00
         21   -1    0    0  502  501  0.00000000000E+00  0.00000000000E+00  0.10821156019E+03  0.10821156019E+03  0.00000000000E+00 0.  1.
         21   -1    0    0  501  502 -0.00000000000E+00 -0.00000000000E+00 -0.47170474472E+03  0.47170474472E+03  0.00000000000E+00 0.  1.
      99926    2    1    2    0    0 -0.26645352591E-14  0.71054273576E-14 -0.36349318453E+03  0.57991630491E+03  0.45185797050E+03 0.  0.
         25    1    3    3    0    0 -0.75272513944E+01 -0.57527111592E+02 -0.14156206746E+03  0.19761921750E+03  0.12509000000E+03 0.  0.
         25    1    3    3    0    0 -0.18869582358E+02  0.11496088319E+03 -0.12863400643E+03  0.21393055301E+03  0.12509000000E+03 0.  0.
         25    1    3    3    0    0  0.26396833752E+02 -0.57433771594E+02 -0.93297110640E+02  0.16836653440E+03  0.12509000000E+03 0.  0.
<mgrwt>
<rscale>  2 0.45185797E+03</rscale>
<asrwt>0</asrwt>
<pdfrwt beam="1">  1       21 0.15913465E-01 0.45185797E+03</pdfrwt>
<pdfrwt beam="2">  1       21 0.69368343E-01 0.45185797E+03</pdfrwt>
<totfact> 0.61443907E+04</totfact>
</mgrwt>
</event>
<event>
 6    0  0.1572624E-007  0.4581371E+03  0.7546771E-02  0.1025323E+00
         21   -1    0    0  502  501  0.00000000000E+00  0.00000000000E+00  0.37895284753E+03  0.37895284753E+03  0.00000000000E+00 0. -1.
         21   -1    0    0  501  502 -0.00000000000E+00 -0.00000000000E+00 -0.13846686054E+03  0.13846686054E+03  0.00000000000E+00 0. -1.
      99926    2    1    2    0    0  0.00000000000E+00  0.00000000000E+00  0.24048598698E+03  0.51741970807E+03  0.45813714580E+03 0.  0.
         25    1    3    3    0    0 -0.15052883401E+02 -0.10099050043E+03  0.85052485093E+02  0.18250233915E+03  0.12509000000E+03 0.  0.
         25    1    3    3    0    0 -0.50349902330E+02  0.39334268317E+02  0.54000937289E+02  0.15048556960E+03  0.12509000000E+03 0.  0.
         25    1    3    3    0    0  0.65402785732E+02  0.61656232112E+02  0.10143256460E+03  0.18443179932E+03  0.12509000000E+03 0.  0.
<mgrwt>
<rscale>  2 0.45813715E+03</rscale>
<asrwt>0</asrwt>
<pdfrwt beam="1">  1       21 0.55728360E-01 0.45813715E+03</pdfrwt>
<pdfrwt beam="2">  1       21 0.20362774E-01 0.45813715E+03</pdfrwt>
<totfact> 0.62493216E+04</totfact>
</mgrwt>
</event>
<event>
 6    0  0.1572624E-007  0.4562249E+03  0.7546771E-02  0.1025882E+00
         21   -1    0    0  502  501  0.00000000000E+00  0.00000000000E+00  0.38368938095E+03  0.38368938095E+03  0.00000000000E+00 0. -1.
         21   -1    0    0  501  502 -0.00000000000E+00 -0.00000000000E+00 -0.13561824251E+03  0.13561824251E+03  0.00000000000E+00 0. -1.
      99926    2    1    2    0    0  0.00000000000E+00  0.00000000000E+00  0.24807113843E+03  0.51930762346E+03  0.45622485472E+03 0.  0.
         25    1    3    3    0    0 -0.27065145470E+02 -0.10561202144E+02  0.21765980527E+02  0.13025101573E+03  0.12509000000E+03 0.  0.
         25    1    3    3    0    0 -0.28458133499E+02  0.70964214518E+02  0.18064095268E+03  0.23264661397E+03  0.12509000000E+03 0.  0.
         25    1    3    3    0    0  0.55523278969E+02 -0.60403012374E+02  0.45664205223E+02  0.15640999377E+03  0.12509000000E+03 0.  0.
<mgrwt>
<rscale>  2 0.45622485E+03</rscale>
<asrwt>0</asrwt>
<pdfrwt beam="1">  1       21 0.56424909E-01 0.45622485E+03</pdfrwt>
<pdfrwt beam="2">  1       21 0.19943859E-01 0.45622485E+03</pdfrwt>
<totfact> 0.63316902E+04</totfact>
</mgrwt>
</event>
<event>
 6    0  0.1572624E-007  0.4469488E+03  0.7546771E-02  0.1028636E+00
         21   -1    0    0  502  501  0.00000000000E+00  0.00000000000E+00  0.13100641684E+03  0.13100641684E+03  0.00000000000E+00 0.  1.
         21   -1    0    0  501  502 -0.00000000000E+00 -0.00000000000E+00 -0.38120889200E+03  0.38120889200E+03  0.00000000000E+00 0.  1.
      99926    2    1    2    0    0  0.17763568394E-14 -0.71054273576E-14 -0.25020247516E+03  0.51221530883E+03  0.44694881589E+03 0.  0.
         25    1    3    3    0    0  0.16941164384E+02 -0.28012071202E+02  0.36387959431E+01  0.12935388715E+03  0.12509000000E+03 0.  0.
         25    1    3    3    0    0 -0.13661662669E+02 -0.53037899958E+02 -0.13711615229E+03  0.19351487586E+03  0.12509000000E+03 0.  0.
         25    1    3    3    0    0 -0.32795017148E+01  0.81049971160E+02 -0.11672511881E+03  0.18934654583E+03  0.12509000000E+03 0.  0.
<mgrwt>
<rscale>  2 0.44694882E+03</rscale>
<asrwt>0</asrwt>
<pdfrwt beam="1">  1       21 0.19265650E-01 0.44694882E+03</pdfrwt>
<pdfrwt beam="2">  1       21 0.56060131E-01 0.44694882E+03</pdfrwt>
<totfact> 0.68706070E+04</totfact>
</mgrwt>
</event>
<event>
 6    0  0.1572624E-007  0.4563241E+03  0.7546771E-02  0.1025853E+00
         21   -1    0    0  502  501  0.00000000000E+00  0.00000000000E+00  0.16347417585E+04  0.16347417585E+04  0.00000000000E+00 0. -1.
         21   -1    0    0  501  502 -0.00000000000E+00 -0.00000000000E+00 -0.31844743231E+02  0.31844743231E+02  0.00000000000E+00 0. -1.
      99926    2    1    2    0    0  0.00000000000E+00  0.00000000000E+00  0.16028970152E+04  0.16665865017E+04  0.45632414597E+03 0.  0.
         25    1    3    3    0    0  0.66425753717E+02  0.42977886677E+01  0.32131100356E+03  0.35116822301E+03  0.12509000000E+03 0.  0.
         25    1    3    3    0    0 -0.96208100808E+01  0.64765387896E+02  0.67887929888E+03  0.69340588836E+03  0.12509000000E+03 0.  0.
         25    1    3    3    0    0 -0.56804943636E+02 -0.69063176564E+02  0.60270671279E+03  0.62201239033E+03  0.12509000000E+03 0.  0.
<mgrwt>
<rscale>  2 0.45632415E+03</rscale>
<asrwt>0</asrwt>
<pdfrwt beam="1">  1       21 0.24040314E+00 0.45632415E+03</pdfrwt>
<pdfrwt beam="2">  1       21 0.46830516E-02 0.45632415E+03</pdfrwt>
<totfact> 0.19762148E+04</totfact>
</mgrwt>
</event>
<event>
 6    0  0.1572624E-007  0.4504348E+03  0.7546771E-02  0.1027592E+00
         21   -1    0    0  502  501  0.00000000000E+00  0.00000000000E+00  0.45053598797E+02  0.45053598797E+02  0.00000000000E+00 0. -1.
         21   -1    0    0  501  502 -0.00000000000E+00 -0.00000000000E+00 -0.11258338867E+04  0.11258338867E+04  0.00000000000E+00 0. -1.
      99926    2    1    2    0    0  0.00000000000E+00  0.00000000000E+00 -0.10807802879E+04  0.11708874855E+04  0.45043475995E+03 0.  0.
         25    1    3    3    0    0  0.30549527133E+02 -0.39551003604E+02 -0.18490842315E+03  0.22877103957E+03  0.12509000000E+03 0.  0.
         25    1    3    3    0    0  0.22735860906E+02  0.70544662335E+02 -0.35655584971E+03  0.38506239860E+03  0.12509000000E+03 0.  0.
         25    1    3    3    0    0 -0.53285388038E+02 -0.30993658730E+02 -0.53931601503E+03  0.55705404732E+03  0.12509000000E+03 0.  0.
<mgrwt>
<rscale>  2 0.45043476E+03</rscale>
<asrwt>0</asrwt>
<pdfrwt beam="1">  1       21 0.66255317E-02 0.45043476E+03</pdfrwt>
<pdfrwt beam="2">  1       21 0.16556375E+00 0.45043476E+03</pdfrwt>
<totfact> 0.34296466E+04</totfact>
</mgrwt>
</event>
<event>
 6    0  0.1572624E-007  0.4614126E+03  0.7546771E-02  0.1024372E+00
         21   -1    0    0  502  501  0.00000000000E+00  0.00000000000E+00  0.69660565373E+03  0.69660565373E+03  0.00000000000E+00 0.  1.
         21   -1    0    0  501  502 -0.00000000000E+00 -0.00000000000E+00 -0.76406790916E+02  0.76406790916E+02  0.00000000000E+00 0.  1.
      99926    2    1    2    0    0  0.00000000000E+00  0.71054273576E-14  0.62019886281E+03  0.77301244465E+03  0.46141262460E+03 0.  0.
         25    1    3    3    0    0 -0.32166540029E+02  0.59484227285E+02  0.23430609914E+03  0.27408012659E+03  0.12509000000E+03 0.  0.
         25    1    3    3    0    0 -0.40500994554E+02 -0.75843021903E+02  0.11161047635E+03  0.18840621291E+03  0.12509000000E+03 0.  0.
         25    1    3    3    0    0  0.72667534583E+02  0.16358794619E+02  0.27428228732E+03  0.31052610515E+03  0.12509000000E+03 0.  0.
<mgrwt>
<rscale>  2 0.46141262E+03</rscale>
<asrwt>0</asrwt>
<pdfrwt beam="1">  1       21 0.10244200E+00 0.46141262E+03</pdfrwt>
<pdfrwt beam="2">  1       21 0.11236293E-01 0.46141262E+03</pdfrwt>
<totfact> 0.46702234E+04</totfact>
</mgrwt>
</event>
<event>
 6    0  0.1572624E-007  0.4427934E+03  0.7546771E-02  0.1029893E+00
         21   -1    0    0  502  501  0.00000000000E+00  0.00000000000E+00  0.36708253096E+03  0.36708253096E+03  0.00000000000E+00 0. -1.
         21   -1    0    0  501  502 -0.00000000000E+00 -0.00000000000E+00 -0.13352993700E+03  0.13352993700E+03  0.00000000000E+00 0. -1.
      99926    2    1    2    0    0 -0.71054273576E-14 -0.71054273576E-14  0.23355259396E+03  0.50061246796E+03  0.44279343822E+03 0.  0.
         25    1    3    3    0    0  0.13667166225E+02 -0.68948415800E+02  0.40038026374E+02  0.14896720152E+03  0.12509000000E+03 0.  0.
         25    1    3    3    0    0 -0.72574380652E+02  0.15796856173E+02  0.96011174952E+02  0.17430500626E+03  0.12509000000E+03 0.  0.
         25    1    3    3    0    0  0.58907214427E+02  0.53151559628E+02  0.97503392633E+02  0.17734026017E+03  0.12509000000E+03 0.  0.
<mgrwt>
<rscale>  2 0.44279344E+03</rscale>
<asrwt>0</asrwt>
<pdfrwt beam="1">  1       21 0.53982725E-01 0.44279344E+03</pdfrwt>
<pdfrwt beam="2">  1       21 0.19636755E-01 0.44279344E+03</pdfrwt>
<totfact> 0.71949531E+04</totfact>
</mgrwt>
</event>
<event>
 6    0  0.1572624E-007  0.4547619E+03  0.7546771E-02  0.1026311E+00
         21   -1    0    0  502  501  0.00000000000E+00  0.00000000000E+00  0.29341995631E+03  0.29341995631E+03  0.00000000000E+00 0. -1.
         21   -1    0    0  501  502 -0.00000000000E+00 -0.00000000000E+00 -0.17620509548E+03  0.17620509548E+03  0.00000000000E+00 0. -1.
      99926    2    1    2    0    0 -0.71054273576E-14  0.00000000000E+00  0.11721486084E+03  0.46962505179E+03  0.45476187798E+03 0.  0.
         25    1    3    3    0    0  0.21135773547E+02 -0.72428786511E+02  0.46793464765E+02  0.15339421920E+03  0.12509000000E+03 0.  0.
         25    1    3    3    0    0 -0.69392220478E+02  0.47189760863E+02 -0.20876721289E+02  0.15207070522E+03  0.12509000000E+03 0.  0.
         25    1    3    3    0    0  0.48256446931E+02  0.25239025648E+02  0.91298117360E+02  0.16416012737E+03  0.12509000000E+03 0.  0.
<mgrwt>
<rscale>  2 0.45476188E+03</rscale>
<asrwt>0</asrwt>
<pdfrwt beam="1">  1       21 0.43149993E-01 0.45476188E+03</pdfrwt>
<pdfrwt beam="2">  1       21 0.25912514E-01 0.45476188E+03</pdfrwt>
<totfact> 0.67591206E+04</totfact>
</mgrwt>
</event>
<event>
 6    0  0.1572624E-007  0.4549011E+03  0.7546771E-02  0.1026271E+00
         21   -1    0    0  502  501  0.00000000000E+00  0.00000000000E+00  0.22354426432E+03  0.22354426432E+03  0.00000000000E+00 0.  1.
         21   -1    0    0  501  502 -0.00000000000E+00 -0.00000000000E+00 -0.23142505249E+03  0.23142505249E+03  0.00000000000E+00 0.  1.
      99926    2    1    2    0    0  0.35527136788E-14  0.00000000000E+00 -0.78807881707E+01  0.45496931682E+03  0.45490105784E+03 0.  0.
         25    1    3    3    0    0  0.24121908142E+02 -0.21678730730E+02  0.38911155411E+02  0.13495710405E+03  0.12509000000E+03 0.  0.
         25    1    3    3    0    0 -0.65663744399E+02 -0.51369990072E+01  0.54623325831E+02  0.15155636546E+03  0.12509000000E+03 0.  0.
         25    1    3    3    0    0  0.41541836257E+02  0.26815729737E+02 -0.10141526941E+03  0.16845584730E+03  0.12509000000E+03 0.  0.
<mgrwt>
<rscale>  2 0.45490106E+03</rscale>
<asrwt>0</asrwt>
<pdfrwt beam="1">  1       21 0.32874156E-01 0.45490106E+03</pdfrwt>
<pdfrwt beam="2">  1       21 0.34033096E-01 0.45490106E+03</pdfrwt>
<totfact> 0.68602184E+04</totfact>
</mgrwt>
</event>
<event>
 6    0  0.1572624E-007  0.4521481E+03  0.7546771E-02  0.1027083E+00
         21   -1    0    0  502  501  0.00000000000E+00  0.00000000000E+00  0.29805204437E+03  0.29805204437E+03  0.00000000000E+00 0. -1.
         21   -1    0    0  501  502 -0.00000000000E+00 -0.00000000000E+00 -0.17147839109E+03  0.17147839109E+03  0.00000000000E+00 0. -1.
      99926    2    1    2    0    0  0.00000000000E+00  0.00000000000E+00  0.12657365328E+03  0.46953043546E+03  0.45214813957E+03 0.  0.
         25    1    3    3    0    0 -0.24467872270E+02 -0.24137588942E+02  0.14379037380E+03  0.19366073342E+03  0.12509000000E+03 0.  0.
         25    1    3    3    0    0  0.57137220591E+02  0.38756491453E+02 -0.26944952281E+02  0.14539692624E+03  0.12509000000E+03 0.  0.
         25    1    3    3    0    0 -0.32669348322E+02 -0.14618902511E+02  0.97282317631E+01  0.13047277580E+03  0.12509000000E+03 0.  0.
<mgrwt>
<rscale>  2 0.45214814E+03</rscale>
<asrwt>0</asrwt>
<pdfrwt beam="1">  1       21 0.43831183E-01 0.45214814E+03</pdfrwt>
<pdfrwt beam="2">  1       21 0.25217411E-01 0.45214814E+03</pdfrwt>
<totfact> 0.69019083E+04</totfact>
</mgrwt>
</event>
<event>
 6    0  0.1572624E-007  0.4561164E+03  0.7546771E-02  0.1025914E+00
         21   -1    0    0  502  501  0.00000000000E+00  0.00000000000E+00  0.80068477727E+02  0.80068477727E+02  0.00000000000E+00 0. -1.
         21   -1    0    0  501  502 -0.00000000000E+00 -0.00000000000E+00 -0.64957580146E+03  0.64957580146E+03  0.00000000000E+00 0. -1.
      99926    2    1    2    0    0 -0.17763568394E-14 -0.71054273576E-14 -0.56950732373E+03  0.72964427919E+03  0.45611641317E+03 0.  0.
         25    1    3    3    0    0 -0.60821559197E+02 -0.88739424947E+02 -0.25542128233E+03  0.30407480522E+03  0.12509000000E+03 0.  0.
         25    1    3    3    0    0  0.54272606073E+02  0.43914960265E+02 -0.22035585698E+03  0.26282741734E+03  0.12509000000E+03 0.  0.
         25    1    3    3    0    0  0.65489531243E+01  0.44824464682E+02 -0.93730184434E+02  0.16274205663E+03  0.12509000000E+03 0.  0.
<mgrwt>
<rscale>  2 0.45611641E+03</rscale>
<asrwt>0</asrwt>
<pdfrwt beam="1">  1       21 0.11774776E-01 0.45611641E+03</pdfrwt>
<pdfrwt beam="2">  1       21 0.95525854E-01 0.45611641E+03</pdfrwt>
<totfact> 0.50874774E+04</totfact>
</mgrwt>
</event>
<event>
 6    0  0.1572624E-007  0.4475014E+03  0.7546771E-02  0.1028470E+00
         21   -1    0    0  502  501  0.00000000000E+00  0.00000000000E+00  0.76193970387E+02  0.76193970387E+02  0.00000000000E+00 0.  1.
         21   -1    0    0  501  502 -0.00000000000E+00 -0.00000000000E+00 -0.65706477387E+03  0.65706477387E+03  0.00000000000E+00 0.  1.
      99926    2    1    2    0    0  0.35527136788E-14  0.71054273576E-14 -0.58087080348E+03  0.73325874426E+03  0.44750139183E+03 0.  0.
         25    1    3    3    0    0 -0.37565036085E+02  0.47181347341E+02 -0.25360707209E+03  0.28913883618E+03  0.12509000000E+03 0.  0.
         25    1    3    3    0    0  0.17984873197E+02 -0.10184273248E+03 -0.17428963206E+03  0.23815915218E+03  0.12509000000E+03 0.  0.
         25    1    3    3    0    0  0.19580162887E+02  0.54661385139E+02 -0.15297409934E+03  0.20596075591E+03  0.12509000000E+03 0.  0.
<mgrwt>
<rscale>  2 0.44750139E+03</rscale>
<asrwt>0</asrwt>
<pdfrwt beam="1">  1       21 0.11204995E-01 0.44750139E+03</pdfrwt>
<pdfrwt beam="2">  1       21 0.96627176E-01 0.44750139E+03</pdfrwt>
<totfact> 0.54263462E+04</totfact>
</mgrwt>
</event>
<event>
 6    0  0.1572624E-007  0.4543692E+03  0.7546771E-02  0.1026427E+00
         21   -1    0    0  502  501  0.00000000000E+00  0.00000000000E+00  0.88849673645E+03  0.88849673645E+03  0.00000000000E+00 0.  1.
         21   -1    0    0  501  502 -0.00000000000E+00 -0.00000000000E+00 -0.58090077349E+02  0.58090077349E+02  0.00000000000E+00 0.  1.
      99926    2    1    2    0    0  0.00000000000E+00 -0.14210854715E-13  0.83040665910E+03  0.94658681380E+03  0.45436920734E+03 0.  0.
         25    1    3    3    0    0 -0.98167802637E+01 -0.51360423639E+02  0.14606656867E+03  0.19929177824E+03  0.12509000000E+03 0.  0.
         25    1    3    3    0    0 -0.30649442957E+02  0.95738506139E+02  0.33679822954E+03  0.37307613892E+03  0.12509000000E+03 0.  0.
         25    1    3    3    0    0  0.40466223221E+02 -0.44378082500E+02  0.34754186089E+03  0.37421889663E+03  0.12509000000E+03 0.  0.
<mgrwt>
<rscale>  2 0.45436921E+03</rscale>
<asrwt>0</asrwt>
<pdfrwt beam="1">  1       21 0.13066128E+00 0.45436921E+03</pdfrwt>
<pdfrwt beam="2">  1       21 0.85426590E-02 0.45436921E+03</pdfrwt>
<totfact> 0.41483577E+04</totfact>
</mgrwt>
</event>
<event>
 6    0  0.1572624E-007  0.4497898E+03  0.7546771E-02  0.1027785E+00
         21   -1    0    0  502  501  0.00000000000E+00  0.00000000000E+00  0.93212815770E+02  0.93212815770E+02  0.00000000000E+00 0. -1.
         21   -1    0    0  501  502 -0.00000000000E+00 -0.00000000000E+00 -0.54260481955E+03  0.54260481955E+03  0.00000000000E+00 0. -1.
      99926    2    1    2    0    0  0.00000000000E+00  0.00000000000E+00 -0.44939200378E+03  0.63581763532E+03  0.44978983128E+03 0.  0.
         25    1    3    3    0    0 -0.28980309096E+02 -0.48452582873E+02 -0.15696530374E+03  0.20850210018E+03  0.12509000000E+03 0.  0.
         25    1    3    3    0    0 -0.27779249962E+02 -0.55014187399E+02 -0.12405598775E+03  0.18664309186E+03  0.12509000000E+03 0.  0.
         25    1    3    3    0    0  0.56759559057E+02  0.10346677027E+03 -0.16837071229E+03  0.24067244328E+03  0.12509000000E+03 0.  0.
<mgrwt>
<rscale>  2 0.44978983E+03</rscale>
<asrwt>0</asrwt>
<pdfrwt beam="1">  1       21 0.13707767E-01 0.44978983E+03</pdfrwt>
<pdfrwt beam="2">  1       21 0.79794828E-01 0.44978983E+03</pdfrwt>
<totfact> 0.58911348E+04</totfact>
</mgrwt>
</event>
<event>
 6    0  0.1572624E-007  0.4548670E+03  0.7546771E-02  0.1026281E+00
         21   -1    0    0  502  501  0.00000000000E+00  0.00000000000E+00  0.17075694171E+04  0.17075694171E+04  0.00000000000E+00 0.  1.
         21   -1    0    0  501  502 -0.00000000000E+00 -0.00000000000E+00 -0.30292172349E+02  0.30292172349E+02  0.00000000000E+00 0.  1.
      99926    2    1    2    0    0  0.71054273576E-14  0.00000000000E+00  0.16772772448E+04  0.17378615895E+04  0.45486695673E+03 0.  0.
         25    1    3    3    0    0  0.19179703449E+02 -0.42357039633E+02  0.38813792370E+03  0.41043944223E+03  0.12509000000E+03 0.  0.
         25    1    3    3    0    0 -0.59783376195E+02 -0.23407916460E+02  0.35585602051E+03  0.38262644714E+03  0.12509000000E+03 0.  0.
         25    1    3    3    0    0  0.40603672746E+02  0.65764956093E+02  0.93328330055E+03  0.94479570008E+03  0.12509000000E+03 0.  0.
<mgrwt>
<rscale>  2 0.45486696E+03</rscale>
<asrwt>0</asrwt>
<pdfrwt beam="1">  1       21 0.25111308E+00 0.45486696E+03</pdfrwt>
<pdfrwt beam="2">  1       21 0.44547324E-02 0.45486696E+03</pdfrwt>
<totfact> 0.18503691E+04</totfact>
</mgrwt>
</event>
<event>
 6    0  0.1572624E-007  0.4534290E+03  0.7546771E-02  0.1026704E+00
         21   -1    0    0  502  501  0.00000000000E+00  0.00000000000E+00  0.90436779889E+03  0.90436779889E+03  0.00000000000E+00 0. -1.
         21   -1    0    0  501  502 -0.00000000000E+00 -0.00000000000E+00 -0.56834688533E+02  0.56834688533E+02  0.00000000000E+00 0. -1.
      99926    2    1    2    0    0  0.00000000000E+00  0.00000000000E+00  0.84753311035E+03  0.96120248742E+03  0.45342898967E+03 0.  0.
         25    1    3    3    0    0 -0.30873272115E+02 -0.78249365714E+02  0.22990596103E+03  0.27491886291E+03  0.12509000000E+03 0.  0.
         25    1    3    3    0    0  0.34201222781E+02  0.33877615200E+02  0.46528458144E+03  0.48420519026E+03  0.12509000000E+03 0.  0.
         25    1    3    3    0    0 -0.33279506662E+01  0.44371750514E+02  0.15234256788E+03  0.20207843425E+03  0.12509000000E+03 0.  0.
<mgrwt>
<rscale>  2 0.45342899E+03</rscale>
<asrwt>0</asrwt>
<pdfrwt beam="1">  1       21 0.13299526E+00 0.45342899E+03</pdfrwt>
<pdfrwt beam="2">  1       21 0.83580430E-02 0.45342899E+03</pdfrwt>
<totfact> 0.41194194E+04</totfact>
</mgrwt>
</event>
<event>
 6    0  0.1572624E-007  0.4551800E+03  0.7546771E-02  0.1026188E+00
         21   -1    0    0  502  501  0.00000000000E+00  0.00000000000E+00  0.54759151666E+02  0.54759151666E+02  0.00000000000E+00 0. -1.
         21   -1    0    0  501  502 -0.00000000000E+00 -0.00000000000E+00 -0.94590954315E+03  0.94590954315E+03  0.00000000000E+00 0. -1.
      99926    2    1    2    0    0  0.35527136788E-14  0.00000000000E+00 -0.89115039148E+03  0.10006686948E+04  0.45517998258E+03 0.  0.
         25    1    3    3    0    0 -0.25250068521E+02 -0.74790369606E+02 -0.38448445365E+03  0.41195505646E+03  0.12509000000E+03 0.  0.
         25    1    3    3    0    0  0.63336491221E+02  0.20130495754E+02 -0.34934262731E+03  0.37696754149E+03  0.12509000000E+03 0.  0.
         25    1    3    3    0    0 -0.38086422700E+02  0.54659873852E+02 -0.15732331052E+03  0.21174609687E+03  0.12509000000E+03 0.  0.
<mgrwt>
<rscale>  2 0.45517998E+03</rscale>
<asrwt>0</asrwt>
<pdfrwt beam="1">  1       21 0.80528165E-02 0.45517998E+03</pdfrwt>
<pdfrwt beam="2">  1       21 0.13910434E+00 0.45517998E+03</pdfrwt>
<totfact> 0.39085830E+04</totfact>
</mgrwt>
</event>
<event>
 6    0  0.1572624E-007  0.4537386E+03  0.7546771E-02  0.1026613E+00
         21   -1    0    0  502  501  0.00000000000E+00  0.00000000000E+00  0.11903972354E+04  0.11903972354E+04  0.00000000000E+00 0.  1.
         21   -1    0    0  501  502 -0.00000000000E+00 -0.00000000000E+00 -0.43237403096E+02  0.43237403096E+02  0.00000000000E+00 0.  1.
      99926    2    1    2    0    0  0.00000000000E+00  0.44408920985E-15  0.11471598323E+04  0.12336346385E+04  0.45373862570E+03 0.  0.
         25    1    3    3    0    0  0.52746308238E+02 -0.10575816775E+02  0.18742089331E+03  0.23166380874E+03  0.12509000000E+03 0.  0.
         25    1    3    3    0    0 -0.68426019939E+02 -0.58078505964E+00  0.32755276593E+03  0.35724050734E+03  0.12509000000E+03 0.  0.
         25    1    3    3    0    0  0.15679711700E+02  0.11156601835E+02  0.63218617309E+03  0.64473032243E+03  0.12509000000E+03 0.  0.
<mgrwt>
<rscale>  2 0.45373863E+03</rscale>
<asrwt>0</asrwt>
<pdfrwt beam="1">  1       21 0.17505839E+00 0.45373863E+03</pdfrwt>
<pdfrwt beam="2">  1       21 0.63584424E-02 0.45373863E+03</pdfrwt>
<totfact> 0.31411984E+04</totfact>
</mgrwt>
</event>
<event>
 6    0  0.1572624E-007  0.4530480E+03  0.7546771E-02  0.1026817E+00
         21   -1    0    0  502  501  0.00000000000E+00  0.00000000000E+00  0.49316753607E+03  0.49316753607E+03  0.00000000000E+00 0. -1.
         21   -1    0    0  501  502 -0.00000000000E+00 -0.00000000000E+00 -0.10404805571E+03  0.10404805571E+03  0.00000000000E+00 0. -1.
      99926    2    1    2    0    0 -0.53290705182E-14  0.88817841970E-15  0.38911948036E+03  0.59721559178E+03  0.45304800305E+03 0.  0.
         25    1    3    3    0    0 -0.63635063415E+02 -0.51752214985E+02  0.17298344000E+03  0.22868863475E+03  0.12509000000E+03 0.  0.
         25    1    3    3    0    0  0.69899402746E+01 -0.47279710476E+01  0.27307595924E+02  0.12831377896E+03  0.12509000000E+03 0.  0.
         25    1    3    3    0    0  0.56645123141E+02  0.56480186033E+02  0.18882844444E+03  0.24021317807E+03  0.12509000000E+03 0.  0.
<mgrwt>
<rscale>  2 0.45304800E+03</rscale>
<asrwt>0</asrwt>
<pdfrwt beam="1">  1       21 0.72524637E-01 0.45304800E+03</pdfrwt>
<pdfrwt beam="2">  1       21 0.15301185E-01 0.45304800E+03</pdfrwt>
<totfact> 0.59766520E+04</totfact>
</mgrwt>
</event>
<event>
 6    0  0.1572624E-007  0.4475972E+03  0.7546771E-02  0.1028441E+00
         21   -1    0    0  502  501  0.00000000000E+00  0.00000000000E+00  0.10879532352E+03  0.10879532352E+03  0.00000000000E+00 0. -1.
         21   -1    0    0  501  502 -0.00000000000E+00 -0.00000000000E+00 -0.46036738246E+03  0.46036738246E+03  0.00000000000E+00 0. -1.
      99926    2    1    2    0    0  0.00000000000E+00 -0.71054273576E-14 -0.35157205894E+03  0.56916270598E+03  0.44759722212E+03 0.  0.
         25    1    3    3    0    0  0.30163223958E+02 -0.33949259337E+02 -0.17968434177E+03  0.22359862045E+03  0.12509000000E+03 0.  0.
         25    1    3    3    0    0 -0.15054194540E+02  0.85657484736E+02 -0.13718747113E+03  0.20501644763E+03  0.12509000000E+03 0.  0.
         25    1    3    3    0    0 -0.15109029418E+02 -0.51708225399E+02 -0.34700246046E+02  0.14054763790E+03  0.12509000000E+03 0.  0.
<mgrwt>
<rscale>  2 0.44759722E+03</rscale>
<asrwt>0</asrwt>
<pdfrwt beam="1">  1       21 0.15999312E-01 0.44759722E+03</pdfrwt>
<pdfrwt beam="2">  1       21 0.67701086E-01 0.44759722E+03</pdfrwt>
<totfact> 0.64299967E+04</totfact>
</mgrwt>
</event>
<event>
 6    0  0.1572624E-007  0.4580011E+03  0.7546771E-02  0.1025363E+00
         21   -1    0    0  502  501  0.00000000000E+00  0.00000000000E+00  0.43128845325E+02  0.43128845325E+02  0.00000000000E+00 0.  1.
         21   -1    0    0  501  502 -0.00000000000E+00 -0.00000000000E+00 -0.12159206386E+04  0.12159206386E+04  0.00000000000E+00 0.  1.
      99926    2    1    2    0    0 -0.17763568394E-14  0.00000000000E+00 -0.11727917933E+04  0.12590494840E+04  0.45800110546E+03 0.  0.
         25    1    3    3    0    0 -0.86976655002E+02 -0.48001958496E+02 -0.53025742501E+03  0.55379560437E+03  0.12509000000E+03 0.  0.
         25    1    3    3    0    0 -0.83978005625E+01  0.44356135152E+02 -0.27564048568E+03  0.30604440074E+03  0.12509000000E+03 0.  0.
         25    1    3    3    0    0  0.95374455564E+02  0.36458233444E+01 -0.36689388262E+03  0.39920947885E+03  0.12509000000E+03 0.  0.
<mgrwt>
<rscale>  2 0.45800111E+03</rscale>
<asrwt>0</asrwt>
<pdfrwt beam="1">  1       21 0.63424769E-02 0.45800111E+03</pdfrwt>
<pdfrwt beam="2">  1       21 0.17881187E+00 0.45800111E+03</pdfrwt>
<totfact> 0.29629332E+04</totfact>
</mgrwt>
</event>
<event>
 6    0  0.1572624E-007  0.4548344E+03  0.7546771E-02  0.1026290E+00
         21   -1    0    0  502  501  0.00000000000E+00  0.00000000000E+00  0.58354797649E+03  0.58354797649E+03  0.00000000000E+00 0.  1.
         21   -1    0    0  501  502 -0.00000000000E+00 -0.00000000000E+00 -0.88627798614E+02  0.88627798614E+02  0.00000000000E+00 0.  1.
      99926    2    1    2    0    0  0.00000000000E+00 -0.71054273576E-14  0.49492017787E+03  0.67217577510E+03  0.45483435465E+03 0.  0.
         25    1    3    3    0    0  0.56038851150E+02 -0.36255417993E+02  0.20645594677E+03  0.25045233923E+03  0.12509000000E+03 0.  0.
         25    1    3    3    0    0  0.37313368487E+02  0.49148439693E+02  0.79385530814E+02  0.16049120597E+03  0.12509000000E+03 0.  0.
         25    1    3    3    0    0 -0.93352219636E+02 -0.12893021699E+02  0.20907870029E+03  0.26123222989E+03  0.12509000000E+03 0.  0.
<mgrwt>
<rscale>  2 0.45483435E+03</rscale>
<asrwt>0</asrwt>
<pdfrwt beam="1">  1       21 0.85815878E-01 0.45483435E+03</pdfrwt>
<pdfrwt beam="2">  1       21 0.13033500E-01 0.45483435E+03</pdfrwt>
<totfact> 0.54511174E+04</totfact>
</mgrwt>
</event>
<event>
 6    0  0.1572624E-007  0.4811286E+03  0.7546771E-02  0.1018825E+00
         21   -1    0    0  502  501  0.00000000000E+00  0.00000000000E+00  0.85799614910E+02  0.85799614910E+02  0.00000000000E+00 0.  1.
         21   -1    0    0  501  502 -0.00000000000E+00 -0.00000000000E+00 -0.67449240373E+03  0.67449240373E+03  0.00000000000E+00 0.  1.
      99926    2    1    2    0    0  0.00000000000E+00  0.00000000000E+00 -0.58869278882E+03  0.76029201864E+03  0.48112862521E+03 0.  0.
         25    1    3    3    0    0  0.34763156667E+02  0.84762657782E+02 -0.34579621738E+03  0.37896664400E+03  0.12509000000E+03 0.  0.
         25    1    3    3    0    0  0.15754577681E+02  0.12518984769E+02 -0.12018797663E+03  0.17463559066E+03  0.12509000000E+03 0.  0.
         25    1    3    3    0    0 -0.50517734348E+02 -0.97281642550E+02 -0.12270859481E+03  0.20668978398E+03  0.12509000000E+03 0.  0.
<mgrwt>
<rscale>  2 0.48112863E+03</rscale>
<asrwt>0</asrwt>
<pdfrwt beam="1">  1       21 0.12617591E-01 0.48112863E+03</pdfrwt>
<pdfrwt beam="2">  1       21 0.99190058E-01 0.48112863E+03</pdfrwt>
<totfact> 0.40721439E+04</totfact>
</mgrwt>
</event>
<event>
 6    0  0.1572624E-007  0.4589809E+03  0.7546771E-02  0.1025077E+00
         21   -1    0    0  502  501  0.00000000000E+00  0.00000000000E+00  0.52120288957E+03  0.52120288957E+03  0.00000000000E+00 0. -1.
         21   -1    0    0  501  502 -0.00000000000E+00 -0.00000000000E+00 -0.10104675438E+03  0.10104675438E+03  0.00000000000E+00 0. -1.
      99926    2    1    2    0    0  0.00000000000E+00 -0.35527136788E-14  0.42015613519E+03  0.62224964395E+03  0.45898087266E+03 0.  0.
         25    1    3    3    0    0  0.35721587398E+02 -0.21021281376E+02  0.20420511723E+03  0.24303325715E+03  0.12509000000E+03 0.  0.
         25    1    3    3    0    0 -0.90479567347E+02  0.51137332102E+02  0.16138219594E+03  0.22911416392E+03  0.12509000000E+03 0.  0.
         25    1    3    3    0    0  0.54757979949E+02 -0.30116050726E+02  0.54568822021E+02  0.15010222289E+03  0.12509000000E+03 0.  0.
<mgrwt>
<rscale>  2 0.45898087E+03</rscale>
<asrwt>0</asrwt>
<pdfrwt beam="1">  1       21 0.76647482E-01 0.45898087E+03</pdfrwt>
<pdfrwt beam="2">  1       21 0.14859817E-01 0.45898087E+03</pdfrwt>
<totfact> 0.55562002E+04</totfact>
</mgrwt>
</event>
<event>
 6    0  0.1572624E-007  0.4576458E+03  0.7546771E-02  0.1025466E+00
         21   -1    0    0  502  501  0.00000000000E+00  0.00000000000E+00  0.45631392648E+02  0.45631392648E+02  0.00000000000E+00 0.  1.
         21   -1    0    0  501  502 -0.00000000000E+00 -0.00000000000E+00 -0.11474536733E+04  0.11474536733E+04  0.00000000000E+00 0.  1.
      99926    2    1    2    0    0  0.71054273576E-14  0.00000000000E+00 -0.11018222806E+04  0.11930850659E+04  0.45764575432E+03 0.  0.
         25    1    3    3    0    0 -0.55095929597E+02  0.32466297473E+02 -0.43646313018E+03  0.45851629637E+03  0.12509000000E+03 0.  0.
         25    1    3    3    0    0  0.10385736974E+03  0.25979316481E+02 -0.36508231515E+03  0.40049205120E+03  0.12509000000E+03 0.  0.
         25    1    3    3    0    0 -0.48761440144E+02 -0.58445613954E+02 -0.30027683531E+03  0.33407671838E+03  0.12509000000E+03 0.  0.
<mgrwt>
<rscale>  2 0.45764575E+03</rscale>
<asrwt>0</asrwt>
<pdfrwt beam="1">  1       21 0.67105001E-02 0.45764575E+03</pdfrwt>
<pdfrwt beam="2">  1       21 0.16874316E+00 0.45764575E+03</pdfrwt>
<totfact> 0.31717081E+04</totfact>
</mgrwt>
</event>
<event>
 6    0  0.1572624E-007  0.4545375E+03  0.7546771E-02  0.1026377E+00
         21   -1    0    0  502  501  0.00000000000E+00  0.00000000000E+00  0.73366867341E+03  0.73366867341E+03  0.00000000000E+00 0. -1.
         21   -1    0    0  501  502 -0.00000000000E+00 -0.00000000000E+00 -0.70401101969E+02  0.70401101969E+02  0.00000000000E+00 0. -1.
      99926    2    1    2    0    0 -0.35527136788E-14  0.00000000000E+00  0.66326757144E+03  0.80406977538E+03  0.45453749279E+03 0.  0.
         25    1    3    3    0    0 -0.58856525688E+02  0.28642413622E+02  0.13437593646E+03  0.19490735972E+03  0.12509000000E+03 0.  0.
         25    1    3    3    0    0  0.75016317375E+02  0.19064764241E+02  0.38408239859E+03  0.41128786769E+03  0.12509000000E+03 0.  0.
         25    1    3    3    0    0 -0.16159791686E+02 -0.47707177863E+02  0.14480923640E+03  0.19787454797E+03  0.12509000000E+03 0.  0.
<mgrwt>
<rscale>  2 0.45453749E+03</rscale>
<asrwt>0</asrwt>
<pdfrwt beam="1">  1       21 0.10789245E+00 0.45453749E+03</pdfrwt>
<pdfrwt beam="2">  1       21 0.10353104E-01 0.45453749E+03</pdfrwt>
<totfact> 0.47741632E+04</totfact>
</mgrwt>
</event>
<event>
 6    0  0.1572624E-007  0.4696738E+03  0.7546771E-02  0.1022012E+00
         21   -1    0    0  502  501  0.00000000000E+00  0.00000000000E+00  0.27301318317E+03  0.27301318317E+03  0.00000000000E+00 0. -1.
         21   -1    0    0  501  502 -0.00000000000E+00 -0.00000000000E+00 -0.20199895090E+03  0.20199895090E+03  0.00000000000E+00 0. -1.
      99926    2    1    2    0    0  0.00000000000E+00  0.00000000000E+00  0.71014232272E+02  0.47501213407E+03  0.46967382973E+03 0.  0.
         25    1    3    3    0    0  0.45712140609E+01  0.82130691517E+01 -0.42578986622E+02  0.13247199215E+03  0.12509000000E+03 0.  0.
         25    1    3    3    0    0  0.72201011839E+02  0.32130382010E+02  0.11952903411E+03  0.19021052982E+03  0.12509000000E+03 0.  0.
         25    1    3    3    0    0 -0.76772225900E+02 -0.40343451162E+02 -0.59358152169E+01  0.15232961210E+03  0.12509000000E+03 0.  0.
<mgrwt>
<rscale>  2 0.46967383E+03</rscale>
<asrwt>0</asrwt>
<pdfrwt beam="1">  1       21 0.40148998E-01 0.46967383E+03</pdfrwt>
<pdfrwt beam="2">  1       21 0.29705728E-01 0.46967383E+03</pdfrwt>
<totfact> 0.59788780E+04</totfact>
</mgrwt>
</event>
<event>
 6    0  0.1572624E-007  0.4401381E+03  0.7546771E-02  0.1030704E+00
         21   -1    0    0  502  501  0.00000000000E+00  0.00000000000E+00  0.55853862667E+03  0.55853862667E+03  0.00000000000E+00 0. -1.
         21   -1    0    0  501  502 -0.00000000000E+00 -0.00000000000E+00 -0.86709114379E+02  0.86709114379E+02  0.00000000000E+00 0. -1.
      99926    2    1    2    0    0  0.35527136788E-14  0.00000000000E+00  0.47182951230E+03  0.64524774105E+03  0.44013811317E+03 0.  0.
         25    1    3    3    0    0 -0.14857369931E+02  0.51537204467E+02  0.53284025705E+02  0.14616265043E+03  0.12509000000E+03 0.  0.
         25    1    3    3    0    0 -0.31258904975E+02 -0.47053629072E+02  0.23571110465E+03  0.27276069384E+03  0.12509000000E+03 0.  0.
         25    1    3    3    0    0  0.46116274906E+02 -0.44835753949E+01  0.18283438194E+03  0.22632439679E+03  0.12509000000E+03 0.  0.
<mgrwt>
<rscale>  2 0.44013811E+03</rscale>
<asrwt>0</asrwt>
<pdfrwt beam="1">  1       21 0.82138031E-01 0.44013811E+03</pdfrwt>
<pdfrwt beam="2">  1       21 0.12751341E-01 0.44013811E+03</pdfrwt>
<totfact> 0.63048753E+04</totfact>
</mgrwt>
</event>
<event>
 6    0  0.1572624E-007  0.4662983E+03  0.7546771E-02  0.1022970E+00
         21   -1    0    0  502  501  0.00000000000E+00  0.00000000000E+00  0.15241290969E+03  0.15241290969E+03  0.00000000000E+00 0. -1.
         21   -1    0    0  501  502 -0.00000000000E+00 -0.00000000000E+00 -0.35665306960E+03  0.35665306960E+03  0.00000000000E+00 0. -1.
      99926    2    1    2    0    0  0.00000000000E+00  0.10658141036E-13 -0.20424015991E+03  0.50906597929E+03  0.46629832548E+03 0.  0.
         25    1    3    3    0    0 -0.54996778892E+01  0.17430254739E+02 -0.59303782606E+01  0.12655725077E+03  0.12509000000E+03 0.  0.
         25    1    3    3    0    0 -0.23226507746E+01  0.91642475322E+02 -0.59860674900E+02  0.16623641746E+03  0.12509000000E+03 0.  0.
         25    1    3    3    0    0  0.78223286638E+01 -0.10907273006E+03 -0.13844910675E+03  0.21627231105E+03  0.12509000000E+03 0.  0.
<mgrwt>
<rscale>  2 0.46629833E+03</rscale>
<asrwt>0</asrwt>
<pdfrwt beam="1">  1       21 0.22413664E-01 0.46629833E+03</pdfrwt>
<pdfrwt beam="2">  1       21 0.52448980E-01 0.46629833E+03</pdfrwt>
<totfact> 0.59152717E+04</totfact>
</mgrwt>
</event>
<event>
 6    0  0.1572624E-007  0.4641083E+03  0.7546771E-02  0.1023596E+00
         21   -1    0    0  502  501  0.00000000000E+00  0.00000000000E+00  0.98764790551E+02  0.98764790551E+02  0.00000000000E+00 0. -1.
         21   -1    0    0  501  502 -0.00000000000E+00 -0.00000000000E+00 -0.54522600368E+03  0.54522600368E+03  0.00000000000E+00 0. -1.
      99926    2    1    2    0    0  0.71054273576E-14  0.00000000000E+00 -0.44646121313E+03  0.64399079423E+03  0.46410831519E+03 0.  0.
         25    1    3    3    0    0 -0.11035639798E+03 -0.41464508102E+02 -0.20493539214E+03  0.26747684584E+03  0.12509000000E+03 0.  0.
         25    1    3    3    0    0  0.54773224432E+02  0.19828024087E+02 -0.17480838136E+03  0.22270773437E+03  0.12509000000E+03 0.  0.
         25    1    3    3    0    0  0.55583173551E+02  0.21636484015E+02 -0.66717439635E+02  0.15380621403E+03  0.12509000000E+03 0.  0.
<mgrwt>
<rscale>  2 0.46410832E+03</rscale>
<asrwt>0</asrwt>
<pdfrwt beam="1">  1       21 0.14524234E-01 0.46410832E+03</pdfrwt>
<pdfrwt beam="2">  1       21 0.80180295E-01 0.46410832E+03</pdfrwt>
<totfact> 0.52195118E+04</totfact>
</mgrwt>
</event>
<event>
 6    0  0.1572624E-007  0.4751692E+03  0.7546771E-02  0.1020471E+00
         21   -1    0    0  502  501  0.00000000000E+00  0.00000000000E+00  0.70841720545E+02  0.70841720545E+02  0.00000000000E+00 0.  1.
         21   -1    0    0  501  502 -0.00000000000E+00 -0.00000000000E+00 -0.79679665609E+03  0.79679665609E+03  0.00000000000E+00 0.  1.
      99926    2    1    2    0    0  0.00000000000E+00 -0.71054273576E-14 -0.72595493554E+03  0.86763837663E+03  0.47516921635E+03 0.  0.
         25    1    3    3    0    0  0.97014911486E+02 -0.81633243209E+02 -0.18990990191E+03  0.26036351202E+03  0.12509000000E+03 0.  0.
         25    1    3    3    0    0 -0.61930238938E+02  0.52880107939E+02 -0.23886342223E+03  0.28166452189E+03  0.12509000000E+03 0.  0.
         25    1    3    3    0    0 -0.35084672548E+02  0.28753135270E+02 -0.29718161140E+03  0.32561034272E+03  0.12509000000E+03 0.  0.
<mgrwt>
<rscale>  2 0.47516922E+03</rscale>
<asrwt>0</asrwt>
<pdfrwt beam="1">  1       21 0.10417900E-01 0.47516922E+03</pdfrwt>
<pdfrwt beam="2">  1       21 0.11717597E+00 0.47516922E+03</pdfrwt>
<totfact> 0.38242025E+04</totfact>
</mgrwt>
</event>
<event>
 6    0  0.1572624E-007  0.4772344E+03  0.7546771E-02  0.1019898E+00
         21   -1    0    0  502  501  0.00000000000E+00  0.00000000000E+00  0.45714750665E+02  0.45714750665E+02  0.00000000000E+00 0.  1.
         21   -1    0    0  501  502 -0.00000000000E+00 -0.00000000000E+00 -0.12455096937E+04  0.12455096937E+04  0.00000000000E+00 0.  1.
      99926    2    1    2    0    0  0.17763568394E-14  0.00000000000E+00 -0.11997949431E+04  0.12912244444E+04  0.47723438728E+03 0.  0.
         25    1    3    3    0    0  0.72423531990E+01  0.70803621169E+02 -0.33494392581E+03  0.36455527152E+03  0.12509000000E+03 0.  0.
         25    1    3    3    0    0 -0.33942553499E+02 -0.53526378472E+01 -0.15359832465E+03  0.20104900175E+03  0.12509000000E+03 0.  0.
         25    1    3    3    0    0  0.26700200300E+02 -0.65450983322E+02 -0.71125269261E+03  0.72562017114E+03  0.12509000000E+03 0.  0.
<mgrwt>
<rscale>  2 0.47723439E+03</rscale>
<asrwt>0</asrwt>
<pdfrwt beam="1">  1       21 0.67227579E-02 0.47723439E+03</pdfrwt>
<pdfrwt beam="2">  1       21 0.18316318E+00 0.47723439E+03</pdfrwt>
<totfact> 0.24794814E+04</totfact>
</mgrwt>
</event>
<event>
 6    0  0.1572624E-007  0.4469086E+03  0.7546771E-02  0.1028648E+00
         21   -1    0    0  502  501  0.00000000000E+00  0.00000000000E+00  0.31502090161E+02  0.31502090161E+02  0.00000000000E+00 0. -1.
         21   -1    0    0  501  502 -0.00000000000E+00 -0.00000000000E+00 -0.15850318854E+04  0.15850318854E+04  0.00000000000E+00 0. -1.
      99926    2    1    2    0    0  0.00000000000E+00  0.00000000000E+00 -0.15535297952E+04  0.16165339755E+04  0.44690856945E+03 0.  0.
         25    1    3    3    0    0 -0.37534588806E+02  0.29106383315E+02 -0.48995220074E+03  0.50789437290E+03  0.12509000000E+03 0.  0.
         25    1    3    3    0    0  0.54998071139E+02 -0.59560580780E+02 -0.31038323395E+03  0.34432181259E+03  0.12509000000E+03 0.  0.
         25    1    3    3    0    0 -0.17463482334E+02  0.30454197464E+02 -0.75319436052E+03  0.76431779005E+03  0.12509000000E+03 0.  0.
<mgrwt>
<rscale>  2 0.44690857E+03</rscale>
<asrwt>0</asrwt>
<pdfrwt beam="1">  1       21 0.46326604E-02 0.44690857E+03</pdfrwt>
<pdfrwt beam="2">  1       21 0.23309292E+00 0.44690857E+03</pdfrwt>
<totfact> 0.22435563E+04</totfact>
</mgrwt>
</event>
<event>
 6    0  0.1572624E-007  0.4538398E+03  0.7546771E-02  0.1026583E+00
         21   -1    0    0  502  501  0.00000000000E+00  0.00000000000E+00  0.98130815009E+03  0.98130815009E+03  0.00000000000E+00 0.  1.
         21   -1    0    0  501  502 -0.00000000000E+00 -0.00000000000E+00 -0.52473472352E+02  0.52473472352E+02  0.00000000000E+00 0.  1.
      99926    2    1    2    0    0 -0.17763568394E-14 -0.71054273576E-14  0.92883467774E+03  0.10337816224E+04  0.45383982233E+03 0.  0.
         25    1    3    3    0    0  0.86546565873E+01  0.37701495244E+02  0.33079401629E+03  0.35576466257E+03  0.12509000000E+03 0.  0.
         25    1    3    3    0    0  0.25156522240E+02 -0.10794368220E+03  0.37646651945E+03  0.41189712005E+03  0.12509000000E+03 0.  0.
         25    1    3    3    0    0 -0.33811178827E+02  0.70242186959E+02  0.22157414200E+03  0.26611983982E+03  0.12509000000E+03 0.  0.
<mgrwt>
<rscale>  2 0.45383982E+03</rscale>
<asrwt>0</asrwt>
<pdfrwt beam="1">  1       21 0.14431001E+00 0.45383982E+03</pdfrwt>
<pdfrwt beam="2">  1       21 0.77166877E-02 0.45383982E+03</pdfrwt>
<totfact> 0.38223202E+04</totfact>
</mgrwt>
</event>
<event>
 6    0  0.1572624E-007  0.4561649E+03  0.7546771E-02  0.1025899E+00
         21   -1    0    0  502  501  0.00000000000E+00  0.00000000000E+00  0.41019252486E+03  0.41019252486E+03  0.00000000000E+00 0.  1.
         21   -1    0    0  501  502 -0.00000000000E+00 -0.00000000000E+00 -0.12682240897E+03  0.12682240897E+03  0.00000000000E+00 0.  1.
      99926    2    1    2    0    0  0.00000000000E+00  0.35527136788E-14  0.28337011589E+03  0.53701493383E+03  0.45616490063E+03 0.  0.
         25    1    3    3    0    0 -0.45870017978E+02 -0.27590543063E+02  0.11115949430E+03  0.17569643676E+03  0.12509000000E+03 0.  0.
         25    1    3    3    0    0  0.16121895259E+01 -0.23623796896E+01 -0.19105894315E+02  0.12657299590E+03  0.12509000000E+03 0.  0.
         25    1    3    3    0    0  0.44257828452E+02  0.29952922753E+02  0.19131651591E+03  0.23474550117E+03  0.12509000000E+03 0.  0.
<mgrwt>
<rscale>  2 0.45616490E+03</rscale>
<asrwt>0</asrwt>
<pdfrwt beam="1">  1       21 0.60322430E-01 0.45616490E+03</pdfrwt>
<pdfrwt beam="2">  1       21 0.18650354E-01 0.45616490E+03</pdfrwt>
<totfact> 0.62157757E+04</totfact>
</mgrwt>
</event>
<event>
 6    0  0.1572624E-007  0.4481902E+03  0.7546771E-02  0.1028263E+00
         21   -1    0    0  502  501  0.00000000000E+00  0.00000000000E+00  0.60143237933E+02  0.60143237933E+02  0.00000000000E+00 0. -1.
         21   -1    0    0  501  502 -0.00000000000E+00 -0.00000000000E+00 -0.83498367975E+03  0.83498367975E+03  0.00000000000E+00 0. -1.
      99926    2    1    2    0    0  0.00000000000E+00  0.00000000000E+00 -0.77484044181E+03  0.89512691768E+03  0.44819023694E+03 0.  0.
         25    1    3    3    0    0 -0.27865966894E+02  0.36591522840E+01 -0.37681232832E+03  0.39802630614E+03  0.12509000000E+03 0.  0.
         25    1    3    3    0    0  0.28874392278E+02  0.75204970110E+02 -0.22127390181E+03  0.26664426823E+03  0.12509000000E+03 0.  0.
         25    1    3    3    0    0 -0.10084253843E+01 -0.78864122394E+02 -0.17675421169E+03  0.23045634331E+03  0.12509000000E+03 0.  0.
<mgrwt>
<rscale>  2 0.44819024E+03</rscale>
<asrwt>0</asrwt>
<pdfrwt beam="1">  1       21 0.88445947E-02 0.44819024E+03</pdfrwt>
<pdfrwt beam="2">  1       21 0.12279170E+00 0.44819024E+03</pdfrwt>
<totfact> 0.45840542E+04</totfact>
</mgrwt>
</event>
<event>
 6    0  0.1572624E-007  0.4592091E+03  0.7546771E-02  0.1025011E+00
         21   -1    0    0  502  501  0.00000000000E+00  0.00000000000E+00  0.17903799264E+03  0.17903799264E+03  0.00000000000E+00 0.  1.
         21   -1    0    0  501  502 -0.00000000000E+00 -0.00000000000E+00 -0.29445281643E+03  0.29445281643E+03  0.00000000000E+00 0.  1.
      99926    2    1    2    0    0  0.00000000000E+00 -0.88817841970E-15 -0.11541482379E+03  0.47349080907E+03  0.45920906429E+03 0.  0.
         25    1    3    3    0    0 -0.11015800947E+02 -0.10101909407E+03 -0.60982693568E+02  0.17231541502E+03  0.12509000000E+03 0.  0.
         25    1    3    3    0    0 -0.24867922708E+02  0.94806954163E+02  0.26445578384E+01  0.15893795621E+03  0.12509000000E+03 0.  0.
         25    1    3    3    0    0  0.35883723656E+02  0.62121399091E+01 -0.57076688061E+02  0.14223743785E+03  0.12509000000E+03 0.  0.
<mgrwt>
<rscale>  2 0.45920906E+03</rscale>
<asrwt>0</asrwt>
<pdfrwt beam="1">  1       21 0.26329117E-01 0.45920906E+03</pdfrwt>
<pdfrwt beam="2">  1       21 0.43301885E-01 0.45920906E+03</pdfrwt>
<totfact> 0.64979958E+04</totfact>
</mgrwt>
</event>
<event>
 6    0  0.1572624E-007  0.4559030E+03  0.7546771E-02  0.1025976E+00
         21   -1    0    0  502  501  0.00000000000E+00  0.00000000000E+00  0.10489484228E+04  0.10489484228E+04  0.00000000000E+00 0.  1.
         21   -1    0    0  501  502 -0.00000000000E+00 -0.00000000000E+00 -0.49537132399E+02  0.49537132399E+02  0.00000000000E+00 0.  1.
      99926    2    1    2    0    0 -0.88817841970E-15  0.00000000000E+00  0.99941129036E+03  0.10984855552E+04  0.45590304626E+03 0.  0.
         25    1    3    3    0    0  0.82574140958E+01 -0.35174358874E+02  0.26015711530E+03  0.29092035534E+03  0.12509000000E+03 0.  0.
         25    1    3    3    0    0 -0.87925262385E+00 -0.79142453237E+02  0.26006226061E+03  0.29923934983E+03  0.12509000000E+03 0.  0.
         25    1    3    3    0    0 -0.73781614719E+01  0.11431681211E+03  0.47919191444E+03  0.50832584999E+03  0.12509000000E+03 0.  0.
<mgrwt>
<rscale>  2 0.45590305E+03</rscale>
<asrwt>0</asrwt>
<pdfrwt beam="1">  1       21 0.15425711E+00 0.45590305E+03</pdfrwt>
<pdfrwt beam="2">  1       21 0.72848731E-02 0.45590305E+03</pdfrwt>
<totfact> 0.35297488E+04</totfact>
</mgrwt>
</event>
<event>
 6    0  0.1572624E-007  0.4705331E+03  0.7546771E-02  0.1021770E+00
         21   -1    0    0  502  501  0.00000000000E+00  0.00000000000E+00  0.35378816685E+02  0.35378816685E+02  0.00000000000E+00 0.  1.
         21   -1    0    0  501  502 -0.00000000000E+00 -0.00000000000E+00 -0.15645055861E+04  0.15645055861E+04  0.00000000000E+00 0.  1.
      99926    2    1    2    0    0  0.00000000000E+00 -0.17763568394E-14 -0.15291267694E+04  0.15998844028E+04  0.47053312884E+03 0.  0.
         25    1    3    3    0    0  0.92720309465E+02  0.35268996497E+02 -0.70817160586E+03  0.72594454978E+03  0.12509000000E+03 0.  0.
         25    1    3    3    0    0 -0.43635274752E+02 -0.24620653375E+02 -0.60136449398E+03  0.61627670449E+03  0.12509000000E+03 0.  0.
         25    1    3    3    0    0 -0.49085034714E+02 -0.10648343122E+02 -0.21959066961E+03  0.25766314855E+03  0.12509000000E+03 0.  0.
<mgrwt>
<rscale>  2 0.47053313E+03</rscale>
<asrwt>0</asrwt>
<pdfrwt beam="1">  1       21 0.52027661E-02 0.47053313E+03</pdfrwt>
<pdfrwt beam="2">  1       21 0.23007440E+00 0.47053313E+03</pdfrwt>
<totfact> 0.19031432E+04</totfact>
</mgrwt>
</event>
<event>
 6    0  0.1572624E-007  0.4557907E+03  0.7546771E-02  0.1026009E+00
         21   -1    0    0  502  501  0.00000000000E+00  0.00000000000E+00  0.52901375443E+03  0.52901375443E+03  0.00000000000E+00 0. -1.
         21   -1    0    0  501  502 -0.00000000000E+00 -0.00000000000E+00 -0.98175681118E+02  0.98175681118E+02  0.00000000000E+00 0. -1.
      99926    2    1    2    0    0  0.00000000000E+00  0.53290705182E-14  0.43083807331E+03  0.62718943555E+03  0.45579067855E+03 0.  0.
         25    1    3    3    0    0 -0.25406821325E+02 -0.14152118001E+02  0.63914970204E+02  0.14345180560E+03  0.12509000000E+03 0.  0.
         25    1    3    3    0    0  0.12234720351E+02  0.66919745123E+02  0.73684825762E+02  0.16032748460E+03  0.12509000000E+03 0.  0.
         25    1    3    3    0    0  0.13172100974E+02 -0.52767627122E+02  0.29323827735E+03  0.32341014535E+03  0.12509000000E+03 0.  0.
<mgrwt>
<rscale>  2 0.45579068E+03</rscale>
<asrwt>0</asrwt>
<pdfrwt beam="1">  1       21 0.77796139E-01 0.45579068E+03</pdfrwt>
<pdfrwt beam="2">  1       21 0.14437600E-01 0.45579068E+03</pdfrwt>
<totfact> 0.56680492E+04</totfact>
</mgrwt>
</event>
<event>
 6    0  0.1572624E-007  0.4442689E+03  0.7546771E-02  0.1029445E+00
         21   -1    0    0  502  501  0.00000000000E+00  0.00000000000E+00  0.24515998441E+02  0.24515998441E+02  0.00000000000E+00 0. -1.
         21   -1    0    0  501  502 -0.00000000000E+00 -0.00000000000E+00 -0.20127146655E+04  0.20127146655E+04  0.00000000000E+00 0. -1.
      99926    2    1    2    0    0 -0.17763568394E-14  0.35527136788E-14 -0.19881986671E+04  0.20372306640E+04  0.44426888075E+03 0.  0.
         25    1    3    3    0    0 -0.11939952233E+02 -0.12626464545E+02 -0.77509362510E+03  0.78531498511E+03  0.12509000000E+03 0.  0.
         25    1    3    3    0    0 -0.19998573058E+02 -0.69686419101E+02 -0.76029398423E+03  0.77391898187E+03  0.12509000000E+03 0.  0.
         25    1    3    3    0    0  0.31938525291E+02  0.82312883646E+02 -0.45281105774E+03  0.47799669698E+03  0.12509000000E+03 0.  0.
<mgrwt>
<rscale>  2 0.44426888E+03</rscale>
<asrwt>0</asrwt>
<pdfrwt beam="1">  1       21 0.36052944E-02 0.44426888E+03</pdfrwt>
<pdfrwt beam="2">  1       21 0.29598741E+00 0.44426888E+03</pdfrwt>
<totfact> 0.14263082E+04</totfact>
</mgrwt>
</event>
<event>
 6    0  0.1572624E-007  0.4518019E+03  0.7546771E-02  0.1027186E+00
         21   -1    0    0  502  501  0.00000000000E+00  0.00000000000E+00  0.98586868323E+02  0.98586868323E+02  0.00000000000E+00 0. -1.
         21   -1    0    0  501  502 -0.00000000000E+00 -0.00000000000E+00 -0.51762724293E+03  0.51762724293E+03  0.00000000000E+00 0. -1.
      99926    2    1    2    0    0  0.00000000000E+00  0.35527136788E-14 -0.41904037461E+03  0.61621411125E+03  0.45180194262E+03 0.  0.
         25    1    3    3    0    0 -0.75516185597E+01  0.18862700660E+02 -0.28572899958E+03  0.31257222801E+03  0.12509000000E+03 0.  0.
         25    1    3    3    0    0  0.23249148594E+02  0.79070661943E+00 -0.12364112005E+02  0.12783398411E+03  0.12509000000E+03 0.  0.
         25    1    3    3    0    0 -0.15697530034E+02 -0.19653407280E+02 -0.12094726302E+03  0.17580789914E+03  0.12509000000E+03 0.  0.
<mgrwt>
<rscale>  2 0.45180194E+03</rscale>
<asrwt>0</asrwt>
<pdfrwt beam="1">  1       21 0.14498069E-01 0.45180194E+03</pdfrwt>
<pdfrwt beam="2">  1       21 0.76121653E-01 0.45180194E+03</pdfrwt>
<totfact> 0.59171520E+04</totfact>
</mgrwt>
</event>
<event>
 6    0  0.1572624E-007  0.4465709E+03  0.7546771E-02  0.1028750E+00
         21   -1    0    0  502  501  0.00000000000E+00  0.00000000000E+00  0.52280251659E+02  0.52280251659E+02  0.00000000000E+00 0. -1.
         21   -1    0    0  501  502 -0.00000000000E+00 -0.00000000000E+00 -0.95363724411E+03  0.95363724411E+03  0.00000000000E+00 0. -1.
      99926    2    1    2    0    0  0.00000000000E+00  0.00000000000E+00 -0.90135699245E+03  0.10059174958E+04  0.44657091313E+03 0.  0.
         25    1    3    3    0    0  0.82958106204E+01 -0.71008079551E+02 -0.34877348941E+03  0.37736113055E+03  0.12509000000E+03 0.  0.
         25    1    3    3    0    0  0.13780216604E+02  0.62369239860E+02 -0.42787585251E+03  0.45033883878E+03  0.12509000000E+03 0.  0.
         25    1    3    3    0    0 -0.22076027225E+02  0.86388396905E+01 -0.12470765053E+03  0.17821752644E+03  0.12509000000E+03 0.  0.
<mgrwt>
<rscale>  2 0.44657091E+03</rscale>
<asrwt>0</asrwt>
<pdfrwt beam="1">  1       21 0.76882721E-02 0.44657091E+03</pdfrwt>
<pdfrwt beam="2">  1       21 0.14024078E+00 0.44657091E+03</pdfrwt>
<totfact> 0.41609567E+04</totfact>
</mgrwt>
</event>
<event>
 6    0  0.1572624E-007  0.4538710E+03  0.7546771E-02  0.1026574E+00
         21   -1    0    0  502  501  0.00000000000E+00  0.00000000000E+00  0.42759827096E+03  0.42759827096E+03  0.00000000000E+00 0.  1.
         21   -1    0    0  501  502 -0.00000000000E+00 -0.00000000000E+00 -0.12043948974E+03  0.12043948974E+03  0.00000000000E+00 0.  1.
      99926    2    1    2    0    0  0.00000000000E+00  0.00000000000E+00  0.30715878122E+03  0.54803776069E+03  0.45387098416E+03 0.  0.
         25    1    3    3    0    0 -0.29483315340E+02  0.96386695541E+02  0.13112305483E+03  0.20736543726E+03  0.12509000000E+03 0.  0.
         25    1    3    3    0    0  0.66953121247E+02 -0.70504270808E+02  0.90970773115E+02  0.18269308227E+03  0.12509000000E+03 0.  0.
         25    1    3    3    0    0 -0.37469805907E+02 -0.25882424733E+02  0.85064953273E+02  0.15797924117E+03  0.12509000000E+03 0.  0.
<mgrwt>
<rscale>  2 0.45387098E+03</rscale>
<asrwt>0</asrwt>
<pdfrwt beam="1">  1       21 0.62882098E-01 0.45387098E+03</pdfrwt>
<pdfrwt beam="2">  1       21 0.17711690E-01 0.45387098E+03</pdfrwt>
<totfact> 0.62553289E+04</totfact>
</mgrwt>
</event>
<event>
 6    0  0.1572624E-007  0.4608847E+03  0.7546771E-02  0.1024525E+00
         21   -1    0    0  502  501  0.00000000000E+00  0.00000000000E+00  0.13378660813E+03  0.13378660813E+03  0.00000000000E+00 0.  1.
         21   -1    0    0  501  502 -0.00000000000E+00 -0.00000000000E+00 -0.39692822164E+03  0.39692822164E+03  0.00000000000E+00 0.  1.
      99926    2    1    2    0    0  0.00000000000E+00 -0.35527136788E-14 -0.26314161351E+03  0.53071482977E+03  0.46088471637E+03 0.  0.
         25    1    3    3    0    0 -0.11635651068E+02  0.27821936766E+02 -0.14467517042E+03  0.19361782350E+03  0.12509000000E+03 0.  0.
         25    1    3    3    0    0  0.56517341053E+02  0.45473627127E+02 -0.58525679106E-01  0.14460142506E+03  0.12509000000E+03 0.  0.
         25    1    3    3    0    0 -0.44881689985E+02 -0.73295563893E+02 -0.11840791741E+03  0.19249558121E+03  0.12509000000E+03 0.  0.
<mgrwt>
<rscale>  2 0.46088472E+03</rscale>
<asrwt>0</asrwt>
<pdfrwt beam="1">  1       21 0.19674502E-01 0.46088472E+03</pdfrwt>
<pdfrwt beam="2">  1       21 0.58371796E-01 0.46088472E+03</pdfrwt>
<totfact> 0.60296112E+04</totfact>
</mgrwt>
</event>
<event>
 6    0  0.1572624E-007  0.4621130E+03  0.7546771E-02  0.1024170E+00
         21   -1    0    0  502  501  0.00000000000E+00  0.00000000000E+00  0.97567817748E+02  0.97567817748E+02  0.00000000000E+00 0. -1.
         21   -1    0    0  501  502 -0.00000000000E+00 -0.00000000000E+00 -0.54717942407E+03  0.54717942407E+03  0.00000000000E+00 0. -1.
      99926    2    1    2    0    0 -0.17763568394E-14  0.00000000000E+00 -0.44961160632E+03  0.64474724182E+03  0.46211298326E+03 0.  0.
         25    1    3    3    0    0 -0.81301259633E+02 -0.20548268291E+02 -0.99116223708E+02  0.18028771464E+03  0.12509000000E+03 0.  0.
         25    1    3    3    0    0  0.15824040080E+02  0.42517374299E+02 -0.71630300214E+02  0.15111762098E+03  0.12509000000E+03 0.  0.
         25    1    3    3    0    0  0.65477219553E+02 -0.21969106007E+02 -0.27886508240E+03  0.31334190620E+03  0.12509000000E+03 0.  0.
<mgrwt>
<rscale>  2 0.46211298E+03</rscale>
<asrwt>0</asrwt>
<pdfrwt beam="1">  1       21 0.14348209E-01 0.46211298E+03</pdfrwt>
<pdfrwt beam="2">  1       21 0.80467562E-01 0.46211298E+03</pdfrwt>
<totfact> 0.52968934E+04</totfact>
</mgrwt>
</event>
<event>
 6    0  0.1572624E-007  0.4490955E+03  0.7546771E-02  0.1027992E+00
         21   -1    0    0  502  501  0.00000000000E+00  0.00000000000E+00  0.11763321563E+03  0.11763321563E+03  0.00000000000E+00 0.  1.
         21   -1    0    0  501  502 -0.00000000000E+00 -0.00000000000E+00 -0.42863490182E+03  0.42863490182E+03  0.00000000000E+00 0.  1.
      99926    2    1    2    0    0  0.00000000000E+00  0.00000000000E+00 -0.31100168619E+03  0.54626811746E+03  0.44909554366E+03 0.  0.
         25    1    3    3    0    0 -0.29705564677E+02  0.79820604474E+02 -0.10524201557E+03  0.18432888925E+03  0.12509000000E+03 0.  0.
         25    1    3    3    0    0  0.28798973904E+02 -0.11003530626E+03 -0.11759975456E+03  0.20594746877E+03  0.12509000000E+03 0.  0.
         25    1    3    3    0    0  0.90659077317E+00  0.30214701787E+02 -0.88159916061E+02  0.15599175943E+03  0.12509000000E+03 0.  0.
<mgrwt>
<rscale>  2 0.44909554E+03</rscale>
<asrwt>0</asrwt>
<pdfrwt beam="1">  1       21 0.17299003E-01 0.44909554E+03</pdfrwt>
<pdfrwt beam="2">  1       21 0.63034543E-01 0.44909554E+03</pdfrwt>
<totfact> 0.65102448E+04</totfact>
</mgrwt>
</event>
<event>
 6    0  0.1572624E-007  0.4766535E+03  0.7546771E-02  0.1020059E+00
         21   -1    0    0  502  501  0.00000000000E+00  0.00000000000E+00  0.73103320091E+03  0.73103320091E+03  0.00000000000E+00 0.  1.
         21   -1    0    0  501  502 -0.00000000000E+00 -0.00000000000E+00 -0.77697768071E+02  0.77697768071E+02  0.00000000000E+00 0.  1.
      99926    2    1    2    0    0  0.00000000000E+00 -0.71054273576E-14  0.65333543284E+03  0.80873096898E+03  0.47665353496E+03 0.  0.
         25    1    3    3    0    0 -0.54300414183E+02  0.98867764824E+01  0.72616458295E+02  0.15481260105E+03  0.12509000000E+03 0.  0.
         25    1    3    3    0    0 -0.13332890478E+02 -0.53654423354E+02  0.17717387265E+03  0.22381834680E+03  0.12509000000E+03 0.  0.
         25    1    3    3    0    0  0.67633304660E+02  0.43767646872E+02  0.40354510190E+03  0.43010002113E+03  0.12509000000E+03 0.  0.
<mgrwt>
<rscale>  2 0.47665353E+03</rscale>
<asrwt>0</asrwt>
<pdfrwt beam="1">  1       21 0.10750488E+00 0.47665353E+03</pdfrwt>
<pdfrwt beam="2">  1       21 0.11426143E-01 0.47665353E+03</pdfrwt>
<totfact> 0.40087144E+04</totfact>
</mgrwt>
</event>
<event>
 6    0  0.1572624E-007  0.4561147E+03  0.7546771E-02  0.1025914E+00
         21   -1    0    0  502  501  0.00000000000E+00  0.00000000000E+00  0.18375634653E+04  0.18375634653E+04  0.00000000000E+00 0. -1.
         21   -1    0    0  501  502 -0.00000000000E+00 -0.00000000000E+00 -0.28303867336E+02  0.28303867336E+02  0.00000000000E+00 0. -1.
      99926    2    1    2    0    0  0.00000000000E+00  0.10658141036E-13  0.18092595980E+04  0.18658673326E+04  0.45611468971E+03 0.  0.
         25    1    3    3    0    0 -0.58803805377E+02 -0.75080964185E+02  0.55210581296E+03  0.57407610603E+03  0.12509000000E+03 0.  0.
         25    1    3    3    0    0 -0.45740581805E+01  0.92101624380E+02  0.69471916944E+03  0.71188894057E+03  0.12509000000E+03 0.  0.
         25    1    3    3    0    0  0.63377863557E+02 -0.17020660195E+02  0.56243461556E+03  0.57990228603E+03  0.12509000000E+03 0.  0.
<mgrwt>
<rscale>  2 0.45611469E+03</rscale>
<asrwt>0</asrwt>
<pdfrwt beam="1">  1       21 0.27022984E+00 0.45611469E+03</pdfrwt>
<pdfrwt beam="2">  1       21 0.41623347E-02 0.45611469E+03</pdfrwt>
<totfact> 0.15888064E+04</totfact>
</mgrwt>
</event>
<event>
 6    0  0.1572624E-007  0.4574754E+03  0.7546771E-02  0.1025516E+00
         21   -1    0    0  502  501  0.00000000000E+00  0.00000000000E+00  0.30609001367E+02  0.30609001367E+02  0.00000000000E+00 0.  1.
         21   -1    0    0  501  502 -0.00000000000E+00 -0.00000000000E+00 -0.17093312977E+04  0.17093312977E+04  0.00000000000E+00 0.  1.
      99926    2    1    2    0    0  0.00000000000E+00  0.71054273576E-14 -0.16787222963E+04  0.17399402990E+04  0.45747535027E+03 0.  0.
         25    1    3    3    0    0 -0.34459470551E+02  0.13374072099E+02 -0.79186178262E+03  0.80253281041E+03  0.12509000000E+03 0.  0.
         25    1    3    3    0    0 -0.26014982232E+01 -0.73339622041E+02 -0.29970833303E+03  0.33295354172E+03  0.12509000000E+03 0.  0.
         25    1    3    3    0    0  0.37060968775E+02  0.59965549942E+02 -0.58715218065E+03  0.60445394690E+03  0.12509000000E+03 0.  0.
<mgrwt>
<rscale>  2 0.45747535E+03</rscale>
<asrwt>0</asrwt>
<pdfrwt beam="1">  1       21 0.45013239E-02 0.45747535E+03</pdfrwt>
<pdfrwt beam="2">  1       21 0.25137224E+00 0.45747535E+03</pdfrwt>
<totfact> 0.18092380E+04</totfact>
</mgrwt>
</event>
<event>
 6    0  0.1572624E-007  0.4354045E+03  0.7546771E-02  0.1032166E+00
         21   -1    0    0  502  501  0.00000000000E+00  0.00000000000E+00  0.11035975574E+03  0.11035975574E+03  0.00000000000E+00 0.  1.
         21   -1    0    0  501  502 -0.00000000000E+00 -0.00000000000E+00 -0.42945245509E+03  0.42945245509E+03  0.00000000000E+00 0.  1.
      99926    2    1    2    0    0  0.00000000000E+00  0.00000000000E+00 -0.31909269936E+03  0.53981221083E+03  0.43540449261E+03 0.  0.
         25    1    3    3    0    0  0.65702669513E+01  0.30724269669E+02 -0.66214316883E+02  0.14497928478E+03  0.12509000000E+03 0.  0.
         25    1    3    3    0    0 -0.53570044865E+02 -0.57865238883E+02 -0.62209067947E+02  0.16042322716E+03  0.12509000000E+03 0.  0.
         25    1    3    3    0    0  0.46999777913E+02  0.27140969214E+02 -0.19066931453E+03  0.23440969889E+03  0.12509000000E+03 0.  0.
<mgrwt>
<rscale>  2 0.43540449E+03</rscale>
<asrwt>0</asrwt>
<pdfrwt beam="1">  1       21 0.16229376E-01 0.43540449E+03</pdfrwt>
<pdfrwt beam="2">  1       21 0.63154772E-01 0.43540449E+03</pdfrwt>
<totfact> 0.73261937E+04</totfact>
</mgrwt>
</event>
<event>
 6    0  0.1572624E-007  0.4501163E+03  0.7546771E-02  0.1027687E+00
         21   -1    0    0  502  501  0.00000000000E+00  0.00000000000E+00  0.19218680458E+03  0.19218680458E+03  0.00000000000E+00 0. -1.
         21   -1    0    0  501  502 -0.00000000000E+00 -0.00000000000E+00 -0.26355181988E+03  0.26355181988E+03  0.00000000000E+00 0. -1.
      99926    2    1    2    0    0  0.00000000000E+00  0.35527136788E-14 -0.71365015296E+02  0.45573862446E+03  0.45011634987E+03 0.  0.
         25    1    3    3    0    0 -0.46289105089E+02  0.18790261141E+02 -0.11593552943E+01  0.13470192043E+03  0.12509000000E+03 0.  0.
         25    1    3    3    0    0  0.28501054958E+02  0.22056229900E+02  0.52376297575E+02  0.14031953556E+03  0.12509000000E+03 0.  0.
         25    1    3    3    0    0  0.17788050131E+02 -0.40846491041E+02 -0.12258195758E+03  0.18071716847E+03  0.12509000000E+03 0.  0.
<mgrwt>
<rscale>  2 0.45011635E+03</rscale>
<asrwt>0</asrwt>
<pdfrwt beam="1">  1       21 0.28262766E-01 0.45011635E+03</pdfrwt>
<pdfrwt beam="2">  1       21 0.38757620E-01 0.45011635E+03</pdfrwt>
<totfact> 0.71225949E+04</totfact>
</mgrwt>
</event>
<event>
 6    0  0.1572624E-007  0.4549298E+03  0.7546771E-02  0.1026262E+00
         21   -1    0    0  502  501  0.00000000000E+00  0.00000000000E+00  0.38182223643E+02  0.38182223643E+02  0.00000000000E+00 0. -1.
         21   -1    0    0  501  502 -0.00000000000E+00 -0.00000000000E+00 -0.13550884862E+04  0.13550884862E+04  0.00000000000E+00 0. -1.
      99926    2    1    2    0    0  0.00000000000E+00  0.00000000000E+00 -0.13169062626E+04  0.13932707099E+04  0.45492984794E+03 0.  0.
         25    1    3    3    0    0 -0.10220006430E+03 -0.16887813583E+02 -0.43694163743E+03  0.46614971201E+03  0.12509000000E+03 0.  0.
         25    1    3    3    0    0  0.16084547782E+02  0.50452405550E+02 -0.38200383641E+03  0.40543630454E+03  0.12509000000E+03 0.  0.
         25    1    3    3    0    0  0.86115516514E+02 -0.33564591966E+02 -0.49796078872E+03  0.52168469330E+03  0.12509000000E+03 0.  0.
<mgrwt>
<rscale>  2 0.45492985E+03</rscale>
<asrwt>0</asrwt>
<pdfrwt beam="1">  1       21 0.56150326E-02 0.45492985E+03</pdfrwt>
<pdfrwt beam="2">  1       21 0.19927773E+00 0.45492985E+03</pdfrwt>
<totfact> 0.26526332E+04</totfact>
</mgrwt>
</event>
<event>
 6    0  0.1572624E-007  0.4552048E+03  0.7546771E-02  0.1026181E+00
         21   -1    0    0  502  501  0.00000000000E+00  0.00000000000E+00  0.11430933967E+03  0.11430933967E+03  0.00000000000E+00 0.  1.
         21   -1    0    0  501  502 -0.00000000000E+00 -0.00000000000E+00 -0.45318135941E+03  0.45318135941E+03  0.00000000000E+00 0.  1.
      99926    2    1    2    0    0 -0.71054273576E-14  0.44408920985E-15 -0.33887201974E+03  0.56749069908E+03  0.45520484156E+03 0.  0.
         25    1    3    3    0    0 -0.60208136462E+02 -0.21851030334E+02 -0.50594398928E+02  0.14936461604E+03  0.12509000000E+03 0.  0.
         25    1    3    3    0    0  0.44270027943E+02  0.22518774386E+02 -0.41243509295E+02  0.14076741716E+03  0.12509000000E+03 0.  0.
         25    1    3    3    0    0  0.15938108519E+02 -0.66774405183E+00 -0.24703411152E+03  0.27735866588E+03  0.12509000000E+03 0.  0.
<mgrwt>
<rscale>  2 0.45520484E+03</rscale>
<asrwt>0</asrwt>
<pdfrwt beam="1">  1       21 0.16810197E-01 0.45520484E+03</pdfrwt>
<pdfrwt beam="2">  1       21 0.66644316E-01 0.45520484E+03</pdfrwt>
<totfact> 0.60627022E+04</totfact>
</mgrwt>
</event>
<event>
 6    0  0.1572624E-007  0.4575438E+03  0.7546771E-02  0.1025496E+00
         21   -1    0    0  502  501  0.00000000000E+00  0.00000000000E+00  0.68936605759E+03  0.68936605759E+03  0.00000000000E+00 0.  1.
         21   -1    0    0  501  502 -0.00000000000E+00 -0.00000000000E+00 -0.75919857759E+02  0.75919857759E+02  0.00000000000E+00 0.  1.
      99926    2    1    2    0    0  0.26645352591E-14  0.00000000000E+00  0.61344619983E+03  0.76528591535E+03  0.45754375981E+03 0.  0.
         25    1    3    3    0    0  0.77371646497E+02  0.70842503578E+02  0.28281280772E+03  0.32655110519E+03  0.12509000000E+03 0.  0.
         25    1    3    3    0    0 -0.36271167158E+01 -0.69153598528E+02  0.17207625322E+03  0.22372554880E+03  0.12509000000E+03 0.  0.
         25    1    3    3    0    0 -0.73744529781E+02 -0.16889050494E+01  0.15855713890E+03  0.21500926136E+03  0.12509000000E+03 0.  0.
<mgrwt>
<rscale>  2 0.45754376E+03</rscale>
<asrwt>0</asrwt>
<pdfrwt beam="1">  1       21 0.10137736E+00 0.45754376E+03</pdfrwt>
<pdfrwt beam="2">  1       21 0.11164685E-01 0.45754376E+03</pdfrwt>
<totfact> 0.48513434E+04</totfact>
</mgrwt>
</event>
<event>
 6    0  0.1572624E-007  0.4557678E+03  0.7546771E-02  0.1026016E+00
         21   -1    0    0  502  501  0.00000000000E+00  0.00000000000E+00  0.40529481341E+03  0.40529481341E+03  0.00000000000E+00 0. -1.
         21   -1    0    0  501  502 -0.00000000000E+00 -0.00000000000E+00 -0.12813157448E+03  0.12813157448E+03  0.00000000000E+00 0. -1.
      99926    2    1    2    0    0  0.00000000000E+00 -0.35527136788E-14  0.27716323893E+03  0.53342638790E+03  0.45576775916E+03 0.  0.
         25    1    3    3    0    0 -0.57256051491E+02  0.43366006386E+02  0.10494131129E+03  0.17837895856E+03  0.12509000000E+03 0.  0.
         25    1    3    3    0    0  0.10227611325E+03 -0.15370536018E+02  0.14247040743E+03  0.21596754806E+03  0.12509000000E+03 0.  0.
         25    1    3    3    0    0 -0.45020061762E+02 -0.27995470368E+02  0.29751520212E+02  0.13907988128E+03  0.12509000000E+03 0.  0.
<mgrwt>
<rscale>  2 0.45576776E+03</rscale>
<asrwt>0</asrwt>
<pdfrwt beam="1">  1       21 0.59602178E-01 0.45576776E+03</pdfrwt>
<pdfrwt beam="2">  1       21 0.18842879E-01 0.45576776E+03</pdfrwt>
<totfact> 0.62593394E+04</totfact>
</mgrwt>
</event>
<event>
 6    0  0.1572624E-007  0.4648040E+03  0.7546771E-02  0.1023397E+00
         21   -1    0    0  502  501  0.00000000000E+00  0.00000000000E+00  0.87765572599E+03  0.87765572599E+03  0.00000000000E+00 0.  1.
         21   -1    0    0  501  502 -0.00000000000E+00 -0.00000000000E+00 -0.61539720707E+02  0.61539720707E+02  0.00000000000E+00 0.  1.
      99926    2    1    2    0    0  0.35527136788E-14  0.00000000000E+00  0.81611600529E+03  0.93919544670E+03  0.46480399419E+03 0.  0.
         25    1    3    3    0    0 -0.36559909384E+02  0.84840578277E+02  0.15706000942E+03  0.22102014694E+03  0.12509000000E+03 0.  0.
         25    1    3    3    0    0  0.24439296865E+02 -0.20244114021E+02  0.20138764289E+03  0.23918945251E+03  0.12509000000E+03 0.  0.
         25    1    3    3    0    0  0.12120612519E+02 -0.64596464257E+02  0.45766835298E+03  0.47898584725E+03  0.12509000000E+03 0.  0.
<mgrwt>
<rscale>  2 0.46480399E+03</rscale>
<asrwt>0</asrwt>
<pdfrwt beam="1">  1       21 0.12906701E+00 0.46480399E+03</pdfrwt>
<pdfrwt beam="2">  1       21 0.90499594E-02 0.46480399E+03</pdfrwt>
<totfact> 0.38539657E+04</totfact>
</mgrwt>
</event>
<event>
 6    0  0.1572624E-007  0.4569079E+03  0.7546771E-02  0.1025682E+00
         21   -1    0    0  502  501  0.00000000000E+00  0.00000000000E+00  0.60117564191E+02  0.60117564191E+02  0.00000000000E+00 0.  1.
         21   -1    0    0  501  502 -0.00000000000E+00 -0.00000000000E+00 -0.86815224105E+03  0.86815224105E+03  0.00000000000E+00 0.  1.
      99926    2    1    2    0    0  0.00000000000E+00  0.35527136788E-14 -0.80803467686E+03  0.92826980525E+03  0.45690785977E+03 0.  0.
         25    1    3    3    0    0 -0.16131731170E+02  0.34187238147E+02 -0.14337570014E+03  0.19399252433E+03  0.12509000000E+03 0.  0.
         25    1    3    3    0    0 -0.22989308546E+02 -0.39127293880E+02 -0.13869326550E+03  0.19220505568E+03  0.12509000000E+03 0.  0.
         25    1    3    3    0    0  0.39121039716E+02  0.49400557334E+01 -0.52596571122E+03  0.54207222524E+03  0.12509000000E+03 0.  0.
<mgrwt>
<rscale>  2 0.45690786E+03</rscale>
<asrwt>0</asrwt>
<pdfrwt beam="1">  1       21 0.88408185E-02 0.45690786E+03</pdfrwt>
<pdfrwt beam="2">  1       21 0.12766944E+00 0.45690786E+03</pdfrwt>
<totfact> 0.41412075E+04</totfact>
</mgrwt>
</event>
<event>
 6    0  0.1572624E-007  0.4531603E+03  0.7546771E-02  0.1026784E+00
         21   -1    0    0  502  501  0.00000000000E+00  0.00000000000E+00  0.12901770109E+03  0.12901770109E+03  0.00000000000E+00 0. -1.
         21   -1    0    0  501  502 -0.00000000000E+00 -0.00000000000E+00 -0.39791871202E+03  0.39791871202E+03  0.00000000000E+00 0. -1.
      99926    2    1    2    0    0  0.22204460493E-14  0.00000000000E+00 -0.26890101093E+03  0.52693641311E+03  0.45316026943E+03 0.  0.
         25    1    3    3    0    0 -0.30247553224E+01 -0.14371858460E+02 -0.11417811280E+03  0.16999955589E+03  0.12509000000E+03 0.  0.
         25    1    3    3    0    0  0.19652678158E+02 -0.40051358967E+02  0.20362249057E+02  0.13435947455E+03  0.12509000000E+03 0.  0.
         25    1    3    3    0    0 -0.16627922835E+02  0.54423217427E+02 -0.17508514719E+03  0.22257738268E+03  0.12509000000E+03 0.  0.
<mgrwt>
<rscale>  2 0.45316027E+03</rscale>
<asrwt>0</asrwt>
<pdfrwt beam="1">  1       21 0.18973192E-01 0.45316027E+03</pdfrwt>
<pdfrwt beam="2">  1       21 0.58517456E-01 0.45316027E+03</pdfrwt>
<totfact> 0.64347650E+04</totfact>
</mgrwt>
</event>
<event>
 6    0  0.1572624E-007  0.4524172E+03  0.7546771E-02  0.1027004E+00
         21   -1    0    0  502  501  0.00000000000E+00  0.00000000000E+00  0.32188588067E+02  0.32188588067E+02  0.00000000000E+00 0.  1.
         21   -1    0    0  501  502 -0.00000000000E+00 -0.00000000000E+00 -0.15897038710E+04  0.15897038710E+04  0.00000000000E+00 0.  1.
      99926    2    1    2    0    0 -0.88817841970E-14 -0.71054273576E-14 -0.15575152830E+04  0.16218924591E+04  0.45241716613E+03 0.  0.
         25    1    3    3    0    0  0.76849609929E+02 -0.80836008478E+02 -0.68413307190E+03  0.70436204539E+03  0.12509000000E+03 0.  0.
         25    1    3    3    0    0 -0.66522441131E+02  0.46472106517E+02 -0.41219210508E+03  0.43833175957E+03  0.12509000000E+03 0.  0.
         25    1    3    3    0    0 -0.10327168798E+02  0.34363901961E+02 -0.46119010596E+03  0.47919865412E+03  0.12509000000E+03 0.  0.
<mgrwt>
<rscale>  2 0.45241717E+03</rscale>
<asrwt>0</asrwt>
<pdfrwt beam="1">  1       21 0.47336145E-02 0.45241717E+03</pdfrwt>
<pdfrwt beam="2">  1       21 0.23378005E+00 0.45241717E+03</pdfrwt>
<totfact> 0.21364811E+04</totfact>
</mgrwt>
</event>
<event>
 6    0  0.1572624E-007  0.4585450E+03  0.7546771E-02  0.1025204E+00
         21   -1    0    0  502  501  0.00000000000E+00  0.00000000000E+00  0.43501039542E+03  0.43501039542E+03  0.00000000000E+00 0. -1.
         21   -1    0    0  501  502 -0.00000000000E+00 -0.00000000000E+00 -0.12083820575E+03  0.12083820575E+03  0.00000000000E+00 0. -1.
      99926    2    1    2    0    0 -0.88817841970E-14  0.00000000000E+00  0.31417218967E+03  0.55584860117E+03  0.45854498434E+03 0.  0.
         25    1    3    3    0    0 -0.83946290489E+02  0.39184667821E+02  0.94832899495E+02  0.18227233692E+03  0.12509000000E+03 0.  0.
         25    1    3    3    0    0  0.70611875698E+02  0.21826205127E+02  0.17380589475E+03  0.22653568675E+03  0.12509000000E+03 0.  0.
         25    1    3    3    0    0  0.13334414791E+02 -0.61010872948E+02  0.45533395427E+02  0.14704057751E+03  0.12509000000E+03 0.  0.
<mgrwt>
<rscale>  2 0.45854498E+03</rscale>
<asrwt>0</asrwt>
<pdfrwt beam="1">  1       21 0.63972116E-01 0.45854498E+03</pdfrwt>
<pdfrwt beam="2">  1       21 0.17770325E-01 0.45854498E+03</pdfrwt>
<totfact> 0.59787302E+04</totfact>
</mgrwt>
</event>
<event>
 6    0  0.1572624E-007  0.4613065E+03  0.7546771E-02  0.1024403E+00
         21   -1    0    0  502  501  0.00000000000E+00  0.00000000000E+00  0.11574955486E+04  0.11574955486E+04  0.00000000000E+00 0.  1.
         21   -1    0    0  501  502 -0.00000000000E+00 -0.00000000000E+00 -0.45962097709E+02  0.45962097709E+02  0.00000000000E+00 0.  1.
      99926    2    1    2    0    0  0.71054273576E-14 -0.17763568394E-14  0.11115334509E+04  0.12034576463E+04  0.46130650766E+03 0.  0.
         25    1    3    3    0    0 -0.47841427110E+02 -0.55210084920E+02  0.56903933334E+03  0.58718840810E+03  0.12509000000E+03 0.  0.
         25    1    3    3    0    0 -0.40808134123E+02  0.98084495906E+01  0.22670495639E+03  0.26230546096E+03  0.12509000000E+03 0.  0.
         25    1    3    3    0    0  0.88649561233E+02  0.45401635329E+02  0.31578916114E+03  0.35396377723E+03  0.12509000000E+03 0.  0.
<mgrwt>
<rscale>  2 0.46130651E+03</rscale>
<asrwt>0</asrwt>
<pdfrwt beam="1">  1       21 0.17021991E+00 0.46130651E+03</pdfrwt>
<pdfrwt beam="2">  1       21 0.67591328E-02 0.46130651E+03</pdfrwt>
<totfact> 0.30519465E+04</totfact>
</mgrwt>
</event>
<event>
 6    0  0.1572624E-007  0.4531557E+03  0.7546771E-02  0.1026785E+00
         21   -1    0    0  502  501  0.00000000000E+00  0.00000000000E+00  0.49406418047E+02  0.49406418047E+02  0.00000000000E+00 0.  1.
         21   -1    0    0  501  502 -0.00000000000E+00 -0.00000000000E+00 -0.10390858833E+04  0.10390858833E+04  0.00000000000E+00 0.  1.
      99926    2    1    2    0    0  0.00000000000E+00  0.00000000000E+00 -0.98967946528E+03  0.10884923014E+04  0.45315565334E+03 0.  0.
         25    1    3    3    0    0  0.93252461976E+02  0.18475626150E+02 -0.25132788076E+03  0.29639598880E+03  0.12509000000E+03 0.  0.
         25    1    3    3    0    0 -0.78626977388E+02  0.15693961167E+02 -0.30071611187E+03  0.33541942405E+03  0.12509000000E+03 0.  0.
         25    1    3    3    0    0 -0.14625484589E+02 -0.34169587317E+02 -0.43763547266E+03  0.45667688854E+03  0.12509000000E+03 0.  0.
<mgrwt>
<rscale>  2 0.45315565E+03</rscale>
<asrwt>0</asrwt>
<pdfrwt beam="1">  1       21 0.72656493E-02 0.45315565E+03</pdfrwt>
<pdfrwt beam="2">  1       21 0.15280676E+00 0.45315565E+03</pdfrwt>
<totfact> 0.36417058E+04</totfact>
</mgrwt>
</event>
<event>
 6    0  0.1572624E-007  0.4540092E+03  0.7546771E-02  0.1026533E+00
         21   -1    0    0  502  501  0.00000000000E+00  0.00000000000E+00  0.58333163288E+03  0.58333163288E+03  0.00000000000E+00 0. -1.
         21   -1    0    0  501  502 -0.00000000000E+00 -0.00000000000E+00 -0.88339250212E+02  0.88339250212E+02  0.00000000000E+00 0. -1.
      99926    2    1    2    0    0  0.00000000000E+00  0.00000000000E+00  0.49499238267E+03  0.67167088309E+03  0.45400915882E+03 0.  0.
         25    1    3    3    0    0  0.19124707260E+01  0.29229813791E+02  0.57297635498E+02  0.14067184044E+03  0.12509000000E+03 0.  0.
         25    1    3    3    0    0 -0.47525417773E+02  0.18178674644E+02  0.31909996198E+03  0.34649880718E+03  0.12509000000E+03 0.  0.
         25    1    3    3    0    0  0.45612947047E+02 -0.47408488434E+02  0.11859478520E+03  0.18450023547E+03  0.12509000000E+03 0.  0.
<mgrwt>
<rscale>  2 0.45400916E+03</rscale>
<asrwt>0</asrwt>
<pdfrwt beam="1">  1       21 0.85784062E-01 0.45400916E+03</pdfrwt>
<pdfrwt beam="2">  1       21 0.12991067E-01 0.45400916E+03</pdfrwt>
<totfact> 0.54895875E+04</totfact>
</mgrwt>
</event>
<event>
 6    0  0.1572624E-007  0.4586259E+03  0.7546771E-02  0.1025180E+00
         21   -1    0    0  502  501  0.00000000000E+00  0.00000000000E+00  0.10123904433E+03  0.10123904433E+03  0.00000000000E+00 0. -1.
         21   -1    0    0  501  502 -0.00000000000E+00 -0.00000000000E+00 -0.51940861462E+03  0.51940861462E+03  0.00000000000E+00 0. -1.
      99926    2    1    2    0    0 -0.71054273576E-14 -0.35527136788E-14 -0.41816957030E+03  0.62064765895E+03  0.45862591187E+03 0.  0.
         25    1    3    3    0    0  0.34670447194E+02 -0.10042076640E+02 -0.25011695106E+03  0.28197319114E+03  0.12509000000E+03 0.  0.
         25    1    3    3    0    0  0.35452720433E+02 -0.47198946928E+02 -0.63486515660E+02  0.15219290965E+03  0.12509000000E+03 0.  0.
         25    1    3    3    0    0 -0.70123167627E+02  0.57241023568E+02 -0.10456610358E+03  0.18648155816E+03  0.12509000000E+03 0.  0.
<mgrwt>
<rscale>  2 0.45862591E+03</rscale>
<asrwt>0</asrwt>
<pdfrwt beam="1">  1       21 0.14888095E-01 0.45862591E+03</pdfrwt>
<pdfrwt beam="2">  1       21 0.76383619E-01 0.45862591E+03</pdfrwt>
<totfact> 0.55809810E+04</totfact>
</mgrwt>
</event>
<event>
 6    0  0.1572624E-007  0.4350808E+03  0.7546771E-02  0.1032267E+00
         21   -1    0    0  502  501  0.00000000000E+00  0.00000000000E+00  0.89063655051E+02  0.89063655051E+02  0.00000000000E+00 0. -1.
         21   -1    0    0  501  502 -0.00000000000E+00 -0.00000000000E+00 -0.53134831910E+03  0.53134831910E+03  0.00000000000E+00 0. -1.
      99926    2    1    2    0    0 -0.71054273576E-14 -0.35527136788E-14 -0.44228466405E+03  0.62041197415E+03  0.43508078976E+03 0.  0.
         25    1    3    3    0    0 -0.49003341905E+00  0.61811307004E+02 -0.26415358107E+03  0.29873985388E+03  0.12509000000E+03 0.  0.
         25    1    3    3    0    0  0.32622895122E+02 -0.48183211377E+02 -0.93606295436E+02  0.16671989021E+03  0.12509000000E+03 0.  0.
         25    1    3    3    0    0 -0.32132861703E+02 -0.13628095627E+02 -0.84524787541E+02  0.15495223006E+03  0.12509000000E+03 0.  0.
<mgrwt>
<rscale>  2 0.43508079E+03</rscale>
<asrwt>0</asrwt>
<pdfrwt beam="1">  1       21 0.13097596E-01 0.43508079E+03</pdfrwt>
<pdfrwt beam="2">  1       21 0.78139461E-01 0.43508079E+03</pdfrwt>
<totfact> 0.67435202E+04</totfact>
</mgrwt>
</event>
<event>
 6    0  0.1572624E-007  0.4557395E+03  0.7546771E-02  0.1026024E+00
         21   -1    0    0  502  501  0.00000000000E+00  0.00000000000E+00  0.39863083160E+03  0.39863083160E+03  0.00000000000E+00 0.  1.
         21   -1    0    0  501  502 -0.00000000000E+00 -0.00000000000E+00 -0.13025740661E+03  0.13025740661E+03  0.00000000000E+00 0.  1.
      99926    2    1    2    0    0  0.35527136788E-14  0.44408920985E-15  0.26837342500E+03  0.52888823821E+03  0.45573947961E+03 0.  0.
         25    1    3    3    0    0  0.20636185286E+02 -0.49261289351E+02 -0.14068940032E+02  0.13674052050E+03  0.12509000000E+03 0.  0.
         25    1    3    3    0    0 -0.28668819791E+02  0.49881978030E+02  0.19739248228E+03  0.24066867915E+03  0.12509000000E+03 0.  0.
         25    1    3    3    0    0  0.80326345059E+01 -0.62068867809E+00  0.85049882747E+02  0.15147903857E+03  0.12509000000E+03 0.  0.
<mgrwt>
<rscale>  2 0.45573948E+03</rscale>
<asrwt>0</asrwt>
<pdfrwt beam="1">  1       21 0.58622181E-01 0.45573948E+03</pdfrwt>
<pdfrwt beam="2">  1       21 0.19155501E-01 0.45573948E+03</pdfrwt>
<totfact> 0.62912298E+04</totfact>
</mgrwt>
</event>
<event>
 6    0  0.1572624E-007  0.4552380E+03  0.7546771E-02  0.1026171E+00
         21   -1    0    0  502  501  0.00000000000E+00  0.00000000000E+00  0.88861062411E+02  0.88861062411E+02  0.00000000000E+00 0.  1.
         21   -1    0    0  501  502 -0.00000000000E+00 -0.00000000000E+00 -0.58304950915E+03  0.58304950915E+03  0.00000000000E+00 0.  1.
      99926    2    1    2    0    0  0.00000000000E+00 -0.14210854715E-13 -0.49418844674E+03  0.67191057156E+03  0.45523795457E+03 0.  0.
         25    1    3    3    0    0  0.57251520711E+02  0.34853461943E+02 -0.13754670017E+03  0.19763376043E+03  0.12509000000E+03 0.  0.
         25    1    3    3    0    0 -0.10722697897E+02 -0.95985971242E+02 -0.23720054487E+03  0.28502612075E+03  0.12509000000E+03 0.  0.
         25    1    3    3    0    0 -0.46528822814E+02  0.61132509299E+02 -0.11944120170E+03  0.18925069038E+03  0.12509000000E+03 0.  0.
<mgrwt>
<rscale>  2 0.45523795E+03</rscale>
<asrwt>0</asrwt>
<pdfrwt beam="1">  1       21 0.13067804E-01 0.45523795E+03</pdfrwt>
<pdfrwt beam="2">  1       21 0.85742571E-01 0.45523795E+03</pdfrwt>
<totfact> 0.54352899E+04</totfact>
</mgrwt>
</event>
<event>
 6    0  0.1572624E-007  0.4587843E+03  0.7546771E-02  0.1025134E+00
         21   -1    0    0  502  501  0.00000000000E+00  0.00000000000E+00  0.39694722868E+03  0.39694722868E+03  0.00000000000E+00 0. -1.
         21   -1    0    0  501  502 -0.00000000000E+00 -0.00000000000E+00 -0.13256359664E+03  0.13256359664E+03  0.00000000000E+00 0. -1.
      99926    2    1    2    0    0 -0.35527136788E-14  0.77715611724E-15  0.26438363204E+03  0.52951082532E+03  0.45878427310E+03 0.  0.
         25    1    3    3    0    0 -0.55259954899E+02  0.24282265271E+02  0.20453596817E+03  0.24723624612E+03  0.12509000000E+03 0.  0.
         25    1    3    3    0    0  0.70238830043E+02 -0.23778804048E+02  0.67996152101E+01  0.14557701616E+03  0.12509000000E+03 0.  0.
         25    1    3    3    0    0 -0.14978875143E+02 -0.50346122311E+00  0.53048048667E+02  0.13669756304E+03  0.12509000000E+03 0.  0.
<mgrwt>
<rscale>  2 0.45878427E+03</rscale>
<asrwt>0</asrwt>
<pdfrwt beam="1">  1       21 0.58374592E-01 0.45878427E+03</pdfrwt>
<pdfrwt beam="2">  1       21 0.19494647E-01 0.45878427E+03</pdfrwt>
<totfact> 0.61377766E+04</totfact>
</mgrwt>
</event>
<event>
 6    0  0.1572624E-007  0.4546414E+03  0.7546771E-02  0.1026347E+00
         21   -1    0    0  502  501  0.00000000000E+00  0.00000000000E+00  0.16543482602E+03  0.16543482602E+03  0.00000000000E+00 0. -1.
         21   -1    0    0  501  502 -0.00000000000E+00 -0.00000000000E+00 -0.31235689088E+03  0.31235689088E+03  0.00000000000E+00 0. -1.
      99926    2    1    2    0    0  0.14210854715E-13  0.00000000000E+00 -0.14692206486E+03  0.47779171690E+03  0.45464143189E+03 0.  0.
         25    1    3    3    0    0  0.90112778474E+02 -0.28326996855E+02 -0.25573376075E+02  0.15882140051E+03  0.12509000000E+03 0.  0.
         25    1    3    3    0    0  0.97733324012E+01  0.13015299840E+02 -0.90448812750E+02  0.15522052662E+03  0.12509000000E+03 0.  0.
         25    1    3    3    0    0 -0.99886110875E+02  0.15311697015E+02 -0.30899876030E+02  0.16374978977E+03  0.12509000000E+03 0.  0.
<mgrwt>
<rscale>  2 0.45464143E+03</rscale>
<asrwt>0</asrwt>
<pdfrwt beam="1">  1       21 0.24328651E-01 0.45464143E+03</pdfrwt>
<pdfrwt beam="2">  1       21 0.45934837E-01 0.45464143E+03</pdfrwt>
<totfact> 0.67051816E+04</totfact>
</mgrwt>
</event>
<event>
 6    0  0.1572624E-007  0.4593853E+03  0.7546771E-02  0.1024960E+00
         21   -1    0    0  502  501  0.00000000000E+00  0.00000000000E+00  0.65799767746E+03  0.65799767746E+03  0.00000000000E+00 0.  1.
         21   -1    0    0  501  502 -0.00000000000E+00 -0.00000000000E+00 -0.80180698052E+02  0.80180698052E+02  0.00000000000E+00 0.  1.
      99926    2    1    2    0    0  0.00000000000E+00  0.00000000000E+00  0.57781697941E+03  0.73817837551E+03  0.45938529840E+03 0.  0.
         25    1    3    3    0    0 -0.87908790050E+02 -0.68241698490E+02  0.28059193146E+03  0.32674795314E+03  0.12509000000E+03 0.  0.
         25    1    3    3    0    0  0.32085873769E+02  0.31576301485E+02  0.19748309215E+03  0.23806227315E+03  0.12509000000E+03 0.  0.
         25    1    3    3    0    0  0.55822916280E+02  0.36665397005E+02  0.99741955802E+02  0.17336814923E+03  0.12509000000E+03 0.  0.
<mgrwt>
<rscale>  2 0.45938530E+03</rscale>
<asrwt>0</asrwt>
<pdfrwt beam="1">  1       21 0.96764361E-01 0.45938530E+03</pdfrwt>
<pdfrwt beam="2">  1       21 0.11791280E-01 0.45938530E+03</pdfrwt>
<totfact> 0.49161671E+04</totfact>
</mgrwt>
</event>
<event>
 6    0  0.1572624E-007  0.4543680E+03  0.7546771E-02  0.1026427E+00
         21   -1    0    0  502  501  0.00000000000E+00  0.00000000000E+00  0.12649526709E+03  0.12649526709E+03  0.00000000000E+00 0.  1.
         21   -1    0    0  501  502 -0.00000000000E+00 -0.00000000000E+00 -0.40801969473E+03  0.40801969473E+03  0.00000000000E+00 0.  1.
      99926    2    1    2    0    0 -0.35527136788E-14  0.00000000000E+00 -0.28152442765E+03  0.53451496182E+03  0.45436795777E+03 0.  0.
         25    1    3    3    0    0 -0.47557071155E+02  0.71945340033E+02 -0.79238003085E+02  0.17135920227E+03  0.12509000000E+03 0.  0.
         25    1    3    3    0    0  0.66680376589E+02  0.28613625570E+01 -0.47103298691E+02  0.14940110062E+03  0.12509000000E+03 0.  0.
         25    1    3    3    0    0 -0.19123305434E+02 -0.74806702590E+02 -0.15518312587E+03  0.21375465894E+03  0.12509000000E+03 0.  0.
<mgrwt>
<rscale>  2 0.45436796E+03</rscale>
<asrwt>0</asrwt>
<pdfrwt beam="1">  1       21 0.18602245E-01 0.45436796E+03</pdfrwt>
<pdfrwt beam="2">  1       21 0.60002896E-01 0.45436796E+03</pdfrwt>
<totfact> 0.63217178E+04</totfact>
</mgrwt>
</event>
<event>
 6    0  0.1572624E-007  0.4475760E+03  0.7546771E-02  0.1028447E+00
         21   -1    0    0  502  501  0.00000000000E+00  0.00000000000E+00  0.67477727024E+02  0.67477727024E+02  0.00000000000E+00 0. -1.
         21   -1    0    0  501  502 -0.00000000000E+00 -0.00000000000E+00 -0.74218654798E+03  0.74218654798E+03  0.00000000000E+00 0. -1.
      99926    2    1    2    0    0 -0.35527136788E-14  0.00000000000E+00 -0.67470882095E+03  0.80966427500E+03  0.44757596578E+03 0.  0.
         25    1    3    3    0    0  0.37957978194E+02 -0.31120728865E+02 -0.11767150973E+03  0.17861522941E+03  0.12509000000E+03 0.  0.
         25    1    3    3    0    0  0.24452051175E+02  0.42061839167E+02 -0.15381636288E+03  0.20414230995E+03  0.12509000000E+03 0.  0.
         25    1    3    3    0    0 -0.62410029370E+02 -0.10941110301E+02 -0.40322094834E+03  0.42690673565E+03  0.12509000000E+03 0.  0.
<mgrwt>
<rscale>  2 0.44757597E+03</rscale>
<asrwt>0</asrwt>
<pdfrwt beam="1">  1       21 0.99231953E-02 0.44757597E+03</pdfrwt>
<pdfrwt beam="2">  1       21 0.10914508E+00 0.44757597E+03</pdfrwt>
<totfact> 0.50159925E+04</totfact>
</mgrwt>
</event>
<event>
 6    0  0.1572624E-007  0.4494268E+03  0.7546771E-02  0.1027893E+00
         21   -1    0    0  502  501  0.00000000000E+00  0.00000000000E+00  0.74962850920E+03  0.74962850920E+03  0.00000000000E+00 0.  1.
         21   -1    0    0  501  502 -0.00000000000E+00 -0.00000000000E+00 -0.67361505257E+02  0.67361505257E+02  0.00000000000E+00 0.  1.
      99926    2    1    2    0    0  0.00000000000E+00 -0.35527136788E-14  0.68226700394E+03  0.81699001446E+03  0.44942676718E+03 0.  0.
         25    1    3    3    0    0  0.92083480777E+02 -0.58063159099E+01  0.16245646060E+03  0.22483925464E+03  0.12509000000E+03 0.  0.
         25    1    3    3    0    0 -0.84929834287E+02  0.26835224059E+02  0.24109974203E+03  0.28584926047E+03  0.12509000000E+03 0.  0.
         25    1    3    3    0    0 -0.71536464895E+01 -0.21028908149E+02  0.27871080131E+03  0.30630149935E+03  0.12509000000E+03 0.  0.
<mgrwt>
<rscale>  2 0.44942677E+03</rscale>
<asrwt>0</asrwt>
<pdfrwt beam="1">  1       21 0.11023948E+00 0.44942677E+03</pdfrwt>
<pdfrwt beam="2">  1       21 0.99061041E-02 0.44942677E+03</pdfrwt>
<totfact> 0.49064763E+04</totfact>
</mgrwt>
</event>
<event>
 6    0  0.1572624E-007  0.4566984E+03  0.7546771E-02  0.1025743E+00
         21   -1    0    0  502  501  0.00000000000E+00  0.00000000000E+00  0.10765623510E+03  0.10765623510E+03  0.00000000000E+00 0.  1.
         21   -1    0    0  501  502 -0.00000000000E+00 -0.00000000000E+00 -0.48435057502E+03  0.48435057502E+03  0.00000000000E+00 0.  1.
      99926    2    1    2    0    0  0.00000000000E+00  0.00000000000E+00 -0.37669433991E+03  0.59200681012E+03  0.45669840979E+03 0.  0.
         25    1    3    3    0    0  0.16663586860E+02 -0.71381548468E+02 -0.16321567045E+03  0.21831139175E+03  0.12509000000E+03 0.  0.
         25    1    3    3    0    0  0.56911095360E+02  0.17246463884E+02 -0.15567125175E+03  0.20836832776E+03  0.12509000000E+03 0.  0.
         25    1    3    3    0    0 -0.73574682220E+02  0.54135084584E+02 -0.57807417713E+02  0.16532709061E+03  0.12509000000E+03 0.  0.
<mgrwt>
<rscale>  2 0.45669841E+03</rscale>
<asrwt>0</asrwt>
<pdfrwt beam="1">  1       21 0.15831799E-01 0.45669841E+03</pdfrwt>
<pdfrwt beam="2">  1       21 0.71228025E-01 0.45669841E+03</pdfrwt>
<totfact> 0.58385337E+04</totfact>
</mgrwt>
</event>
<event>
 6    0  0.1572624E-007  0.4541710E+03  0.7546771E-02  0.1026485E+00
         21   -1    0    0  502  501  0.00000000000E+00  0.00000000000E+00  0.12279811546E+03  0.12279811546E+03  0.00000000000E+00 0. -1.
         21   -1    0    0  501  502 -0.00000000000E+00 -0.00000000000E+00 -0.41993984344E+03  0.41993984344E+03  0.00000000000E+00 0. -1.
      99926    2    1    2    0    0  0.00000000000E+00  0.00000000000E+00 -0.29714172798E+03  0.54273795890E+03  0.45417098710E+03 0.  0.
         25    1    3    3    0    0  0.90136327776E+01 -0.11954030037E+03 -0.94381960688E+02  0.19729823008E+03  0.12509000000E+03 0.  0.
         25    1    3    3    0    0 -0.12282902391E+02  0.68741407124E+02 -0.87328789972E+02  0.16777984504E+03  0.12509000000E+03 0.  0.
         25    1    3    3    0    0  0.32692696139E+01  0.50798893248E+02 -0.11543097732E+03  0.17765988378E+03  0.12509000000E+03 0.  0.
<mgrwt>
<rscale>  2 0.45417099E+03</rscale>
<asrwt>0</asrwt>
<pdfrwt beam="1">  1       21 0.18058546E-01 0.45417099E+03</pdfrwt>
<pdfrwt beam="2">  1       21 0.61755860E-01 0.45417099E+03</pdfrwt>
<totfact> 0.62759668E+04</totfact>
</mgrwt>
</event>
<event>
 6    0  0.1572624E-007  0.4544431E+03  0.7546771E-02  0.1026405E+00
         21   -1    0    0  502  501  0.00000000000E+00  0.00000000000E+00  0.15421672948E+04  0.15421672948E+04  0.00000000000E+00 0.  1.
         21   -1    0    0  501  502 -0.00000000000E+00 -0.00000000000E+00 -0.33478615856E+02  0.33478615856E+02  0.00000000000E+00 0.  1.
      99926    2    1    2    0    0  0.00000000000E+00  0.00000000000E+00  0.15086886790E+04  0.15756459107E+04  0.45444307212E+03 0.  0.
         25    1    3    3    0    0 -0.45615571787E+02  0.10839579002E+01  0.58415408673E+03  0.59913726348E+03  0.12509000000E+03 0.  0.
         25    1    3    3    0    0  0.99147861603E+02  0.12517969024E+02  0.65484085381E+03  0.67412984649E+03  0.12509000000E+03 0.  0.
         25    1    3    3    0    0 -0.53532289816E+02 -0.13601926924E+02  0.26969373844E+03  0.30237880072E+03  0.12509000000E+03 0.  0.
<mgrwt>
<rscale>  2 0.45444307E+03</rscale>
<asrwt>0</asrwt>
<pdfrwt beam="1">  1       21 0.22678926E+00 0.45444307E+03</pdfrwt>
<pdfrwt beam="2">  1       21 0.49233269E-02 0.45444307E+03</pdfrwt>
<totfact> 0.22079905E+04</totfact>
</mgrwt>
</event>
<event>
 6    0  0.1572624E-007  0.4691570E+03  0.7546771E-02  0.1022158E+00
         21   -1    0    0  502  501  0.00000000000E+00  0.00000000000E+00  0.76574203194E+03  0.76574203194E+03  0.00000000000E+00 0. -1.
         21   -1    0    0  501  502 -0.00000000000E+00 -0.00000000000E+00 -0.71861098505E+02  0.71861098505E+02  0.00000000000E+00 0. -1.
      99926    2    1    2    0    0  0.00000000000E+00  0.00000000000E+00  0.69388093343E+03  0.83760313044E+03  0.46915696131E+03 0.  0.
         25    1    3    3    0    0  0.32673545170E+02  0.21319284336E+02  0.26114535472E+03  0.29217542134E+03  0.12509000000E+03 0.  0.
         25    1    3    3    0    0 -0.77863656340E+02 -0.81230250964E+02  0.31826818299E+03  0.36000450977E+03  0.12509000000E+03 0.  0.
         25    1    3    3    0    0  0.45190111170E+02  0.59910966628E+02  0.11446739572E+03  0.18542319934E+03  0.12509000000E+03 0.  0.
<mgrwt>
<rscale>  2 0.46915696E+03</rscale>
<asrwt>0</asrwt>
<pdfrwt beam="1">  1       21 0.11260912E+00 0.46915696E+03</pdfrwt>
<pdfrwt beam="2">  1       21 0.10567809E-01 0.46915696E+03</pdfrwt>
<totfact> 0.41225770E+04</totfact>
</mgrwt>
</event>
<event>
 6    0  0.1572624E-007  0.4509830E+03  0.7546771E-02  0.1027429E+00
         21   -1    0    0  502  501  0.00000000000E+00  0.00000000000E+00  0.63328482989E+02  0.63328482989E+02  0.00000000000E+00 0. -1.
         21   -1    0    0  501  502 -0.00000000000E+00 -0.00000000000E+00 -0.80289958697E+03  0.80289958697E+03  0.00000000000E+00 0. -1.
      99926    2    1    2    0    0 -0.79936057773E-14  0.00000000000E+00 -0.73957110398E+03  0.86622806996E+03  0.45098298343E+03 0.  0.
         25    1    3    3    0    0 -0.67773937025E+02 -0.15222488638E+02 -0.16679617512E+03  0.21975782770E+03  0.12509000000E+03 0.  0.
         25    1    3    3    0    0  0.61190319059E+02 -0.78980525915E+01 -0.44378129671E+03  0.46518381506E+03  0.12509000000E+03 0.  0.
         25    1    3    3    0    0  0.65836179661E+01  0.23120541229E+02 -0.12899363215E+03  0.18128642720E+03  0.12509000000E+03 0.  0.
<mgrwt>
<rscale>  2 0.45098298E+03</rscale>
<asrwt>0</asrwt>
<pdfrwt beam="1">  1       21 0.93130130E-02 0.45098298E+03</pdfrwt>
<pdfrwt beam="2">  1       21 0.11807346E+00 0.45098298E+03</pdfrwt>
<totfact> 0.46158944E+04</totfact>
</mgrwt>
</event>
<event>
 6    0  0.1572624E-007  0.4602368E+03  0.7546771E-02  0.1024713E+00
         21   -1    0    0  502  501  0.00000000000E+00  0.00000000000E+00  0.22874277929E+03  0.22874277929E+03  0.00000000000E+00 0. -1.
         21   -1    0    0  501  502 -0.00000000000E+00 -0.00000000000E+00 -0.23150226691E+03  0.23150226691E+03  0.00000000000E+00 0. -1.
      99926    2    1    2    0    0  0.00000000000E+00  0.00000000000E+00 -0.27594876262E+01  0.46024504620E+03  0.46023677361E+03 0.  0.
         25    1    3    3    0    0 -0.39868954274E+02  0.86860941820E+01 -0.69073598438E+01  0.13175811727E+03  0.12509000000E+03 0.  0.
         25    1    3    3    0    0  0.63171011338E+01 -0.91769561667E+02 -0.53415109884E+02  0.16420182788E+03  0.12509000000E+03 0.  0.
         25    1    3    3    0    0  0.33551853140E+02  0.83083467485E+02  0.57562982102E+02  0.16428510105E+03  0.12509000000E+03 0.  0.
<mgrwt>
<rscale>  2 0.46023677E+03</rscale>
<asrwt>0</asrwt>
<pdfrwt beam="1">  1       21 0.33638644E-01 0.46023677E+03</pdfrwt>
<pdfrwt beam="2">  1       21 0.34044451E-01 0.46023677E+03</pdfrwt>
<totfact> 0.65388054E+04</totfact>
</mgrwt>
</event>
<event>
 6    0  0.1572624E-007  0.4560824E+03  0.7546771E-02  0.1025924E+00
         21   -1    0    0  502  501  0.00000000000E+00  0.00000000000E+00  0.17144486391E+04  0.17144486391E+04  0.00000000000E+00 0. -1.
         21   -1    0    0  501  502 -0.00000000000E+00 -0.00000000000E+00 -0.30332078444E+02  0.30332078444E+02  0.00000000000E+00 0. -1.
      99926    2    1    2    0    0  0.71054273576E-14 -0.35527136788E-14  0.16841165607E+04  0.17447807176E+04  0.45608240751E+03 0.  0.
         25    1    3    3    0    0  0.30452033961E+02 -0.71505212519E+02  0.42073968148E+03  0.44576867258E+03  0.12509000000E+03 0.  0.
         25    1    3    3    0    0  0.57173673697E+02  0.11605069968E+02  0.56084163012E+03  0.57757627097E+03  0.12509000000E+03 0.  0.
         25    1    3    3    0    0 -0.87625707657E+02  0.59900142551E+02  0.70253524908E+03  0.72143577401E+03  0.12509000000E+03 0.  0.
<mgrwt>
<rscale>  2 0.45608241E+03</rscale>
<asrwt>0</asrwt>
<pdfrwt beam="1">  1       21 0.25212473E+00 0.45608241E+03</pdfrwt>
<pdfrwt beam="2">  1       21 0.44606009E-02 0.45608241E+03</pdfrwt>
<totfact> 0.18191688E+04</totfact>
</mgrwt>
</event>
<event>
 6    0  0.1572624E-007  0.4537306E+03  0.7546771E-02  0.1026615E+00
         21   -1    0    0  502  501  0.00000000000E+00  0.00000000000E+00  0.30570858673E+03  0.30570858673E+03  0.00000000000E+00 0.  1.
         21   -1    0    0  501  502 -0.00000000000E+00 -0.00000000000E+00 -0.16835596557E+03  0.16835596557E+03  0.00000000000E+00 0.  1.
      99926    2    1    2    0    0  0.53290705182E-14  0.00000000000E+00  0.13735262115E+03  0.47406455230E+03  0.45373059981E+03 0.  0.
         25    1    3    3    0    0 -0.81997245641E+02 -0.44764803618E+02  0.10625934540E+03  0.18885442150E+03  0.12509000000E+03 0.  0.
         25    1    3    3    0    0  0.81092903417E+01  0.24454046454E+02  0.50298261459E+02  0.13726319311E+03  0.12509000000E+03 0.  0.
         25    1    3    3    0    0  0.73887955300E+02  0.20310757164E+02 -0.19204985702E+02  0.14794693769E+03  0.12509000000E+03 0.  0.
<mgrwt>
<rscale>  2 0.45373060E+03</rscale>
<asrwt>0</asrwt>
<pdfrwt beam="1">  1       21 0.44957145E-01 0.45373060E+03</pdfrwt>
<pdfrwt beam="2">  1       21 0.24758230E-01 0.45373060E+03</pdfrwt>
<totfact> 0.67815346E+04</totfact>
</mgrwt>
</event>
<event>
 6    0  0.1572624E-007  0.4446608E+03  0.7546771E-02  0.1029326E+00
         21   -1    0    0  502  501  0.00000000000E+00  0.00000000000E+00  0.28783364423E+03  0.28783364423E+03  0.00000000000E+00 0. -1.
         21   -1    0    0  501  502 -0.00000000000E+00 -0.00000000000E+00 -0.17173394468E+03  0.17173394468E+03  0.00000000000E+00 0. -1.
      99926    2    1    2    0    0  0.88817841970E-15 -0.17763568394E-14  0.11609969954E+03  0.45956758891E+03  0.44466080167E+03 0.  0.
         25    1    3    3    0    0  0.42903775943E+01  0.65991939130E+01  0.66065804708E+02  0.14168329242E+03  0.12509000000E+03 0.  0.
         25    1    3    3    0    0  0.33965636689E+02 -0.81677102483E+02 -0.14383017749E+02  0.15388044985E+03  0.12509000000E+03 0.  0.
         25    1    3    3    0    0 -0.38256014283E+02  0.75077908570E+02  0.64416912585E+02  0.16400384663E+03  0.12509000000E+03 0.  0.
<mgrwt>
<rscale>  2 0.44466080E+03</rscale>
<asrwt>0</asrwt>
<pdfrwt beam="1">  1       21 0.42328477E-01 0.44466080E+03</pdfrwt>
<pdfrwt beam="2">  1       21 0.25254992E-01 0.44466080E+03</pdfrwt>
<totfact> 0.74114062E+04</totfact>
</mgrwt>
</event>
<event>
 6    0  0.1572624E-007  0.4577655E+03  0.7546771E-02  0.1025431E+00
         21   -1    0    0  502  501  0.00000000000E+00  0.00000000000E+00  0.90828327542E+02  0.90828327542E+02  0.00000000000E+00 0.  1.
         21   -1    0    0  501  502 -0.00000000000E+00 -0.00000000000E+00 -0.57677289681E+03  0.57677289681E+03  0.00000000000E+00 0.  1.
      99926    2    1    2    0    0 -0.35527136788E-14  0.71054273576E-14 -0.48594456927E+03  0.66760122435E+03  0.45776551897E+03 0.  0.
         25    1    3    3    0    0  0.22097949247E+02  0.34747557130E+02 -0.13604597958E+03  0.18934552740E+03  0.12509000000E+03 0.  0.
         25    1    3    3    0    0 -0.55408762814E+02 -0.14870867205E+00 -0.43048071812E+02  0.14342523382E+03  0.12509000000E+03 0.  0.
         25    1    3    3    0    0  0.33310813567E+02 -0.34598848458E+02 -0.30685051788E+03  0.33483046313E+03  0.12509000000E+03 0.  0.
<mgrwt>
<rscale>  2 0.45776552E+03</rscale>
<asrwt>0</asrwt>
<pdfrwt beam="1">  1       21 0.13357108E-01 0.45776552E+03</pdfrwt>
<pdfrwt beam="2">  1       21 0.84819540E-01 0.45776552E+03</pdfrwt>
<totfact> 0.53520999E+04</totfact>
</mgrwt>
</event>
<event>
 6    0  0.1572624E-007  0.4541283E+03  0.7546771E-02  0.1026498E+00
         21   -1    0    0  502  501  0.00000000000E+00  0.00000000000E+00  0.13297644932E+03  0.13297644932E+03  0.00000000000E+00 0. -1.
         21   -1    0    0  501  502 -0.00000000000E+00 -0.00000000000E+00 -0.38772373674E+03  0.38772373674E+03  0.00000000000E+00 0. -1.
      99926    2    1    2    0    0  0.00000000000E+00  0.00000000000E+00 -0.25474728742E+03  0.52070018606E+03  0.45412828949E+03 0.  0.
         25    1    3    3    0    0  0.15396441098E+02 -0.62288019890E+02 -0.61806963085E+02  0.15357231719E+03  0.12509000000E+03 0.  0.
         25    1    3    3    0    0 -0.59244920085E+02 -0.32118364932E+02 -0.50303085817E+02  0.15072975308E+03  0.12509000000E+03 0.  0.
         25    1    3    3    0    0  0.43848478987E+02  0.94406384823E+02 -0.14263723852E+03  0.21639811579E+03  0.12509000000E+03 0.  0.
<mgrwt>
<rscale>  2 0.45412829E+03</rscale>
<asrwt>0</asrwt>
<pdfrwt beam="1">  1       21 0.19555360E-01 0.45412829E+03</pdfrwt>
<pdfrwt beam="2">  1       21 0.57018196E-01 0.45412829E+03</pdfrwt>
<totfact> 0.64282988E+04</totfact>
</mgrwt>
</event>
<event>
 6    0  0.1572624E-007  0.4572809E+03  0.7546771E-02  0.1025573E+00
         21   -1    0    0  502  501  0.00000000000E+00  0.00000000000E+00  0.15865486200E+03  0.15865486200E+03  0.00000000000E+00 0.  1.
         21   -1    0    0  501  502 -0.00000000000E+00 -0.00000000000E+00 -0.32949797098E+03  0.32949797098E+03  0.00000000000E+00 0.  1.
      99926    2    1    2    0    0 -0.35527136788E-14  0.00000000000E+00 -0.17084310897E+03  0.48815283298E+03  0.45728089886E+03 0.  0.
         25    1    3    3    0    0 -0.17505212811E+02 -0.16816459844E+02 -0.17567545455E+03  0.21702211691E+03  0.12509000000E+03 0.  0.
         25    1    3    3    0    0  0.36943850318E+02 -0.33679233672E+02  0.58432358763E+01  0.13483616118E+03  0.12509000000E+03 0.  0.
         25    1    3    3    0    0 -0.19438637507E+02  0.50495693516E+02 -0.10108902974E+01  0.13629455488E+03  0.12509000000E+03 0.  0.
<mgrwt>
<rscale>  2 0.45728090E+03</rscale>
<asrwt>0</asrwt>
<pdfrwt beam="1">  1       21 0.23331598E-01 0.45728090E+03</pdfrwt>
<pdfrwt beam="2">  1       21 0.48455583E-01 0.45728090E+03</pdfrwt>
<totfact> 0.64927622E+04</totfact>
</mgrwt>
</event>
<event>
 6    0  0.1572624E-007  0.4618129E+03  0.7546771E-02  0.1024257E+00
         21   -1    0    0  502  501  0.00000000000E+00  0.00000000000E+00  0.47742431549E+03  0.47742431549E+03  0.00000000000E+00 0.  1.
         21   -1    0    0  501  502 -0.00000000000E+00 -0.00000000000E+00 -0.11167798207E+03  0.11167798207E+03  0.00000000000E+00 0.  1.
      99926    2    1    2    0    0  0.71054273576E-14 -0.14210854715E-13  0.36574633342E+03  0.58910229756E+03  0.46181288048E+03 0.  0.
         25    1    3    3    0    0  0.26243765862E+02  0.12628744674E+02  0.20680557585E+03  0.24344254916E+03  0.12509000000E+03 0.  0.
         25    1    3    3    0    0 -0.48717082171E+02  0.68833411772E+02  0.11091307625E+03  0.18724478966E+03  0.12509000000E+03 0.  0.
         25    1    3    3    0    0  0.22473316309E+02 -0.81462156446E+02  0.48027681323E+02  0.15841495874E+03  0.12509000000E+03 0.  0.
<mgrwt>
<rscale>  2 0.46181288E+03</rscale>
<asrwt>0</asrwt>
<pdfrwt beam="1">  1       21 0.70209457E-01 0.46181288E+03</pdfrwt>
<pdfrwt beam="2">  1       21 0.16423233E-01 0.46181288E+03</pdfrwt>
<totfact> 0.56262684E+04</totfact>
</mgrwt>
</event>
<event>
 6    0  0.1572624E-007  0.4580076E+03  0.7546771E-02  0.1025361E+00
         21   -1    0    0  502  501  0.00000000000E+00  0.00000000000E+00  0.16472296333E+03  0.16472296333E+03  0.00000000000E+00 0.  1.
         21   -1    0    0  501  502 -0.00000000000E+00 -0.00000000000E+00 -0.31836930494E+03  0.31836930494E+03  0.00000000000E+00 0.  1.
      99926    2    1    2    0    0  0.00000000000E+00 -0.14210854715E-13 -0.15364634162E+03  0.48309226827E+03  0.45800757785E+03 0.  0.
         25    1    3    3    0    0  0.17966114523E+02  0.61694174222E+02  0.13577736621E+02  0.14128274996E+03  0.12509000000E+03 0.  0.
         25    1    3    3    0    0 -0.40472452734E+02 -0.96135374309E+02 -0.66083983943E+02  0.17576868509E+03  0.12509000000E+03 0.  0.
         25    1    3    3    0    0  0.22506338211E+02  0.34441200087E+02 -0.10114009429E+03  0.16604083322E+03  0.12509000000E+03 0.  0.
<mgrwt>
<rscale>  2 0.45800758E+03</rscale>
<asrwt>0</asrwt>
<pdfrwt beam="1">  1       21 0.24223966E-01 0.45800758E+03</pdfrwt>
<pdfrwt beam="2">  1       21 0.46819015E-01 0.45800758E+03</pdfrwt>
<totfact> 0.64912117E+04</totfact>
</mgrwt>
</event>
<event>
 6    0  0.1572624E-007  0.4488012E+03  0.7546771E-02  0.1028080E+00
         21   -1    0    0  502  501  0.00000000000E+00  0.00000000000E+00  0.78365388325E+02  0.78365388325E+02  0.00000000000E+00 0. -1.
         21   -1    0    0  501  502 -0.00000000000E+00 -0.00000000000E+00 -0.64257481189E+03  0.64257481189E+03  0.00000000000E+00 0. -1.
      99926    2    1    2    0    0  0.00000000000E+00  0.00000000000E+00 -0.56420942356E+03  0.72094020021E+03  0.44880117942E+03 0.  0.
         25    1    3    3    0    0 -0.43894277944E+02 -0.65907625789E+02 -0.19594211629E+03  0.24558367985E+03  0.12509000000E+03 0.  0.
         25    1    3    3    0    0 -0.37537684989E+02  0.64895344993E+02 -0.22721374948E+03  0.26998903616E+03  0.12509000000E+03 0.  0.
         25    1    3    3    0    0  0.81431962933E+02  0.10122807961E+01 -0.14105355780E+03  0.20536748420E+03  0.12509000000E+03 0.  0.
<mgrwt>
<rscale>  2 0.44880118E+03</rscale>
<asrwt>0</asrwt>
<pdfrwt beam="1">  1       21 0.11524321E-01 0.44880118E+03</pdfrwt>
<pdfrwt beam="2">  1       21 0.94496299E-01 0.44880118E+03</pdfrwt>
<totfact> 0.54384211E+04</totfact>
</mgrwt>
</event>
<event>
 6    0  0.1572624E-007  0.4459613E+03  0.7546771E-02  0.1028933E+00
         21   -1    0    0  502  501  0.00000000000E+00  0.00000000000E+00  0.10753218557E+03  0.10753218557E+03  0.00000000000E+00 0. -1.
         21   -1    0    0  501  502 -0.00000000000E+00 -0.00000000000E+00 -0.46237663438E+03  0.46237663438E+03  0.00000000000E+00 0. -1.
      99926    2    1    2    0    0 -0.71054273576E-14  0.00000000000E+00 -0.35484444881E+03  0.56990881995E+03  0.44596129900E+03 0.  0.
         25    1    3    3    0    0  0.89602406378E+02  0.28945622212E+02 -0.14294712949E+03  0.21200903330E+03  0.12509000000E+03 0.  0.
         25    1    3    3    0    0 -0.37456483607E+02  0.18654269630E+02 -0.15467808036E+03  0.20328252897E+03  0.12509000000E+03 0.  0.
         25    1    3    3    0    0 -0.52145922772E+02 -0.47599891842E+02 -0.57219238957E+02  0.15461725768E+03  0.12509000000E+03 0.  0.
<mgrwt>
<rscale>  2 0.44596130E+03</rscale>
<asrwt>0</asrwt>
<pdfrwt beam="1">  1       21 0.15813557E-01 0.44596130E+03</pdfrwt>
<pdfrwt beam="2">  1       21 0.67996564E-01 0.44596130E+03</pdfrwt>
<totfact> 0.65099478E+04</totfact>
</mgrwt>
</event>
<event>
 6    0  0.1572624E-007  0.4511302E+03  0.7546771E-02  0.1027386E+00
         21   -1    0    0  502  501  0.00000000000E+00  0.00000000000E+00  0.65656712748E+02  0.65656712748E+02  0.00000000000E+00 0. -1.
         21   -1    0    0  501  502 -0.00000000000E+00 -0.00000000000E+00 -0.77493399513E+03  0.77493399513E+03  0.00000000000E+00 0. -1.
      99926    2    1    2    0    0  0.71054273576E-14  0.88817841970E-15 -0.70927728238E+03  0.84059070788E+03  0.45113021941E+03 0.  0.
         25    1    3    3    0    0 -0.88277205912E+02  0.57069262979E+02 -0.27259265653E+03  0.31781131251E+03  0.12509000000E+03 0.  0.
         25    1    3    3    0    0  0.26168191579E+02  0.62767505157E+01 -0.25282744699E+03  0.28336089691E+03  0.12509000000E+03 0.  0.
         25    1    3    3    0    0  0.62109014332E+02 -0.63346013494E+02 -0.18385717886E+03  0.23941849846E+03  0.12509000000E+03 0.  0.
<mgrwt>
<rscale>  2 0.45113022E+03</rscale>
<asrwt>0</asrwt>
<pdfrwt beam="1">  1       21 0.96553985E-02 0.45113022E+03</pdfrwt>
<pdfrwt beam="2">  1       21 0.11396089E+00 0.45113022E+03</pdfrwt>
<totfact> 0.47282473E+04</totfact>
</mgrwt>
</event>
<event>
 6    0  0.1572624E-007  0.4582325E+03  0.7546771E-02  0.1025295E+00
         21   -1    0    0  502  501  0.00000000000E+00  0.00000000000E+00  0.30175306254E+03  0.30175306254E+03  0.00000000000E+00 0. -1.
         21   -1    0    0  501  502 -0.00000000000E+00 -0.00000000000E+00 -0.17396428136E+03  0.17396428136E+03  0.00000000000E+00 0. -1.
      99926    2    1    2    0    0  0.00000000000E+00  0.00000000000E+00  0.12778878118E+03  0.47571734390E+03  0.45823249414E+03 0.  0.
         25    1    3    3    0    0 -0.34877474629E+02 -0.19641701997E+02 -0.28312094366E+02  0.13435519149E+03  0.12509000000E+03 0.  0.
         25    1    3    3    0    0  0.87294529886E+02  0.44203656010E+02  0.11949900565E+03  0.19875064429E+03  0.12509000000E+03 0.  0.
         25    1    3    3    0    0 -0.52417055257E+02 -0.24561954013E+02  0.36601869896E+02  0.14261150811E+03  0.12509000000E+03 0.  0.
<mgrwt>
<rscale>  2 0.45823249E+03</rscale>
<asrwt>0</asrwt>
<pdfrwt beam="1">  1       21 0.44375451E-01 0.45823249E+03</pdfrwt>
<pdfrwt beam="2">  1       21 0.25582982E-01 0.45823249E+03</pdfrwt>
<totfact> 0.65321515E+04</totfact>
</mgrwt>
</event>
<event>
 6    0  0.1572624E-007  0.4581724E+03  0.7546771E-02  0.1025313E+00
         21   -1    0    0  502  501  0.00000000000E+00  0.00000000000E+00  0.73437696322E+03  0.73437696322E+03  0.00000000000E+00 0.  1.
         21   -1    0    0  501  502 -0.00000000000E+00 -0.00000000000E+00 -0.71462597631E+02  0.71462597631E+02  0.00000000000E+00 0.  1.
      99926    2    1    2    0    0  0.00000000000E+00  0.00000000000E+00  0.66291436559E+03  0.80583956085E+03  0.45817239302E+03 0.  0.
         25    1    3    3    0    0 -0.87557949945E+02  0.30048939451E+02  0.14179939447E+03  0.21053244342E+03  0.12509000000E+03 0.  0.
         25    1    3    3    0    0  0.27626606979E+02 -0.24990586256E+02  0.14863424393E+03  0.19780648469E+03  0.12509000000E+03 0.  0.
         25    1    3    3    0    0  0.59931342966E+02 -0.50583531949E+01  0.37248072719E+03  0.39750063274E+03  0.12509000000E+03 0.  0.
<mgrwt>
<rscale>  2 0.45817239E+03</rscale>
<asrwt>0</asrwt>
<pdfrwt beam="1">  1       21 0.10799661E+00 0.45817239E+03</pdfrwt>
<pdfrwt beam="2">  1       21 0.10509206E-01 0.45817239E+03</pdfrwt>
<totfact> 0.46319703E+04</totfact>
</mgrwt>
</event>
<event>
 6    0  0.1572624E-007  0.4562374E+03  0.7546771E-02  0.1025878E+00
         21   -1    0    0  502  501  0.00000000000E+00  0.00000000000E+00  0.63150426402E+03  0.63150426402E+03  0.00000000000E+00 0. -1.
         21   -1    0    0  501  502 -0.00000000000E+00 -0.00000000000E+00 -0.82403459356E+02  0.82403459356E+02  0.00000000000E+00 0. -1.
      99926    2    1    2    0    0  0.00000000000E+00  0.26645352591E-14  0.54910080466E+03  0.71390772338E+03  0.45623737661E+03 0.  0.
         25    1    3    3    0    0 -0.21641539773E+01  0.87930597393E+02  0.12578675765E+03  0.19800578280E+03  0.12509000000E+03 0.  0.
         25    1    3    3    0    0  0.17986738000E+01 -0.91946948305E+00  0.10630018508E+03  0.16416856611E+03  0.12509000000E+03 0.  0.
         25    1    3    3    0    0  0.36548017736E+00 -0.87011127910E+02  0.31701386194E+03  0.35173337447E+03  0.12509000000E+03 0.  0.
<mgrwt>
<rscale>  2 0.45623738E+03</rscale>
<asrwt>0</asrwt>
<pdfrwt beam="1">  1       21 0.92868272E-01 0.45623738E+03</pdfrwt>
<pdfrwt beam="2">  1       21 0.12118156E-01 0.45623738E+03</pdfrwt>
<totfact> 0.51649767E+04</totfact>
</mgrwt>
</event>
<event>
 6    0  0.1572624E-007  0.4596803E+03  0.7546771E-02  0.1024874E+00
         21   -1    0    0  502  501  0.00000000000E+00  0.00000000000E+00  0.12145596324E+04  0.12145596324E+04  0.00000000000E+00 0. -1.
         21   -1    0    0  501  502 -0.00000000000E+00 -0.00000000000E+00 -0.43494365908E+02  0.43494365908E+02  0.00000000000E+00 0. -1.
      99926    2    1    2    0    0 -0.62172489379E-14  0.00000000000E+00  0.11710652665E+04  0.12580539983E+04  0.45968032836E+03 0.  0.
         25    1    3    3    0    0 -0.10234270672E+03 -0.17404732876E+02  0.35621674322E+03  0.39155437757E+03  0.12509000000E+03 0.  0.
         25    1    3    3    0    0  0.96786115899E+02 -0.22962496332E+02  0.51053951738E+03  0.53497003222E+03  0.12509000000E+03 0.  0.
         25    1    3    3    0    0  0.55565908174E+01  0.40367229208E+02  0.30430900590E+03  0.33152958853E+03  0.12509000000E+03 0.  0.
<mgrwt>
<rscale>  2 0.45968033E+03</rscale>
<asrwt>0</asrwt>
<pdfrwt beam="1">  1       21 0.17861169E+00 0.45968033E+03</pdfrwt>
<pdfrwt beam="2">  1       21 0.63962310E-02 0.45968033E+03</pdfrwt>
<totfact> 0.29276433E+04</totfact>
</mgrwt>
</event>
<event>
 6    0  0.1572624E-007  0.4459491E+03  0.7546771E-02  0.1028937E+00
         21   -1    0    0  502  501  0.00000000000E+00  0.00000000000E+00  0.14319047171E+04  0.14319047171E+04  0.00000000000E+00 0. -1.
         21   -1    0    0  501  502 -0.00000000000E+00 -0.00000000000E+00 -0.34721342859E+02  0.34721342859E+02  0.00000000000E+00 0. -1.
      99926    2    1    2    0    0  0.71054273576E-14 -0.35527136788E-14  0.13971833742E+04  0.14666260600E+04  0.44594912097E+03 0.  0.
         25    1    3    3    0    0 -0.99079744965E+02  0.11880829087E+02  0.52711817536E+03  0.55087115449E+03  0.12509000000E+03 0.  0.
         25    1    3    3    0    0  0.50078964261E+02 -0.35916935965E+02  0.55782675245E+03  0.57499228064E+03  0.12509000000E+03 0.  0.
         25    1    3    3    0    0  0.49000780704E+02  0.24036106878E+02  0.31223844644E+03  0.34076262483E+03  0.12509000000E+03 0.  0.
<mgrwt>
<rscale>  2 0.44594912E+03</rscale>
<asrwt>0</asrwt>
<pdfrwt beam="1">  1       21 0.21057418E+00 0.44594912E+03</pdfrwt>
<pdfrwt beam="2">  1       21 0.51060808E-02 0.44594912E+03</pdfrwt>
<totfact> 0.26418257E+04</totfact>
</mgrwt>
</event>
<event>
 6    0  0.1572624E-007  0.4552006E+03  0.7546771E-02  0.1026182E+00
         21   -1    0    0  502  501  0.00000000000E+00  0.00000000000E+00  0.53173743233E+02  0.53173743233E+02  0.00000000000E+00 0.  1.
         21   -1    0    0  501  502 -0.00000000000E+00 -0.00000000000E+00 -0.97420066379E+03  0.97420066379E+03  0.00000000000E+00 0.  1.
      99926    2    1    2    0    0  0.00000000000E+00 -0.71054273576E-14 -0.92102692056E+03  0.10273744070E+04  0.45520059734E+03 0.  0.
         25    1    3    3    0    0 -0.96781990279E+01 -0.51366083631E+02 -0.32613939465E+03  0.35319478327E+03  0.12509000000E+03 0.  0.
         25    1    3    3    0    0  0.54552344931E+02  0.16538300834E+02 -0.46581454731E+03  0.48567496777E+03  0.12509000000E+03 0.  0.
         25    1    3    3    0    0 -0.44874145903E+02  0.34827782797E+02 -0.12907297860E+03  0.18850465599E+03  0.12509000000E+03 0.  0.
<mgrwt>
<rscale>  2 0.45520060E+03</rscale>
<asrwt>0</asrwt>
<pdfrwt beam="1">  1       21 0.78196689E-02 0.45520060E+03</pdfrwt>
<pdfrwt beam="2">  1       21 0.14326479E+00 0.45520060E+03</pdfrwt>
<totfact> 0.38059068E+04</totfact>
</mgrwt>
</event>
<event>
 6    0  0.1572624E-007  0.4388528E+03  0.7546771E-02  0.1031099E+00
         21   -1    0    0  502  501  0.00000000000E+00  0.00000000000E+00  0.28233438600E+03  0.28233438600E+03  0.00000000000E+00 0. -1.
         21   -1    0    0  501  502 -0.00000000000E+00 -0.00000000000E+00 -0.17053520827E+03  0.17053520827E+03  0.00000000000E+00 0. -1.
      99926    2    1    2    0    0  0.35527136788E-14 -0.35527136788E-14  0.11179917773E+03  0.45286959427E+03  0.43885283783E+03 0.  0.
         25    1    3    3    0    0  0.86543614032E+02 -0.31321106880E+01  0.19910962566E+02  0.15343911424E+03  0.12509000000E+03 0.  0.
         25    1    3    3    0    0 -0.45056131368E+01  0.22341064107E+02  0.93259575916E+01  0.12749080469E+03  0.12509000000E+03 0.  0.
         25    1    3    3    0    0 -0.82038000895E+02 -0.19208953419E+02  0.82562257569E+02  0.17193967534E+03  0.12509000000E+03 0.  0.
<mgrwt>
<rscale>  2 0.43885284E+03</rscale>
<asrwt>0</asrwt>
<pdfrwt beam="1">  1       21 0.41519763E-01 0.43885284E+03</pdfrwt>
<pdfrwt beam="2">  1       21 0.25078707E-01 0.43885284E+03</pdfrwt>
<totfact> 0.78288147E+04</totfact>
</mgrwt>
</event>
<event>
 6    0  0.1572624E-007  0.4542898E+03  0.7546771E-02  0.1026450E+00
         21   -1    0    0  502  501  0.00000000000E+00  0.00000000000E+00  0.32867472375E+03  0.32867472375E+03  0.00000000000E+00 0.  1.
         21   -1    0    0  501  502 -0.00000000000E+00 -0.00000000000E+00 -0.15697831490E+03  0.15697831490E+03  0.00000000000E+00 0.  1.
      99926    2    1    2    0    0  0.00000000000E+00  0.35527136788E-14  0.17169640886E+03  0.48565303865E+03  0.45428979422E+03 0.  0.
         25    1    3    3    0    0  0.36250889648E+02 -0.55651931286E+02 -0.30676360795E+02  0.14491311765E+03  0.12509000000E+03 0.  0.
         25    1    3    3    0    0 -0.63610110371E+02  0.30747385232E+02  0.10828436760E+03  0.17990180712E+03  0.12509000000E+03 0.  0.
         25    1    3    3    0    0  0.27359220723E+02  0.24904546054E+02  0.94088402051E+02  0.16083811387E+03  0.12509000000E+03 0.  0.
<mgrwt>
<rscale>  2 0.45428979E+03</rscale>
<asrwt>0</asrwt>
<pdfrwt beam="1">  1       21 0.48334518E-01 0.45428979E+03</pdfrwt>
<pdfrwt beam="2">  1       21 0.23085046E-01 0.45428979E+03</pdfrwt>
<totfact> 0.66665917E+04</totfact>
</mgrwt>
</event>
<event>
 6    0  0.1572624E-007  0.4526528E+03  0.7546771E-02  0.1026934E+00
         21   -1    0    0  502  501  0.00000000000E+00  0.00000000000E+00  0.14843217295E+03  0.14843217295E+03  0.00000000000E+00 0.  1.
         21   -1    0    0  501  502 -0.00000000000E+00 -0.00000000000E+00 -0.34509791278E+03  0.34509791278E+03  0.00000000000E+00 0.  1.
      99926    2    1    2    0    0  0.14210854715E-13 -0.71054273576E-14 -0.19666573984E+03  0.49353008573E+03  0.45265277233E+03 0.  0.
         25    1    3    3    0    0  0.75328982315E+02 -0.46298849316E+02 -0.34999931167E+02  0.15713224464E+03  0.12509000000E+03 0.  0.
         25    1    3    3    0    0 -0.24401508439E+02  0.44884616978E+02 -0.13321090603E+02  0.13577563114E+03  0.12509000000E+03 0.  0.
         25    1    3    3    0    0 -0.50927473876E+02  0.14142323376E+01 -0.14834471807E+03  0.20062220995E+03  0.12509000000E+03 0.  0.
<mgrwt>
<rscale>  2 0.45265277E+03</rscale>
<asrwt>0</asrwt>
<pdfrwt beam="1">  1       21 0.21828261E-01 0.45265277E+03</pdfrwt>
<pdfrwt beam="2">  1       21 0.50749693E-01 0.45265277E+03</pdfrwt>
<totfact> 0.66966777E+04</totfact>
</mgrwt>
</event>
<event>
 6    0  0.1572624E-007  0.4549068E+03  0.7546771E-02  0.1026269E+00
         21   -1    0    0  502  501  0.00000000000E+00  0.00000000000E+00  0.61455049285E+02  0.61455049285E+02  0.00000000000E+00 0. -1.
         21   -1    0    0  501  502 -0.00000000000E+00 -0.00000000000E+00 -0.84183551465E+03  0.84183551465E+03  0.00000000000E+00 0. -1.
      99926    2    1    2    0    0 -0.35527136788E-14  0.00000000000E+00 -0.78038046537E+03  0.90329056394E+03  0.45490677305E+03 0.  0.
         25    1    3    3    0    0 -0.24987368645E+02 -0.21529007211E+01 -0.21282172923E+03  0.24813222303E+03  0.12509000000E+03 0.  0.
         25    1    3    3    0    0  0.38040454105E+02 -0.76778763836E+02 -0.41694154046E+03  0.44365505856E+03  0.12509000000E+03 0.  0.
         25    1    3    3    0    0 -0.13053085460E+02  0.78931664557E+02 -0.15061719568E+03  0.21150328235E+03  0.12509000000E+03 0.  0.
<mgrwt>
<rscale>  2 0.45490677E+03</rscale>
<asrwt>0</asrwt>
<pdfrwt beam="1">  1       21 0.90375069E-02 0.45490677E+03</pdfrwt>
<pdfrwt beam="2">  1       21 0.12379935E+00 0.45490677E+03</pdfrwt>
<totfact> 0.43123196E+04</totfact>
</mgrwt>
</event>
<event>
 6    0  0.1572624E-007  0.4549545E+03  0.7546771E-02  0.1026255E+00
         21   -1    0    0  502  501  0.00000000000E+00  0.00000000000E+00  0.22058653950E+04  0.22058653950E+04  0.00000000000E+00 0.  1.
         21   -1    0    0  501  502 -0.00000000000E+00 -0.00000000000E+00 -0.23458323447E+02  0.23458323447E+02  0.00000000000E+00 0.  1.
      99926    2    1    2    0    0  0.00000000000E+00  0.00000000000E+00  0.21824070716E+04  0.22293237185E+04  0.45495452044E+03 0.  0.
         25    1    3    3    0    0  0.24942823087E+02  0.11136596155E+03  0.62451663814E+03  0.64706495905E+03  0.12509000000E+03 0.  0.
         25    1    3    3    0    0 -0.24155467006E+02 -0.56486097535E+02  0.84130591246E+03  0.85277037486E+03  0.12509000000E+03 0.  0.
         25    1    3    3    0    0 -0.78735608103E+00 -0.54879864015E+02  0.71658452098E+03  0.72948838456E+03  0.12509000000E+03 0.  0.
<mgrwt>
<rscale>  2 0.45495452E+03</rscale>
<asrwt>0</asrwt>
<pdfrwt beam="1">  1       21 0.32439183E+00 0.45495452E+03</pdfrwt>
<pdfrwt beam="2">  1       21 0.34497550E-02 0.45495452E+03</pdfrwt>
<totfact> 0.10317709E+04</totfact>
</mgrwt>
</event>
<event>
 6    0  0.1572624E-007  0.4634626E+03  0.7546771E-02  0.1023782E+00
         21   -1    0    0  502  501  0.00000000000E+00  0.00000000000E+00  0.62245864616E+02  0.62245864616E+02  0.00000000000E+00 0.  1.
         21   -1    0    0  501  502 -0.00000000000E+00 -0.00000000000E+00 -0.86269803690E+03  0.86269803690E+03  0.00000000000E+00 0.  1.
      99926    2    1    2    0    0  0.00000000000E+00  0.00000000000E+00 -0.80045217228E+03  0.92494390151E+03  0.46346255602E+03 0.  0.
         25    1    3    3    0    0 -0.54304963637E+02 -0.15286546322E+02 -0.24138739217E+03  0.27766542596E+03  0.12509000000E+03 0.  0.
         25    1    3    3    0    0  0.62835969080E+02  0.39971252297E+02 -0.11597099001E+03  0.18612586775E+03  0.12509000000E+03 0.  0.
         25    1    3    3    0    0 -0.85310054431E+01 -0.24684705975E+02 -0.44309379009E+03  0.46115260780E+03  0.12509000000E+03 0.  0.
<mgrwt>
<rscale>  2 0.46346256E+03</rscale>
<asrwt>0</asrwt>
<pdfrwt beam="1">  1       21 0.91538040E-02 0.46346256E+03</pdfrwt>
<pdfrwt beam="2">  1       21 0.12686735E+00 0.46346256E+03</pdfrwt>
<totfact> 0.39491504E+04</totfact>
</mgrwt>
</event>
<event>
 6    0  0.1572624E-007  0.4542023E+03  0.7546771E-02  0.1026476E+00
         21   -1    0    0  502  501  0.00000000000E+00  0.00000000000E+00  0.21097391114E+03  0.21097391114E+03  0.00000000000E+00 0. -1.
         21   -1    0    0  501  502 -0.00000000000E+00 -0.00000000000E+00 -0.24446122004E+03  0.24446122004E+03  0.00000000000E+00 0. -1.
      99926    2    1    2    0    0  0.00000000000E+00  0.00000000000E+00 -0.33487308901E+02  0.45543513118E+03  0.45420233250E+03 0.  0.
         25    1    3    3    0    0 -0.10025547969E+03 -0.14246205595E+02  0.85681521224E+01  0.16116772913E+03  0.12509000000E+03 0.  0.
         25    1    3    3    0    0  0.26802190814E+02  0.53356195322E+02 -0.13788368852E+01  0.13861691925E+03  0.12509000000E+03 0.  0.
         25    1    3    3    0    0  0.73453288877E+02 -0.39109989726E+02 -0.40676624138E+02  0.15565048280E+03  0.12509000000E+03 0.  0.
<mgrwt>
<rscale>  2 0.45420233E+03</rscale>
<asrwt>0</asrwt>
<pdfrwt beam="1">  1       21 0.31025575E-01 0.45420233E+03</pdfrwt>
<pdfrwt beam="2">  1       21 0.35950179E-01 0.45420233E+03</pdfrwt>
<totfact> 0.68951754E+04</totfact>
</mgrwt>
</event>
<event>
 6    0  0.1572624E-007  0.4579534E+03  0.7546771E-02  0.1025376E+00
         21   -1    0    0  502  501  0.00000000000E+00  0.00000000000E+00  0.34814540783E+03  0.34814540783E+03  0.00000000000E+00 0.  1.
         21   -1    0    0  501  502 -0.00000000000E+00 -0.00000000000E+00 -0.15059894628E+03  0.15059894628E+03  0.00000000000E+00 0.  1.
      99926    2    1    2    0    0  0.71054273576E-14  0.00000000000E+00  0.19754646156E+03  0.49874435411E+03  0.45795341060E+03 0.  0.
         25    1    3    3    0    0  0.89652205596E+02 -0.17372585779E+02 -0.36922118004E+01  0.15492083537E+03  0.12509000000E+03 0.  0.
         25    1    3    3    0    0 -0.33112965275E+02  0.37749929521E+02  0.66137275783E+02  0.15014384102E+03  0.12509000000E+03 0.  0.
         25    1    3    3    0    0 -0.56539240320E+02 -0.20377343743E+02  0.13510139757E+03  0.19367967772E+03  0.12509000000E+03 0.  0.
<mgrwt>
<rscale>  2 0.45795341E+03</rscale>
<asrwt>0</asrwt>
<pdfrwt beam="1">  1       21 0.51197854E-01 0.45795341E+03</pdfrwt>
<pdfrwt beam="2">  1       21 0.22146904E-01 0.45795341E+03</pdfrwt>
<totfact> 0.63848828E+04</totfact>
</mgrwt>
</event>
<event>
 6    0  0.1572624E-007  0.4544391E+03  0.7546771E-02  0.1026406E+00
         21   -1    0    0  502  501  0.00000000000E+00  0.00000000000E+00  0.21397399186E+03  0.21397399186E+03  0.00000000000E+00 0.  1.
         21   -1    0    0  501  502 -0.00000000000E+00 -0.00000000000E+00 -0.24128509638E+03  0.24128509638E+03  0.00000000000E+00 0.  1.
      99926    2    1    2    0    0  0.35527136788E-14  0.53290705182E-14 -0.27311104523E+02  0.45525908825E+03  0.45443914994E+03 0.  0.
         25    1    3    3    0    0 -0.47455450403E+02 -0.74930684190E+02 -0.89804918220E+02  0.17770497641E+03  0.12509000000E+03 0.  0.
         25    1    3    3    0    0  0.22727503153E+02  0.12402840302E+02  0.19859236854E+02  0.12927593448E+03  0.12509000000E+03 0.  0.
         25    1    3    3    0    0  0.24727947249E+02  0.62527843887E+02  0.42634576842E+02  0.14827817735E+03  0.12509000000E+03 0.  0.
<mgrwt>
<rscale>  2 0.45443915E+03</rscale>
<asrwt>0</asrwt>
<pdfrwt beam="1">  1       21 0.31466764E-01 0.45443915E+03</pdfrwt>
<pdfrwt beam="2">  1       21 0.35483102E-01 0.45443915E+03</pdfrwt>
<totfact> 0.68834363E+04</totfact>
</mgrwt>
</event>
<event>
 6    0  0.1572624E-007  0.4782907E+03  0.7546771E-02  0.1019606E+00
         21   -1    0    0  502  501  0.00000000000E+00  0.00000000000E+00  0.20607365471E+03  0.20607365471E+03  0.00000000000E+00 0.  1.
         21   -1    0    0  501  502 -0.00000000000E+00 -0.00000000000E+00 -0.27752460056E+03  0.27752460056E+03  0.00000000000E+00 0.  1.
      99926    2    1    2    0    0  0.10658141036E-13  0.00000000000E+00 -0.71450945849E+02  0.48359825527E+03  0.47829074300E+03 0.  0.
         25    1    3    3    0    0 -0.13122930051E+02 -0.24690105051E+02 -0.23660266822E+02  0.13034235270E+03  0.12509000000E+03 0.  0.
         25    1    3    3    0    0 -0.91369562777E+02 -0.28270187365E+02 -0.83442755512E+02  0.17820718853E+03  0.12509000000E+03 0.  0.
         25    1    3    3    0    0  0.10449249283E+03  0.52960292416E+02  0.35652076486E+02  0.17504871404E+03  0.12509000000E+03 0.  0.
<mgrwt>
<rscale>  2 0.47829074E+03</rscale>
<asrwt>0</asrwt>
<pdfrwt beam="1">  1       21 0.30304949E-01 0.47829074E+03</pdfrwt>
<pdfrwt beam="2">  1       21 0.40812441E-01 0.47829074E+03</pdfrwt>
<totfact> 0.55451432E+04</totfact>
</mgrwt>
</event>
<event>
 6    0  0.1572624E-007  0.4575242E+03  0.7546771E-02  0.1025502E+00
         21   -1    0    0  502  501  0.00000000000E+00  0.00000000000E+00  0.86222060846E+02  0.86222060846E+02  0.00000000000E+00 0. -1.
         21   -1    0    0  501  502 -0.00000000000E+00 -0.00000000000E+00 -0.60694552526E+03  0.60694552526E+03  0.00000000000E+00 0. -1.
      99926    2    1    2    0    0  0.00000000000E+00  0.00000000000E+00 -0.52072346442E+03  0.69316758611E+03  0.45752418082E+03 0.  0.
         25    1    3    3    0    0  0.44841654631E+02 -0.22321372905E+02 -0.11385749307E+03  0.17640877106E+03  0.12509000000E+03 0.  0.
         25    1    3    3    0    0  0.71616925651E+02  0.23944486551E+02 -0.21311036431E+03  0.25839090145E+03  0.12509000000E+03 0.  0.
         25    1    3    3    0    0 -0.11645858028E+03 -0.16231136462E+01 -0.19375560704E+03  0.25836791360E+03  0.12509000000E+03 0.  0.
<mgrwt>
<rscale>  2 0.45752418E+03</rscale>
<asrwt>0</asrwt>
<pdfrwt beam="1">  1       21 0.12679714E-01 0.45752418E+03</pdfrwt>
<pdfrwt beam="2">  1       21 0.89256698E-01 0.45752418E+03</pdfrwt>
<totfact> 0.52230032E+04</totfact>
</mgrwt>
</event>
<event>
 6    0  0.1572624E-007  0.4659752E+03  0.7546771E-02  0.1023062E+00
         21   -1    0    0  502  501  0.00000000000E+00  0.00000000000E+00  0.41682314472E+03  0.41682314472E+03  0.00000000000E+00 0.  1.
         21   -1    0    0  501  502 -0.00000000000E+00 -0.00000000000E+00 -0.13023084963E+03  0.13023084963E+03  0.00000000000E+00 0.  1.
      99926    2    1    2    0    0  0.71054273576E-14  0.71054273576E-14  0.28659229510E+03  0.54705399435E+03  0.46597524518E+03 0.  0.
         25    1    3    3    0    0 -0.81343137803E+02 -0.97681946791E+02  0.10151158184E+03  0.20520862103E+03  0.12509000000E+03 0.  0.
         25    1    3    3    0    0  0.39395470772E+02  0.55704802385E+02  0.12986437271E+03  0.19278820380E+03  0.12509000000E+03 0.  0.
         25    1    3    3    0    0  0.41947667031E+02  0.41977144406E+02  0.55216340549E+02  0.14905716952E+03  0.12509000000E+03 0.  0.
<mgrwt>
<rscale>  2 0.46597525E+03</rscale>
<asrwt>0</asrwt>
<pdfrwt beam="1">  1       21 0.61297521E-01 0.46597525E+03</pdfrwt>
<pdfrwt beam="2">  1       21 0.19151596E-01 0.46597525E+03</pdfrwt>
<totfact> 0.56950204E+04</totfact>
</mgrwt>
</event>
<event>
 6    0  0.1572624E-007  0.4592081E+03  0.7546771E-02  0.1025011E+00
         21   -1    0    0  502  501  0.00000000000E+00  0.00000000000E+00  0.12673348707E+04  0.12673348707E+04  0.00000000000E+00 0.  1.
         21   -1    0    0  501  502 -0.00000000000E+00 -0.00000000000E+00 -0.41597550158E+02  0.41597550158E+02  0.00000000000E+00 0.  1.
      99926    2    1    2    0    0  0.14210854715E-13  0.71054273576E-14  0.12257373206E+04  0.13089324209E+04  0.45920812646E+03 0.  0.
         25    1    3    3    0    0  0.55494280147E+02 -0.38685863900E+02  0.41966806899E+03  0.44310834728E+03  0.12509000000E+03 0.  0.
         25    1    3    3    0    0 -0.84856255474E+02 -0.40620091950E+02  0.30981756280E+03  0.34710950186E+03  0.12509000000E+03 0.  0.
         25    1    3    3    0    0  0.29361975327E+02  0.79305955850E+02  0.49625168880E+03  0.51871457177E+03  0.12509000000E+03 0.  0.
<mgrwt>
<rscale>  2 0.45920813E+03</rscale>
<asrwt>0</asrwt>
<pdfrwt beam="1">  1       21 0.18637275E+00 0.45920813E+03</pdfrwt>
<pdfrwt beam="2">  1       21 0.61172876E-02 0.45920813E+03</pdfrwt>
<totfact> 0.27931081E+04</totfact>
</mgrwt>
</event>
<event>
 6    0  0.1572624E-007  0.4854041E+03  0.7546771E-02  0.1017660E+00
         21   -1    0    0  502  501  0.00000000000E+00  0.00000000000E+00  0.36048615239E+03  0.36048615239E+03  0.00000000000E+00 0.  1.
         21   -1    0    0  501  502 -0.00000000000E+00 -0.00000000000E+00 -0.16340234571E+03  0.16340234571E+03  0.00000000000E+00 0.  1.
      99926    2    1    2    0    0  0.00000000000E+00 -0.44408920985E-14  0.19708380668E+03  0.52388849810E+03  0.48540409103E+03 0.  0.
         25    1    3    3    0    0  0.12418403565E+01 -0.96275847007E+02  0.18066439640E+03  0.23991188614E+03  0.12509000000E+03 0.  0.
         25    1    3    3    0    0 -0.18163990658E+02  0.73922168142E+01 -0.11313431786E+02  0.12712229256E+03  0.12509000000E+03 0.  0.
         25    1    3    3    0    0  0.16922150302E+02  0.88883630192E+02  0.27732842071E+02  0.15685431941E+03  0.12509000000E+03 0.  0.
<mgrwt>
<rscale>  2 0.48540409E+03</rscale>
<asrwt>0</asrwt>
<pdfrwt beam="1">  1       21 0.53012669E-01 0.48540409E+03</pdfrwt>
<pdfrwt beam="2">  1       21 0.24029757E-01 0.48540409E+03</pdfrwt>
<totfact> 0.50335260E+04</totfact>
</mgrwt>
</event>
<event>
 6    0  0.1572624E-007  0.4577846E+03  0.7546771E-02  0.1025426E+00
         21   -1    0    0  502  501  0.00000000000E+00  0.00000000000E+00  0.17820380757E+03  0.17820380757E+03  0.00000000000E+00 0.  1.
         21   -1    0    0  501  502 -0.00000000000E+00 -0.00000000000E+00 -0.29399864573E+03  0.29399864573E+03  0.00000000000E+00 0.  1.
      99926    2    1    2    0    0  0.00000000000E+00 -0.35527136788E-14 -0.11579483816E+03  0.47220245331E+03  0.45778456982E+03 0.  0.
         25    1    3    3    0    0  0.37011853110E+02 -0.29211543080E+02 -0.12589109769E+03  0.18362807001E+03  0.12509000000E+03 0.  0.
         25    1    3    3    0    0  0.33664150146E+02  0.52602444150E+02 -0.15864352840E+02  0.14071061768E+03  0.12509000000E+03 0.  0.
         25    1    3    3    0    0 -0.70676003256E+02 -0.23390901070E+02  0.25960612365E+02  0.14786376562E+03  0.12509000000E+03 0.  0.
<mgrwt>
<rscale>  2 0.45778457E+03</rscale>
<asrwt>0</asrwt>
<pdfrwt beam="1">  1       21 0.26206442E-01 0.45778457E+03</pdfrwt>
<pdfrwt beam="2">  1       21 0.43235095E-01 0.45778457E+03</pdfrwt>
<totfact> 0.65806526E+04</totfact>
</mgrwt>
</event>
<event>
 6    0  0.1572624E-007  0.4447867E+03  0.7546771E-02  0.1029288E+00
         21   -1    0    0  502  501  0.00000000000E+00  0.00000000000E+00  0.76736075084E+02  0.76736075084E+02  0.00000000000E+00 0. -1.
         21   -1    0    0  501  502 -0.00000000000E+00 -0.00000000000E+00 -0.64453121292E+03  0.64453121292E+03  0.00000000000E+00 0. -1.
      99926    2    1    2    0    0  0.00000000000E+00  0.71054273576E-14 -0.56779513783E+03  0.72126728800E+03  0.44478667043E+03 0.  0.
         25    1    3    3    0    0 -0.69527145145E+01  0.79957654920E+02 -0.20688812782E+03  0.25473863538E+03  0.12509000000E+03 0.  0.
         25    1    3    3    0    0  0.62670235276E+02 -0.48034326364E+02 -0.23557836414E+03  0.27817176106E+03  0.12509000000E+03 0.  0.
         25    1    3    3    0    0 -0.55717520761E+02 -0.31923328556E+02 -0.12532864588E+03  0.18835689157E+03  0.12509000000E+03 0.  0.
<mgrwt>
<rscale>  2 0.44478667E+03</rscale>
<asrwt>0</asrwt>
<pdfrwt beam="1">  1       21 0.11284717E-01 0.44478667E+03</pdfrwt>
<pdfrwt beam="2">  1       21 0.94784002E-01 0.44478667E+03</pdfrwt>
<totfact> 0.56139043E+04</totfact>
</mgrwt>
</event>
<event>
 6    0  0.1572624E-007  0.4513859E+03  0.7546771E-02  0.1027310E+00
         21   -1    0    0  502  501  0.00000000000E+00  0.00000000000E+00  0.83710695244E+03  0.83710695244E+03  0.00000000000E+00 0. -1.
         21   -1    0    0  501  502 -0.00000000000E+00 -0.00000000000E+00 -0.60849214301E+02  0.60849214301E+02  0.00000000000E+00 0. -1.
      99926    2    1    2    0    0 -0.35527136788E-14  0.00000000000E+00  0.77625773813E+03  0.89795616674E+03  0.45138586749E+03 0.  0.
         25    1    3    3    0    0  0.44640024110E+02  0.25656443909E+02  0.40680040180E+03  0.42870159770E+03  0.12509000000E+03 0.  0.
         25    1    3    3    0    0 -0.24778294253E+02  0.54466522791E+02  0.19472921378E+03  0.23905551818E+03  0.12509000000E+03 0.  0.
         25    1    3    3    0    0 -0.19861729857E+02 -0.80122966699E+02  0.17472812256E+03  0.23019905086E+03  0.12509000000E+03 0.  0.
<mgrwt>
<rscale>  2 0.45138587E+03</rscale>
<asrwt>0</asrwt>
<pdfrwt beam="1">  1       21 0.12310396E+00 0.45138587E+03</pdfrwt>
<pdfrwt beam="2">  1       21 0.89484144E-02 0.45138587E+03</pdfrwt>
<totfact> 0.44570070E+04</totfact>
</mgrwt>
</event>
<event>
 6    0  0.1572624E-007  0.4479408E+03  0.7546771E-02  0.1028338E+00
         21   -1    0    0  502  501  0.00000000000E+00  0.00000000000E+00  0.48473799165E+03  0.48473799165E+03  0.00000000000E+00 0. -1.
         21   -1    0    0  501  502 -0.00000000000E+00 -0.00000000000E+00 -0.10348424963E+03  0.10348424963E+03  0.00000000000E+00 0. -1.
      99926    2    1    2    0    0 -0.11546319456E-13  0.00000000000E+00  0.38125374201E+03  0.58822224128E+03  0.44794083240E+03 0.  0.
         25    1    3    3    0    0  0.68601048353E+02 -0.50173136706E+02  0.12881453204E+03  0.19865583114E+03  0.12509000000E+03 0.  0.
         25    1    3    3    0    0  0.76828138520E+01  0.74202915458E+02  0.15071189978E+03  0.20958693453E+03  0.12509000000E+03 0.  0.
         25    1    3    3    0    0 -0.76283862205E+02 -0.24029778752E+02  0.10172731019E+03  0.17997947561E+03  0.12509000000E+03 0.  0.
<mgrwt>
<rscale>  2 0.44794083E+03</rscale>
<asrwt>0</asrwt>
<pdfrwt beam="1">  1       21 0.71284998E-01 0.44794083E+03</pdfrwt>
<pdfrwt beam="2">  1       21 0.15218272E-01 0.44794083E+03</pdfrwt>
<totfact> 0.62842640E+04</totfact>
</mgrwt>
</event>
<event>
 6    0  0.1572624E-007  0.4599825E+03  0.7546771E-02  0.1024786E+00
         21   -1    0    0  502  501  0.00000000000E+00  0.00000000000E+00  0.37406559150E+03  0.37406559150E+03  0.00000000000E+00 0.  1.
         21   -1    0    0  501  502 -0.00000000000E+00 -0.00000000000E+00 -0.14140828342E+03  0.14140828342E+03  0.00000000000E+00 0.  1.
      99926    2    1    2    0    0  0.00000000000E+00  0.00000000000E+00  0.23265730807E+03  0.51547387492E+03  0.45998249176E+03 0.  0.
         25    1    3    3    0    0 -0.12326061135E+01  0.22764491374E+02  0.27598946463E+01  0.12718044859E+03  0.12509000000E+03 0.  0.
         25    1    3    3    0    0 -0.36248524390E+02  0.51687041162E+02  0.18369742830E+03  0.23103627207E+03  0.12509000000E+03 0.  0.
         25    1    3    3    0    0  0.37481130503E+02 -0.74451532536E+02  0.46199985125E+02  0.15725715426E+03  0.12509000000E+03 0.  0.
<mgrwt>
<rscale>  2 0.45998249E+03</rscale>
<asrwt>0</asrwt>
<pdfrwt beam="1">  1       21 0.55009646E-01 0.45998249E+03</pdfrwt>
<pdfrwt beam="2">  1       21 0.20795336E-01 0.45998249E+03</pdfrwt>
<totfact> 0.61719970E+04</totfact>
</mgrwt>
</event>
<event>
 6    0  0.1572624E-007  0.4540351E+03  0.7546771E-02  0.1026526E+00
         21   -1    0    0  502  501  0.00000000000E+00  0.00000000000E+00  0.87725344597E+02  0.87725344597E+02  0.00000000000E+00 0.  1.
         21   -1    0    0  501  502 -0.00000000000E+00 -0.00000000000E+00 -0.58748084082E+03  0.58748084082E+03  0.00000000000E+00 0.  1.
      99926    2    1    2    0    0  0.00000000000E+00  0.00000000000E+00 -0.49975549622E+03  0.67520618541E+03  0.45403506122E+03 0.  0.
         25    1    3    3    0    0 -0.33726598900E+02 -0.41468915052E+02 -0.75955734659E+02  0.15580095031E+03  0.12509000000E+03 0.  0.
         25    1    3    3    0    0  0.88899822713E+02  0.51071592060E+02 -0.20338436857E+03  0.25985418117E+03  0.12509000000E+03 0.  0.
         25    1    3    3    0    0 -0.55173223813E+02 -0.96026770077E+01 -0.22041539299E+03  0.25955105393E+03  0.12509000000E+03 0.  0.
<mgrwt>
<rscale>  2 0.45403506E+03</rscale>
<asrwt>0</asrwt>
<pdfrwt beam="1">  1       21 0.12900787E-01 0.45403506E+03</pdfrwt>
<pdfrwt beam="2">  1       21 0.86394237E-01 0.45403506E+03</pdfrwt>
<totfact> 0.54684939E+04</totfact>
</mgrwt>
</event>
<event>
 6    0  0.1572624E-007  0.4584091E+03  0.7546771E-02  0.1025244E+00
         21   -1    0    0  502  501  0.00000000000E+00  0.00000000000E+00  0.49258275178E+02  0.49258275178E+02  0.00000000000E+00 0. -1.
         21   -1    0    0  501  502 -0.00000000000E+00 -0.00000000000E+00 -0.10665158559E+04  0.10665158559E+04  0.00000000000E+00 0. -1.
      99926    2    1    2    0    0  0.00000000000E+00  0.00000000000E+00 -0.10172575807E+04  0.11157741311E+04  0.45840912518E+03 0.  0.
         25    1    3    3    0    0 -0.69015501007E+02 -0.49816605549E+02 -0.45728459859E+03  0.48166538777E+03  0.12509000000E+03 0.  0.
         25    1    3    3    0    0 -0.50623750028E+01 -0.33350061540E+02 -0.26230548983E+03  0.29255688736E+03  0.12509000000E+03 0.  0.
         25    1    3    3    0    0  0.74077876010E+02  0.83166667089E+02 -0.29766749229E+03  0.34155185593E+03  0.12509000000E+03 0.  0.
<mgrwt>
<rscale>  2 0.45840913E+03</rscale>
<asrwt>0</asrwt>
<pdfrwt beam="1">  1       21 0.72438642E-02 0.45840913E+03</pdfrwt>
<pdfrwt beam="2">  1       21 0.15684056E+00 0.45840913E+03</pdfrwt>
<totfact> 0.34032222E+04</totfact>
</mgrwt>
</event>
<event>
 6    0  0.1572624E-007  0.4640418E+03  0.7546771E-02  0.1023615E+00
         21   -1    0    0  502  501  0.00000000000E+00  0.00000000000E+00  0.18904345680E+03  0.18904345680E+03  0.00000000000E+00 0.  1.
         21   -1    0    0  501  502 -0.00000000000E+00 -0.00000000000E+00 -0.28476890894E+03  0.28476890894E+03  0.00000000000E+00 0.  1.
      99926    2    1    2    0    0  0.00000000000E+00 -0.46074255522E-14 -0.95725452141E+02  0.47381236573E+03  0.46404180386E+03 0.  0.
         25    1    3    3    0    0  0.11222286782E+03 -0.27876517198E+00 -0.56872185510E+02  0.17741477773E+03  0.12509000000E+03 0.  0.
         25    1    3    3    0    0 -0.85897172857E+02 -0.34999184136E+02 -0.49389156996E+02  0.16337094027E+03  0.12509000000E+03 0.  0.
         25    1    3    3    0    0 -0.26325694962E+02  0.35277949308E+02  0.10535890365E+02  0.13302664774E+03  0.12509000000E+03 0.  0.
<mgrwt>
<rscale>  2 0.46404180E+03</rscale>
<asrwt>0</asrwt>
<pdfrwt beam="1">  1       21 0.27800509E-01 0.46404180E+03</pdfrwt>
<pdfrwt beam="2">  1       21 0.41877780E-01 0.46404180E+03</pdfrwt>
<totfact> 0.62543483E+04</totfact>
</mgrwt>
</event>
<event>
 6    0  0.1572624E-007  0.4568499E+03  0.7546771E-02  0.1025699E+00
         21   -1    0    0  502  501  0.00000000000E+00  0.00000000000E+00  0.89815579406E+02  0.89815579406E+02  0.00000000000E+00 0. -1.
         21   -1    0    0  501  502 -0.00000000000E+00 -0.00000000000E+00 -0.58094545212E+03  0.58094545212E+03  0.00000000000E+00 0. -1.
      99926    2    1    2    0    0  0.00000000000E+00  0.00000000000E+00 -0.49112987272E+03  0.67076103153E+03  0.45684987637E+03 0.  0.
         25    1    3    3    0    0 -0.10842223525E+03 -0.81189038376E+00 -0.21196666920E+03  0.26894872600E+03  0.12509000000E+03 0.  0.
         25    1    3    3    0    0  0.50837952585E+02  0.33132498433E+02 -0.90030295677E+02  0.16563581169E+03  0.12509000000E+03 0.  0.
         25    1    3    3    0    0  0.57584282666E+02 -0.32320608049E+02 -0.18913290783E+03  0.23617649384E+03  0.12509000000E+03 0.  0.
<mgrwt>
<rscale>  2 0.45684988E+03</rscale>
<asrwt>0</asrwt>
<pdfrwt beam="1">  1       21 0.13208173E-01 0.45684988E+03</pdfrwt>
<pdfrwt beam="2">  1       21 0.85433156E-01 0.45684988E+03</pdfrwt>
<totfact> 0.53731656E+04</totfact>
</mgrwt>
</event>
<event>
 6    0  0.1572624E-007  0.4530957E+03  0.7546771E-02  0.1026803E+00
         21   -1    0    0  502  501  0.00000000000E+00  0.00000000000E+00  0.85353097855E+03  0.85353097855E+03  0.00000000000E+00 0.  1.
         21   -1    0    0  501  502 -0.00000000000E+00 -0.00000000000E+00 -0.60131313184E+02  0.60131313184E+02  0.00000000000E+00 0.  1.
      99926    2    1    2    0    0 -0.26645352591E-14  0.00000000000E+00  0.79339966536E+03  0.91366229173E+03  0.45309574522E+03 0.  0.
         25    1    3    3    0    0  0.57935139382E+02 -0.90967604284E+01  0.38137590612E+03  0.40562830436E+03  0.12509000000E+03 0.  0.
         25    1    3    3    0    0 -0.55807550312E+02  0.72996557259E+02  0.19055372968E+03  0.24576658039E+03  0.12509000000E+03 0.  0.
         25    1    3    3    0    0 -0.21275890696E+01 -0.63899796830E+02  0.22147002956E+03  0.26226740698E+03  0.12509000000E+03 0.  0.
<mgrwt>
<rscale>  2 0.45309575E+03</rscale>
<asrwt>0</asrwt>
<pdfrwt beam="1">  1       21 0.12551925E+00 0.45309575E+03</pdfrwt>
<pdfrwt beam="2">  1       21 0.88428407E-02 0.45309575E+03</pdfrwt>
<totfact> 0.43289735E+04</totfact>
</mgrwt>
</event>
<event>
 6    0  0.1572624E-007  0.4475970E+03  0.7546771E-02  0.1028441E+00
         21   -1    0    0  502  501  0.00000000000E+00  0.00000000000E+00  0.30654468498E+03  0.30654468498E+03  0.00000000000E+00 0. -1.
         21   -1    0    0  501  502 -0.00000000000E+00 -0.00000000000E+00 -0.16338818463E+03  0.16338818463E+03  0.00000000000E+00 0. -1.
      99926    2    1    2    0    0  0.35527136788E-14  0.00000000000E+00  0.14315650034E+03  0.46993286961E+03  0.44759704909E+03 0.  0.
         25    1    3    3    0    0 -0.58953533070E+02  0.43149649036E+02  0.22890997307E+02  0.14665918700E+03  0.12509000000E+03 0.  0.
         25    1    3    3    0    0  0.48736799520E+02  0.41687101856E+02  0.20935329239E+02  0.14212278564E+03  0.12509000000E+03 0.  0.
         25    1    3    3    0    0  0.10216733550E+02 -0.84836750892E+02  0.99330173795E+02  0.18115089697E+03  0.12509000000E+03 0.  0.
<mgrwt>
<rscale>  2 0.44759705E+03</rscale>
<asrwt>0</asrwt>
<pdfrwt beam="1">  1       21 0.45080101E-01 0.44759705E+03</pdfrwt>
<pdfrwt beam="2">  1       21 0.24027674E-01 0.44759705E+03</pdfrwt>
<totfact> 0.71552504E+04</totfact>
</mgrwt>
</event>
<event>
 6    0  0.1572624E-007  0.4356081E+03  0.7546771E-02  0.1032103E+00
         21   -1    0    0  502  501  0.00000000000E+00  0.00000000000E+00  0.62653956722E+03  0.62653956722E+03  0.00000000000E+00 0. -1.
         21   -1    0    0  501  502 -0.00000000000E+00 -0.00000000000E+00 -0.75715241072E+02  0.75715241072E+02  0.00000000000E+00 0. -1.
      99926    2    1    2    0    0  0.35527136788E-14  0.00000000000E+00  0.55082432614E+03  0.70225480829E+03  0.43560805490E+03 0.  0.
         25    1    3    3    0    0  0.15470146048E+02 -0.25650392287E+02  0.20772613659E+03  0.24432544682E+03  0.12509000000E+03 0.  0.
         25    1    3    3    0    0 -0.59970733672E+02  0.27652492752E+02  0.27372722450E+03  0.30811564514E+03  0.12509000000E+03 0.  0.
         25    1    3    3    0    0  0.44500587625E+02 -0.20021004651E+01  0.69370965064E+02  0.14981371633E+03  0.12509000000E+03 0.  0.
<mgrwt>
<rscale>  2 0.43560805E+03</rscale>
<asrwt>0</asrwt>
<pdfrwt beam="1">  1       21 0.92138169E-01 0.43560805E+03</pdfrwt>
<pdfrwt beam="2">  1       21 0.11134595E-01 0.43560805E+03</pdfrwt>
<totfact> 0.61665637E+04</totfact>
</mgrwt>
</event>
<event>
 6    0  0.1572624E-007  0.4361322E+03  0.7546771E-02  0.1031940E+00
         21   -1    0    0  502  501  0.00000000000E+00  0.00000000000E+00  0.38447568704E+03  0.38447568704E+03  0.00000000000E+00 0. -1.
         21   -1    0    0  501  502 -0.00000000000E+00 -0.00000000000E+00 -0.12368226906E+03  0.12368226906E+03  0.00000000000E+00 0. -1.
      99926    2    1    2    0    0  0.35527136788E-14  0.00000000000E+00  0.26079341798E+03  0.50815795610E+03  0.43613220642E+03 0.  0.
         25    1    3    3    0    0  0.29028075909E+02  0.18968592905E+02  0.47663614151E+02  0.13828146991E+03  0.12509000000E+03 0.  0.
         25    1    3    3    0    0 -0.46210429198E+02 -0.62168237469E+02  0.42282702152E+02  0.15308699657E+03  0.12509000000E+03 0.  0.
         25    1    3    3    0    0  0.17182353289E+02  0.43199644564E+02  0.17084710168E+03  0.21678948961E+03  0.12509000000E+03 0.  0.
<mgrwt>
<rscale>  2 0.43613221E+03</rscale>
<asrwt>0</asrwt>
<pdfrwt beam="1">  1       21 0.56540542E-01 0.43613221E+03</pdfrwt>
<pdfrwt beam="2">  1       21 0.18188569E-01 0.43613221E+03</pdfrwt>
<totfact> 0.75363762E+04</totfact>
</mgrwt>
</event>
<event>
 6    0  0.1572624E-007  0.4450417E+03  0.7546771E-02  0.1029211E+00
         21   -1    0    0  502  501  0.00000000000E+00  0.00000000000E+00  0.18834422417E+03  0.18834422417E+03  0.00000000000E+00 0. -1.
         21   -1    0    0  501  502 -0.00000000000E+00 -0.00000000000E+00 -0.26289905344E+03  0.26289905344E+03  0.00000000000E+00 0. -1.
      99926    2    1    2    0    0  0.00000000000E+00  0.00000000000E+00 -0.74554829275E+02  0.45124327761E+03  0.44504165313E+03 0.  0.
         25    1    3    3    0    0 -0.50475173578E+02  0.55767042317E+02 -0.81263861769E+02  0.16705995776E+03  0.12509000000E+03 0.  0.
         25    1    3    3    0    0  0.63265617925E+02  0.15171472340E+00  0.33163489455E+02  0.14404820916E+03  0.12509000000E+03 0.  0.
         25    1    3    3    0    0 -0.12790444347E+02 -0.55918757041E+02 -0.26454456961E+02  0.14013511069E+03  0.12509000000E+03 0.  0.
<mgrwt>
<rscale>  2 0.44504165E+03</rscale>
<asrwt>0</asrwt>
<pdfrwt beam="1">  1       21 0.27697680E-01 0.44504165E+03</pdfrwt>
<pdfrwt beam="2">  1       21 0.38661625E-01 0.44504165E+03</pdfrwt>
<totfact> 0.74571678E+04</totfact>
</mgrwt>
</event>
<event>
 6    0  0.1572624E-007  0.4526974E+03  0.7546771E-02  0.1026921E+00
         21   -1    0    0  502  501  0.00000000000E+00  0.00000000000E+00  0.20854336776E+03  0.20854336776E+03  0.00000000000E+00 0.  1.
         21   -1    0    0  501  502 -0.00000000000E+00 -0.00000000000E+00 -0.24567421898E+03  0.24567421898E+03  0.00000000000E+00 0.  1.
      99926    2    1    2    0    0  0.35527136788E-14  0.26645352591E-14 -0.37130851216E+02  0.45421758675E+03  0.45269737794E+03 0.  0.
         25    1    3    3    0    0  0.38534241967E+02 -0.33448352250E+02  0.84124671695E+02  0.15914819685E+03  0.12509000000E+03 0.  0.
         25    1    3    3    0    0 -0.54697076588E+02  0.25525814262E+02 -0.87878366315E+02  0.16435769756E+03  0.12509000000E+03 0.  0.
         25    1    3    3    0    0  0.16162834621E+02  0.79225379877E+01 -0.33377156597E+02  0.13071169234E+03  0.12509000000E+03 0.  0.
<mgrwt>
<rscale>  2 0.45269738E+03</rscale>
<asrwt>0</asrwt>
<pdfrwt beam="1">  1       21 0.30668142E-01 0.45269738E+03</pdfrwt>
<pdfrwt beam="2">  1       21 0.36128562E-01 0.45269738E+03</pdfrwt>
<totfact> 0.69878177E+04</totfact>
</mgrwt>
</event>
<event>
 6    0  0.1572624E-007  0.4665499E+03  0.7546771E-02  0.1022899E+00
         21   -1    0    0  502  501  0.00000000000E+00  0.00000000000E+00  0.27357040597E+03  0.27357040597E+03  0.00000000000E+00 0. -1.
         21   -1    0    0  501  502 -0.00000000000E+00 -0.00000000000E+00 -0.19891482413E+03  0.19891482413E+03  0.00000000000E+00 0. -1.
      99926    2    1    2    0    0 -0.35527136788E-14  0.00000000000E+00  0.74655581832E+02  0.47248523010E+03  0.46654992955E+03 0.  0.
         25    1    3    3    0    0 -0.44183568579E+02 -0.30376583197E+02  0.80460814472E+02  0.15810242030E+03  0.12509000000E+03 0.  0.
         25    1    3    3    0    0 -0.31949815803E+02  0.22734185758E+02 -0.76301559676E+02  0.15168081632E+03  0.12509000000E+03 0.  0.
         25    1    3    3    0    0  0.76133384382E+02  0.76423974389E+01  0.70496327036E+02  0.16270199348E+03  0.12509000000E+03 0.  0.
<mgrwt>
<rscale>  2 0.46654993E+03</rscale>
<asrwt>0</asrwt>
<pdfrwt beam="1">  1       21 0.40230942E-01 0.46654993E+03</pdfrwt>
<pdfrwt beam="2">  1       21 0.29252180E-01 0.46654993E+03</pdfrwt>
<totfact> 0.61421938E+04</totfact>
</mgrwt>
</event>
<event>
 6    0  0.1572624E-007  0.4610769E+03  0.7546771E-02  0.1024469E+00
         21   -1    0    0  502  501  0.00000000000E+00  0.00000000000E+00  0.47144615564E+03  0.47144615564E+03  0.00000000000E+00 0. -1.
         21   -1    0    0  501  502 -0.00000000000E+00 -0.00000000000E+00 -0.11273393746E+03  0.11273393746E+03  0.00000000000E+00 0. -1.
      99926    2    1    2    0    0 -0.71054273576E-14  0.00000000000E+00  0.35871221818E+03  0.58418009310E+03  0.46107691951E+03 0.  0.
         25    1    3    3    0    0  0.75541498801E+02  0.23461128485E+02  0.12612335312E+03  0.19445192438E+03  0.12509000000E+03 0.  0.
         25    1    3    3    0    0 -0.12413642866E+02 -0.92362952463E+02  0.12814701349E+03  0.20187664225E+03  0.12509000000E+03 0.  0.
         25    1    3    3    0    0 -0.63127855935E+02  0.68901823977E+02  0.10444185157E+03  0.18785152648E+03  0.12509000000E+03 0.  0.
<mgrwt>
<rscale>  2 0.46107692E+03</rscale>
<asrwt>0</asrwt>
<pdfrwt beam="1">  1       21 0.69330316E-01 0.46107692E+03</pdfrwt>
<pdfrwt beam="2">  1       21 0.16578520E-01 0.46107692E+03</pdfrwt>
<totfact> 0.56880671E+04</totfact>
</mgrwt>
</event>
<event>
 6    0  0.1572624E-007  0.4543148E+03  0.7546771E-02  0.1026443E+00
         21   -1    0    0  502  501  0.00000000000E+00  0.00000000000E+00  0.15598253833E+03  0.15598253833E+03  0.00000000000E+00 0.  1.
         21   -1    0    0  501  502 -0.00000000000E+00 -0.00000000000E+00 -0.33080943435E+03  0.33080943435E+03  0.00000000000E+00 0.  1.
      99926    2    1    2    0    0 -0.71054273576E-14  0.22204460493E-14 -0.17482689602E+03  0.48679197267E+03  0.45431484797E+03 0.  0.
         25    1    3    3    0    0 -0.38237217823E+01  0.85517733143E+02 -0.94852502925E+02  0.17880830222E+03  0.12509000000E+03 0.  0.
         25    1    3    3    0    0 -0.39741594497E+02  0.27096143151E+01 -0.32908518469E+01  0.13132050163E+03  0.12509000000E+03 0.  0.
         25    1    3    3    0    0  0.43565316279E+02 -0.88227347458E+02 -0.76683541246E+02  0.17666316883E+03  0.12509000000E+03 0.  0.
<mgrwt>
<rscale>  2 0.45431485E+03</rscale>
<asrwt>0</asrwt>
<pdfrwt beam="1">  1       21 0.22938609E-01 0.45431485E+03</pdfrwt>
<pdfrwt beam="2">  1       21 0.48648446E-01 0.45431485E+03</pdfrwt>
<totfact> 0.66570270E+04</totfact>
</mgrwt>
</event>
<event>
 6    0  0.1572624E-007  0.4546146E+03  0.7546771E-02  0.1026355E+00
         21   -1    0    0  502  501  0.00000000000E+00  0.00000000000E+00  0.45883734335E+03  0.45883734335E+03  0.00000000000E+00 0.  1.
         21   -1    0    0  501  502 -0.00000000000E+00 -0.00000000000E+00 -0.11260768788E+03  0.11260768788E+03  0.00000000000E+00 0.  1.
      99926    2    1    2    0    0  0.00000000000E+00 -0.35527136788E-14  0.34622965547E+03  0.57144503124E+03  0.45461461635E+03 0.  0.
         25    1    3    3    0    0  0.30292129114E+02 -0.85762157162E+02  0.59447904155E+02  0.16569345822E+03  0.12509000000E+03 0.  0.
         25    1    3    3    0    0 -0.40000361182E+02  0.27942252605E+02  0.77636356814E+02  0.15509903409E+03  0.12509000000E+03 0.  0.
         25    1    3    3    0    0  0.97082320681E+01  0.57819904556E+02  0.20914539450E+03  0.25065253894E+03  0.12509000000E+03 0.  0.
<mgrwt>
<rscale>  2 0.45461462E+03</rscale>
<asrwt>0</asrwt>
<pdfrwt beam="1">  1       21 0.67476080E-01 0.45461462E+03</pdfrwt>
<pdfrwt beam="2">  1       21 0.16559954E-01 0.45461462E+03</pdfrwt>
<totfact> 0.60655887E+04</totfact>
</mgrwt>
</event>
<event>
 6    0  0.1572624E-007  0.4527950E+03  0.7546771E-02  0.1026892E+00
         21   -1    0    0  502  501  0.00000000000E+00  0.00000000000E+00  0.24199264458E+02  0.24199264458E+02  0.00000000000E+00 0.  1.
         21   -1    0    0  501  502 -0.00000000000E+00 -0.00000000000E+00 -0.21180739820E+04  0.21180739820E+04  0.00000000000E+00 0.  1.
      99926    2    1    2    0    0  0.22204460493E-15  0.35527136788E-14 -0.20938747176E+04  0.21422732465E+04  0.45279501955E+03 0.  0.
         25    1    3    3    0    0 -0.10027446114E+01  0.30495570691E+02 -0.26958576224E+03  0.29875571397E+03  0.12509000000E+03 0.  0.
         25    1    3    3    0    0 -0.19807252793E+01 -0.38102996575E+02 -0.68667719734E+03  0.69901991607E+03  0.12509000000E+03 0.  0.
         25    1    3    3    0    0  0.29834698908E+01  0.76074258846E+01 -0.11376117580E+04  0.11444976164E+04  0.12509000000E+03 0.  0.
<mgrwt>
<rscale>  2 0.45279502E+03</rscale>
<asrwt>0</asrwt>
<pdfrwt beam="1">  1       21 0.35587155E-02 0.45279502E+03</pdfrwt>
<pdfrwt beam="2">  1       21 0.31148145E+00 0.45279502E+03</pdfrwt>
<totfact> 0.11722355E+04</totfact>
</mgrwt>
</event>
<event>
 6    0  0.1572624E-007  0.4330283E+03  0.7546771E-02  0.1032908E+00
         21   -1    0    0  502  501  0.00000000000E+00  0.00000000000E+00  0.18813229486E+02  0.18813229486E+02  0.00000000000E+00 0. -1.
         21   -1    0    0  501  502 -0.00000000000E+00 -0.00000000000E+00 -0.24917771413E+04  0.24917771413E+04  0.00000000000E+00 0. -1.
      99926    2    1    2    0    0  0.71054273576E-14 -0.35527136788E-14 -0.24729639118E+04  0.25105903708E+04  0.43302829093E+03 0.  0.
         25    1    3    3    0    0  0.59663444226E+02 -0.19843178875E+02 -0.11663099060E+04  0.11746828437E+04  0.12509000000E+03 0.  0.
         25    1    3    3    0    0 -0.35425712033E+02 -0.37864618229E+02 -0.54924725658E+03  0.56569317421E+03  0.12509000000E+03 0.  0.
         25    1    3    3    0    0 -0.24237732193E+02  0.57707797104E+02 -0.75740674928E+03  0.77021435293E+03  0.12509000000E+03 0.  0.
<mgrwt>
<rscale>  2 0.43302829E+03</rscale>
<asrwt>0</asrwt>
<pdfrwt beam="1">  1       21 0.27666508E-02 0.43302829E+03</pdfrwt>
<pdfrwt beam="2">  1       21 0.36643789E+00 0.43302829E+03</pdfrwt>
<totfact> 0.83638988E+03</totfact>
</mgrwt>
</event>
<event>
 6    0  0.1572624E-007  0.4615102E+03  0.7546771E-02  0.1024344E+00
         21   -1    0    0  502  501  0.00000000000E+00  0.00000000000E+00  0.27340617507E+03  0.27340617507E+03  0.00000000000E+00 0.  1.
         21   -1    0    0  501  502 -0.00000000000E+00 -0.00000000000E+00 -0.19475756089E+03  0.19475756089E+03  0.00000000000E+00 0.  1.
      99926    2    1    2    0    0 -0.71054273576E-14  0.00000000000E+00  0.78648614178E+02  0.46816373596E+03  0.46151021566E+03 0.  0.
         25    1    3    3    0    0  0.22106666894E+02  0.70315454313E+02  0.86924752042E+02  0.16922289577E+03  0.12509000000E+03 0.  0.
         25    1    3    3    0    0 -0.74764322941E+02 -0.54130100894E+02 -0.35768563999E+02  0.15952012437E+03  0.12509000000E+03 0.  0.
         25    1    3    3    0    0  0.52657656048E+02 -0.16185353419E+02  0.27492426135E+02  0.13942071582E+03  0.12509000000E+03 0.  0.
<mgrwt>
<rscale>  2 0.46151022E+03</rscale>
<asrwt>0</asrwt>
<pdfrwt beam="1">  1       21 0.40206791E-01 0.46151022E+03</pdfrwt>
<pdfrwt beam="2">  1       21 0.28640818E-01 0.46151022E+03</pdfrwt>
<totfact> 0.64189117E+04</totfact>
</mgrwt>
</event>
<event>
 6    0  0.1572624E-007  0.4583320E+03  0.7546771E-02  0.1025266E+00
         21   -1    0    0  502  501  0.00000000000E+00  0.00000000000E+00  0.14419824163E+04  0.14419824163E+04  0.00000000000E+00 0. -1.
         21   -1    0    0  501  502 -0.00000000000E+00 -0.00000000000E+00 -0.36420035529E+02  0.36420035529E+02  0.00000000000E+00 0. -1.
      99926    2    1    2    0    0  0.00000000000E+00  0.00000000000E+00  0.14055623807E+04  0.14784024518E+04  0.45833197939E+03 0.  0.
         25    1    3    3    0    0 -0.30502260332E+02 -0.93812606521E+02  0.74131346028E+03  0.75823765900E+03  0.12509000000E+03 0.  0.
         25    1    3    3    0    0  0.36551940049E+02  0.74355389556E+02  0.39635846662E+03  0.42380692590E+03  0.12509000000E+03 0.  0.
         25    1    3    3    0    0 -0.60496797166E+01  0.19457216965E+02  0.26789045382E+03  0.29635786688E+03  0.12509000000E+03 0.  0.
<mgrwt>
<rscale>  2 0.45833198E+03</rscale>
<asrwt>0</asrwt>
<pdfrwt beam="1">  1       21 0.21205620E+00 0.45833198E+03</pdfrwt>
<pdfrwt beam="2">  1       21 0.53558885E-02 0.45833198E+03</pdfrwt>
<totfact> 0.23694229E+04</totfact>
</mgrwt>
</event>
<event>
 6    0  0.1572624E-007  0.4633220E+03  0.7546771E-02  0.1023822E+00
         21   -1    0    0  502  501  0.00000000000E+00  0.00000000000E+00  0.40139135952E+03  0.40139135952E+03  0.00000000000E+00 0. -1.
         21   -1    0    0  501  502 -0.00000000000E+00 -0.00000000000E+00 -0.13370197242E+03  0.13370197242E+03  0.00000000000E+00 0. -1.
      99926    2    1    2    0    0  0.00000000000E+00  0.00000000000E+00  0.26768938710E+03  0.53509333195E+03  0.46332198947E+03 0.  0.
         25    1    3    3    0    0 -0.17939169731E+01 -0.10169512450E+03  0.13812940630E+03  0.21230251404E+03  0.12509000000E+03 0.  0.
         25    1    3    3    0    0  0.38401403433E+02  0.82087231718E+02  0.10979550286E+03  0.18951396240E+03  0.12509000000E+03 0.  0.
         25    1    3    3    0    0 -0.36607486460E+02  0.19607892783E+02  0.19764477941E+02  0.13327685550E+03  0.12509000000E+03 0.  0.
<mgrwt>
<rscale>  2 0.46332199E+03</rscale>
<asrwt>0</asrwt>
<pdfrwt beam="1">  1       21 0.59028141E-01 0.46332199E+03</pdfrwt>
<pdfrwt beam="2">  1       21 0.19662055E-01 0.46332199E+03</pdfrwt>
<totfact> 0.58882258E+04</totfact>
</mgrwt>
</event>
<event>
 6    0  0.1572624E-007  0.4564173E+03  0.7546771E-02  0.1025825E+00
         21   -1    0    0  502  501  0.00000000000E+00  0.00000000000E+00  0.46831535408E+03  0.46831535408E+03  0.00000000000E+00 0.  1.
         21   -1    0    0  501  502 -0.00000000000E+00 -0.00000000000E+00 -0.11120540204E+03  0.11120540204E+03  0.00000000000E+00 0.  1.
      99926    2    1    2    0    0  0.00000000000E+00  0.44408920985E-14  0.35710995204E+03  0.57952075612E+03  0.45641734074E+03 0.  0.
         25    1    3    3    0    0 -0.17698415144E+02 -0.39298009938E+02  0.20733720314E+02  0.13392147976E+03  0.12509000000E+03 0.  0.
         25    1    3    3    0    0 -0.54453290704E+02  0.46024749402E+02  0.13250104246E+03  0.19567184974E+03  0.12509000000E+03 0.  0.
         25    1    3    3    0    0  0.72151705848E+02 -0.67267394643E+01  0.20387518927E+03  0.24992742662E+03  0.12509000000E+03 0.  0.
<mgrwt>
<rscale>  2 0.45641734E+03</rscale>
<asrwt>0</asrwt>
<pdfrwt beam="1">  1       21 0.68869904E-01 0.45641734E+03</pdfrwt>
<pdfrwt beam="2">  1       21 0.16353736E-01 0.45641734E+03</pdfrwt>
<totfact> 0.59289707E+04</totfact>
</mgrwt>
</event>
<event>
 6    0  0.1572624E-007  0.4840203E+03  0.7546771E-02  0.1018036E+00
         21   -1    0    0  502  501  0.00000000000E+00  0.00000000000E+00  0.22169067640E+03  0.22169067640E+03  0.00000000000E+00 0. -1.
         21   -1    0    0  501  502 -0.00000000000E+00 -0.00000000000E+00 -0.26419207000E+03  0.26419207000E+03  0.00000000000E+00 0. -1.
      99926    2    1    2    0    0  0.00000000000E+00  0.00000000000E+00 -0.42501393603E+02  0.48588274639E+03  0.48402032476E+03 0.  0.
         25    1    3    3    0    0  0.58624195310E+02 -0.34195277315E+00 -0.66099592406E+02  0.15314560857E+03  0.12509000000E+03 0.  0.
         25    1    3    3    0    0 -0.81117565788E+02 -0.52595288588E+01  0.10434793411E+03  0.18205417209E+03  0.12509000000E+03 0.  0.
         25    1    3    3    0    0  0.22493370478E+02  0.56014816320E+01 -0.80749735302E+02  0.15068296574E+03  0.12509000000E+03 0.  0.
<mgrwt>
<rscale>  2 0.48402032E+03</rscale>
<asrwt>0</asrwt>
<pdfrwt beam="1">  1       21 0.32601570E-01 0.48402032E+03</pdfrwt>
<pdfrwt beam="2">  1       21 0.38851775E-01 0.48402032E+03</pdfrwt>
<totfact> 0.52970857E+04</totfact>
</mgrwt>
</event>
<event>
 6    0  0.1572624E-007  0.4522139E+03  0.7546771E-02  0.1027064E+00
         21   -1    0    0  502  501  0.00000000000E+00  0.00000000000E+00  0.16535098772E+03  0.16535098772E+03  0.00000000000E+00 0.  1.
         21   -1    0    0  501  502 -0.00000000000E+00 -0.00000000000E+00 -0.30918686451E+03  0.30918686451E+03  0.00000000000E+00 0.  1.
      99926    2    1    2    0    0  0.00000000000E+00 -0.71054273576E-14 -0.14383587680E+03  0.47453785223E+03  0.45221390265E+03 0.  0.
         25    1    3    3    0    0 -0.29739807408E+02 -0.67058867620E+02  0.19568280609E+02  0.14632762411E+03  0.12509000000E+03 0.  0.
         25    1    3    3    0    0  0.47331947317E+02  0.79833282582E+02 -0.70996872962E+02  0.17117748192E+03  0.12509000000E+03 0.  0.
         25    1    3    3    0    0 -0.17592139909E+02 -0.12774414962E+02 -0.92407284442E+02  0.15703274621E+03  0.12509000000E+03 0.  0.
<mgrwt>
<rscale>  2 0.45221390E+03</rscale>
<asrwt>0</asrwt>
<pdfrwt beam="1">  1       21 0.24316322E-01 0.45221390E+03</pdfrwt>
<pdfrwt beam="2">  1       21 0.45468657E-01 0.45221390E+03</pdfrwt>
<totfact> 0.68604325E+04</totfact>
</mgrwt>
</event>
<event>
 6    0  0.1572624E-007  0.4562408E+03  0.7546771E-02  0.1025877E+00
         21   -1    0    0  502  501  0.00000000000E+00  0.00000000000E+00  0.43809655949E+02  0.43809655949E+02  0.00000000000E+00 0.  1.
         21   -1    0    0  501  502 -0.00000000000E+00 -0.00000000000E+00 -0.11878410758E+04  0.11878410758E+04  0.00000000000E+00 0.  1.
      99926    2    1    2    0    0  0.00000000000E+00  0.00000000000E+00 -0.11440314198E+04  0.12316507317E+04  0.45624076473E+03 0.  0.
         25    1    3    3    0    0 -0.12562466060E+02  0.51612347584E+01 -0.14506829175E+03  0.19203325564E+03  0.12509000000E+03 0.  0.
         25    1    3    3    0    0 -0.13418041683E+02 -0.45171521763E+02 -0.69104176084E+03  0.70385135757E+03  0.12509000000E+03 0.  0.
         25    1    3    3    0    0  0.25980507742E+02  0.40010287005E+02 -0.30792136721E+03  0.33576611850E+03  0.12509000000E+03 0.  0.
<mgrwt>
<rscale>  2 0.45624076E+03</rscale>
<asrwt>0</asrwt>
<pdfrwt beam="1">  1       21 0.64425979E-02 0.45624076E+03</pdfrwt>
<pdfrwt beam="2">  1       21 0.17468247E+00 0.45624076E+03</pdfrwt>
<totfact> 0.30866839E+04</totfact>
</mgrwt>
</event>
<event>
 6    0  0.1572624E-007  0.4711347E+03  0.7546771E-02  0.1021600E+00
         21   -1    0    0  502  501  0.00000000000E+00  0.00000000000E+00  0.10190761801E+04  0.10190761801E+04  0.00000000000E+00 0.  1.
         21   -1    0    0  501  502 -0.00000000000E+00 -0.00000000000E+00 -0.54453214208E+02  0.54453214208E+02  0.00000000000E+00 0.  1.
      99926    2    1    2    0    0  0.00000000000E+00  0.00000000000E+00  0.96462296587E+03  0.10735293943E+04  0.47113468787E+03 0.  0.
         25    1    3    3    0    0  0.29231024368E+02 -0.66865274408E+02  0.49779235748E+03  0.51843047458E+03  0.12509000000E+03 0.  0.
         25    1    3    3    0    0 -0.15386457980E+02 -0.18455324954E+02  0.11416048557E+03  0.17104814139E+03  0.12509000000E+03 0.  0.
         25    1    3    3    0    0 -0.13844566388E+02  0.85320599362E+02  0.35267012282E+03  0.38405077832E+03  0.12509000000E+03 0.  0.
<mgrwt>
<rscale>  2 0.47113469E+03</rscale>
<asrwt>0</asrwt>
<pdfrwt beam="1">  1       21 0.14986413E+00 0.47113469E+03</pdfrwt>
<pdfrwt beam="2">  1       21 0.80078263E-02 0.47113469E+03</pdfrwt>
<totfact> 0.32179127E+04</totfact>
</mgrwt>
</event>
<event>
 6    0  0.1572624E-007  0.4572979E+03  0.7546771E-02  0.1025568E+00
         21   -1    0    0  502  501  0.00000000000E+00  0.00000000000E+00  0.53782048537E+02  0.53782048537E+02  0.00000000000E+00 0.  1.
         21   -1    0    0  501  502 -0.00000000000E+00 -0.00000000000E+00 -0.97207774485E+03  0.97207774485E+03  0.00000000000E+00 0.  1.
      99926    2    1    2    0    0  0.14210854715E-13  0.71054273576E-14 -0.91829569631E+03  0.10258597934E+04  0.45729785678E+03 0.  0.
         25    1    3    3    0    0 -0.50876969681E+02 -0.11733395408E+02 -0.15355146577E+03  0.20482113990E+03  0.12509000000E+03 0.  0.
         25    1    3    3    0    0 -0.37602595276E+02 -0.21842702803E+02 -0.45443049078E+03  0.47333459401E+03  0.12509000000E+03 0.  0.
         25    1    3    3    0    0  0.88479564957E+02  0.33576098211E+02 -0.31031373977E+03  0.34770405947E+03  0.12509000000E+03 0.  0.
<mgrwt>
<rscale>  2 0.45729786E+03</rscale>
<asrwt>0</asrwt>
<pdfrwt beam="1">  1       21 0.79091252E-02 0.45729786E+03</pdfrwt>
<pdfrwt beam="2">  1       21 0.14295260E+00 0.45729786E+03</pdfrwt>
<totfact> 0.37498570E+04</totfact>
</mgrwt>
</event>
<event>
 6    0  0.1572624E-007  0.4457914E+03  0.7546771E-02  0.1028985E+00
         21   -1    0    0  502  501  0.00000000000E+00  0.00000000000E+00  0.14330350086E+03  0.14330350086E+03  0.00000000000E+00 0. -1.
         21   -1    0    0  501  502 -0.00000000000E+00 -0.00000000000E+00 -0.34669417914E+03  0.34669417914E+03  0.00000000000E+00 0. -1.
      99926    2    1    2    0    0  0.00000000000E+00  0.28865798640E-14 -0.20339067828E+03  0.48999768000E+03  0.44579138439E+03 0.  0.
         25    1    3    3    0    0 -0.73140182212E+02 -0.49857141547E+02 -0.49653436133E+02  0.16108442705E+03  0.12509000000E+03 0.  0.
         25    1    3    3    0    0  0.67326673231E+00  0.51217510001E+02 -0.29633884718E+02  0.13838121925E+03  0.12509000000E+03 0.  0.
         25    1    3    3    0    0  0.72466915479E+02 -0.13603684534E+01 -0.12410335742E+03  0.19053203370E+03  0.12509000000E+03 0.  0.
<mgrwt>
<rscale>  2 0.44579138E+03</rscale>
<asrwt>0</asrwt>
<pdfrwt beam="1">  1       21 0.21074045E-01 0.44579138E+03</pdfrwt>
<pdfrwt beam="2">  1       21 0.50984437E-01 0.44579138E+03</pdfrwt>
<totfact> 0.71031515E+04</totfact>
</mgrwt>
</event>
<event>
 6    0  0.1572624E-007  0.4563643E+03  0.7546771E-02  0.1025841E+00
         21   -1    0    0  502  501  0.00000000000E+00  0.00000000000E+00  0.14754647917E+03  0.14754647917E+03  0.00000000000E+00 0.  1.
         21   -1    0    0  501  502 -0.00000000000E+00 -0.00000000000E+00 -0.35288604967E+03  0.35288604967E+03  0.00000000000E+00 0.  1.
      99926    2    1    2    0    0  0.00000000000E+00  0.00000000000E+00 -0.20533957050E+03  0.50043252883E+03  0.45636430261E+03 0.  0.
         25    1    3    3    0    0 -0.63431909636E+02 -0.63890068975E+02 -0.12871339945E+03  0.20079889285E+03  0.12509000000E+03 0.  0.
         25    1    3    3    0    0  0.58845569493E+02  0.69292483819E+02 -0.80398685668E+02  0.17428627634E+03  0.12509000000E+03 0.  0.
         25    1    3    3    0    0  0.45863401435E+01 -0.54024148444E+01  0.37725146177E+01  0.12534735964E+03  0.12509000000E+03 0.  0.
<mgrwt>
<rscale>  2 0.45636430E+03</rscale>
<asrwt>0</asrwt>
<pdfrwt beam="1">  1       21 0.21698012E-01 0.45636430E+03</pdfrwt>
<pdfrwt beam="2">  1       21 0.51895007E-01 0.45636430E+03</pdfrwt>
<totfact> 0.64538499E+04</totfact>
</mgrwt>
</event>
<event>
 6    0  0.1572624E-007  0.4558177E+03  0.7546771E-02  0.1026001E+00
         21   -1    0    0  502  501  0.00000000000E+00  0.00000000000E+00  0.21071499166E+03  0.21071499166E+03  0.00000000000E+00 0.  1.
         21   -1    0    0  501  502 -0.00000000000E+00 -0.00000000000E+00 -0.24650566497E+03  0.24650566497E+03  0.00000000000E+00 0.  1.
      99926    2    1    2    0    0  0.00000000000E+00  0.00000000000E+00 -0.35790673313E+02  0.45722065663E+03  0.45581767907E+03 0.  0.
         25    1    3    3    0    0  0.79681062090E+02 -0.22428192381E+02 -0.30605303853E+02  0.15308915113E+03  0.12509000000E+03 0.  0.
         25    1    3    3    0    0 -0.10486693715E+03 -0.23248348932E+02  0.20633008416E+02  0.16616494628E+03  0.12509000000E+03 0.  0.
         25    1    3    3    0    0  0.25185875057E+02  0.45676541312E+02 -0.25818377876E+02  0.13796655923E+03  0.12509000000E+03 0.  0.
<mgrwt>
<rscale>  2 0.45581768E+03</rscale>
<asrwt>0</asrwt>
<pdfrwt beam="1">  1       21 0.30987499E-01 0.45581768E+03</pdfrwt>
<pdfrwt beam="2">  1       21 0.36250833E-01 0.45581768E+03</pdfrwt>
<totfact> 0.67939128E+04</totfact>
</mgrwt>
</event>
<event>
 6    0  0.1572624E-007  0.4494223E+03  0.7546771E-02  0.1027894E+00
         21   -1    0    0  502  501  0.00000000000E+00  0.00000000000E+00  0.79363104755E+02  0.79363104755E+02  0.00000000000E+00 0.  1.
         21   -1    0    0  501  502 -0.00000000000E+00 -0.00000000000E+00 -0.63625409451E+03  0.63625409451E+03  0.00000000000E+00 0.  1.
      99926    2    1    2    0    0  0.35527136788E-14  0.00000000000E+00 -0.55689098975E+03  0.71561719927E+03  0.44942229742E+03 0.  0.
         25    1    3    3    0    0 -0.44455818711E+01 -0.51414474485E+02 -0.61438121414E+02  0.14861144723E+03  0.12509000000E+03 0.  0.
         25    1    3    3    0    0 -0.30824483209E+02  0.54407693057E+02 -0.31453535771E+03  0.34422426582E+03  0.12509000000E+03 0.  0.
         25    1    3    3    0    0  0.35270065080E+02 -0.29932185728E+01 -0.18091751063E+03  0.22278148622E+03  0.12509000000E+03 0.  0.
<mgrwt>
<rscale>  2 0.44942230E+03</rscale>
<asrwt>0</asrwt>
<pdfrwt beam="1">  1       21 0.11671045E-01 0.44942230E+03</pdfrwt>
<pdfrwt beam="2">  1       21 0.93566774E-01 0.44942230E+03</pdfrwt>
<totfact> 0.54411644E+04</totfact>
</mgrwt>
</event>
<event>
 6    0  0.1572624E-007  0.4502338E+03  0.7546771E-02  0.1027652E+00
         21   -1    0    0  502  501  0.00000000000E+00  0.00000000000E+00  0.66195862772E+03  0.66195862772E+03  0.00000000000E+00 0.  1.
         21   -1    0    0  501  502 -0.00000000000E+00 -0.00000000000E+00 -0.76557090964E+02  0.76557090964E+02  0.00000000000E+00 0.  1.
      99926    2    1    2    0    0 -0.13322676296E-14  0.17763568394E-14  0.58540153675E+03  0.73851571868E+03  0.45023383648E+03 0.  0.
         25    1    3    3    0    0  0.21037566818E+01 -0.75514212522E+01  0.19724967985E+03  0.23370150632E+03  0.12509000000E+03 0.  0.
         25    1    3    3    0    0  0.23366584431E+02  0.99655759244E+02  0.23476887130E+03  0.28502841727E+03  0.12509000000E+03 0.  0.
         25    1    3    3    0    0 -0.25470341113E+02 -0.92104337992E+02  0.15338298561E+03  0.21978579510E+03  0.12509000000E+03 0.  0.
<mgrwt>
<rscale>  2 0.45023384E+03</rscale>
<asrwt>0</asrwt>
<pdfrwt beam="1">  1       21 0.97346854E-01 0.45023384E+03</pdfrwt>
<pdfrwt beam="2">  1       21 0.11258396E-01 0.45023384E+03</pdfrwt>
<totfact> 0.52812452E+04</totfact>
</mgrwt>
</event>
<event>
 6    0  0.1572624E-007  0.4661578E+03  0.7546771E-02  0.1023010E+00
         21   -1    0    0  502  501  0.00000000000E+00  0.00000000000E+00  0.14251215259E+04  0.14251215259E+04  0.00000000000E+00 0. -1.
         21   -1    0    0  501  502 -0.00000000000E+00 -0.00000000000E+00 -0.38120095046E+02  0.38120095046E+02  0.00000000000E+00 0. -1.
      99926    2    1    2    0    0  0.71054273576E-14 -0.71054273576E-14  0.13870014308E+04  0.14632416209E+04  0.46615777595E+03 0.  0.
         25    1    3    3    0    0  0.55917842924E+02 -0.49722627314E+02  0.75723268968E+03  0.77113422907E+03  0.12509000000E+03 0.  0.
         25    1    3    3    0    0 -0.86682695014E+02  0.11172495489E+02  0.33537978209E+03  0.36846413748E+03  0.12509000000E+03 0.  0.
         25    1    3    3    0    0  0.30764852089E+02  0.38550131825E+02  0.29438895907E+03  0.32364325439E+03  0.12509000000E+03 0.  0.
<mgrwt>
<rscale>  2 0.46615778E+03</rscale>
<asrwt>0</asrwt>
<pdfrwt beam="1">  1       21 0.20957666E+00 0.46615778E+03</pdfrwt>
<pdfrwt beam="2">  1       21 0.56058973E-02 0.46615778E+03</pdfrwt>
<totfact> 0.22664920E+04</totfact>
</mgrwt>
</event>
<event>
 6    0  0.1572624E-007  0.4577028E+03  0.7546771E-02  0.1025450E+00
         21   -1    0    0  502  501  0.00000000000E+00  0.00000000000E+00  0.54539505549E+03  0.54539505549E+03  0.00000000000E+00 0.  1.
         21   -1    0    0  501  502 -0.00000000000E+00 -0.00000000000E+00 -0.96027562727E+02  0.96027562727E+02  0.00000000000E+00 0.  1.
      99926    2    1    2    0    0  0.71054273576E-14  0.35527136788E-14  0.44936749276E+03  0.64142261821E+03  0.45770277649E+03 0.  0.
         25    1    3    3    0    0  0.52389305372E+02 -0.24728031877E+02  0.18122400963E+03  0.22769665049E+03  0.12509000000E+03 0.  0.
         25    1    3    3    0    0  0.59956568472E+02 -0.38319239636E+01  0.15996014609E+03  0.21176456309E+03  0.12509000000E+03 0.  0.
         25    1    3    3    0    0 -0.11234587384E+03  0.28559955840E+02  0.10818333703E+03  0.20196140463E+03  0.12509000000E+03 0.  0.
<mgrwt>
<rscale>  2 0.45770278E+03</rscale>
<asrwt>0</asrwt>
<pdfrwt beam="1">  1       21 0.80205153E-01 0.45770278E+03</pdfrwt>
<pdfrwt beam="2">  1       21 0.14121701E-01 0.45770278E+03</pdfrwt>
<totfact> 0.55015531E+04</totfact>
</mgrwt>
</event>
<event>
 6    0  0.1572624E-007  0.4545027E+03  0.7546771E-02  0.1026388E+00
         21   -1    0    0  502  501  0.00000000000E+00  0.00000000000E+00  0.65958384238E+02  0.65958384238E+02  0.00000000000E+00 0. -1.
         21   -1    0    0  501  502 -0.00000000000E+00 -0.00000000000E+00 -0.78296609158E+03  0.78296609158E+03  0.00000000000E+00 0. -1.
      99926    2    1    2    0    0  0.00000000000E+00 -0.62172489379E-14 -0.71700770734E+03  0.84892447582E+03  0.45450270984E+03 0.  0.
         25    1    3    3    0    0  0.37293992130E+02  0.83384873625E+02 -0.31197443666E+03  0.34830939727E+03  0.12509000000E+03 0.  0.
         25    1    3    3    0    0  0.13164950290E+02 -0.79285399122E+02 -0.27810131952E+03  0.31535272704E+03  0.12509000000E+03 0.  0.
         25    1    3    3    0    0 -0.50458942421E+02 -0.40994745034E+01 -0.12693195116E+03  0.18526235151E+03  0.12509000000E+03 0.  0.
<mgrwt>
<rscale>  2 0.45450271E+03</rscale>
<asrwt>0</asrwt>
<pdfrwt beam="1">  1       21 0.96997626E-02 0.45450271E+03</pdfrwt>
<pdfrwt beam="2">  1       21 0.11514207E+00 0.45450271E+03</pdfrwt>
<totfact> 0.45665411E+04</totfact>
</mgrwt>
</event>
<event>
 6    0  0.1572624E-007  0.4567554E+03  0.7546771E-02  0.1025726E+00
         21   -1    0    0  502  501  0.00000000000E+00  0.00000000000E+00  0.10593639196E+04  0.10593639196E+04  0.00000000000E+00 0.  1.
         21   -1    0    0  501  502 -0.00000000000E+00 -0.00000000000E+00 -0.49233661569E+02  0.49233661569E+02  0.00000000000E+00 0.  1.
      99926    2    1    2    0    0  0.00000000000E+00  0.00000000000E+00  0.10101302580E+04  0.11085975811E+04  0.45675535987E+03 0.  0.
         25    1    3    3    0    0 -0.81244893596E+01 -0.66169249675E+01  0.23128444715E+03  0.26315355710E+03  0.12509000000E+03 0.  0.
         25    1    3    3    0    0 -0.62311492977E+02  0.36937726278E+01  0.17101940600E+03  0.22088800656E+03  0.12509000000E+03 0.  0.
         25    1    3    3    0    0  0.70435982336E+02  0.29231523396E+01  0.60782640484E+03  0.62455601746E+03  0.12509000000E+03 0.  0.
<mgrwt>
<rscale>  2 0.45675536E+03</rscale>
<asrwt>0</asrwt>
<pdfrwt beam="1">  1       21 0.15578880E+00 0.45675536E+03</pdfrwt>
<pdfrwt beam="2">  1       21 0.72402450E-02 0.45675536E+03</pdfrwt>
<totfact> 0.34717435E+04</totfact>
</mgrwt>
</event>
<event>
 6    0  0.1572624E-007  0.4434352E+03  0.7546771E-02  0.1029698E+00
         21   -1    0    0  502  501  0.00000000000E+00  0.00000000000E+00  0.14513373486E+04  0.14513373486E+04  0.00000000000E+00 0.  1.
         21   -1    0    0  501  502 -0.00000000000E+00 -0.00000000000E+00 -0.33871300512E+02  0.33871300512E+02  0.00000000000E+00 0.  1.
      99926    2    1    2    0    0  0.71054273576E-14  0.33306690739E-15  0.14174660481E+04  0.14852086491E+04  0.44343515188E+03 0.  0.
         25    1    3    3    0    0 -0.21352219089E+02 -0.35999305501E+02  0.23500666758E+03  0.26949491491E+03  0.12509000000E+03 0.  0.
         25    1    3    3    0    0  0.69091378412E+02  0.35150698189E+02  0.67806886575E+03  0.69385451281E+03  0.12509000000E+03 0.  0.
         25    1    3    3    0    0 -0.47739159323E+02  0.84860731214E+00  0.50439051478E+03  0.52185922141E+03  0.12509000000E+03 0.  0.
<mgrwt>
<rscale>  2 0.44343515E+03</rscale>
<asrwt>0</asrwt>
<pdfrwt beam="1">  1       21 0.21343192E+00 0.44343515E+03</pdfrwt>
<pdfrwt beam="2">  1       21 0.49810746E-02 0.44343515E+03</pdfrwt>
<totfact> 0.26440699E+04</totfact>
</mgrwt>
</event>
<event>
 6    0  0.1572624E-007  0.4518229E+03  0.7546771E-02  0.1027180E+00
         21   -1    0    0  502  501  0.00000000000E+00  0.00000000000E+00  0.89473543092E+03  0.89473543092E+03  0.00000000000E+00 0.  1.
         21   -1    0    0  501  502 -0.00000000000E+00 -0.00000000000E+00 -0.57040305825E+02  0.57040305825E+02  0.00000000000E+00 0.  1.
      99926    2    1    2    0    0  0.00000000000E+00 -0.35527136788E-14  0.83769512510E+03  0.95177573675E+03  0.45182289722E+03 0.  0.
         25    1    3    3    0    0  0.35867708514E+02 -0.78339882647E+02  0.31760248952E+03  0.35205465367E+03  0.12509000000E+03 0.  0.
         25    1    3    3    0    0 -0.46676149237E+02  0.50063375228E+02  0.14587417617E+03  0.20398967577E+03  0.12509000000E+03 0.  0.
         25    1    3    3    0    0  0.10808440723E+02  0.28276507419E+02  0.37421845942E+03  0.39573140731E+03  0.12509000000E+03 0.  0.
<mgrwt>
<rscale>  2 0.45182290E+03</rscale>
<asrwt>0</asrwt>
<pdfrwt beam="1">  1       21 0.13157873E+00 0.45182290E+03</pdfrwt>
<pdfrwt beam="2">  1       21 0.83882808E-02 0.45182290E+03</pdfrwt>
<totfact> 0.42105349E+04</totfact>
</mgrwt>
</event>
<event>
 6    0  0.1572624E-007  0.4517391E+03  0.7546771E-02  0.1027205E+00
         21   -1    0    0  502  501  0.00000000000E+00  0.00000000000E+00  0.12408767885E+04  0.12408767885E+04  0.00000000000E+00 0.  1.
         21   -1    0    0  501  502 -0.00000000000E+00 -0.00000000000E+00 -0.41113717273E+02  0.41113717273E+02  0.00000000000E+00 0.  1.
      99926    2    1    2    0    0 -0.71054273576E-14  0.00000000000E+00  0.11997630712E+04  0.12819905057E+04  0.45173911698E+03 0.  0.
         25    1    3    3    0    0  0.49671660293E+02  0.11476872184E+01  0.21133399404E+03  0.25055569473E+03  0.12509000000E+03 0.  0.
         25    1    3    3    0    0 -0.74804998733E+02 -0.31098812960E+02  0.36263645705E+03  0.39206585172E+03  0.12509000000E+03 0.  0.
         25    1    3    3    0    0  0.25133338440E+02  0.29951125742E+02  0.62579262010E+03  0.63936895929E+03  0.12509000000E+03 0.  0.
<mgrwt>
<rscale>  2 0.45173912E+03</rscale>
<asrwt>0</asrwt>
<pdfrwt beam="1">  1       21 0.18248186E+00 0.45173912E+03</pdfrwt>
<pdfrwt beam="2">  1       21 0.60461357E-02 0.45173912E+03</pdfrwt>
<totfact> 0.30406290E+04</totfact>
</mgrwt>
</event>
<event>
 6    0  0.1572624E-007  0.4535815E+03  0.7546771E-02  0.1026659E+00
         21   -1    0    0  502  501  0.00000000000E+00  0.00000000000E+00  0.19970587801E+03  0.19970587801E+03  0.00000000000E+00 0.  1.
         21   -1    0    0  501  502 -0.00000000000E+00 -0.00000000000E+00 -0.25754892272E+03  0.25754892272E+03  0.00000000000E+00 0.  1.
      99926    2    1    2    0    0  0.00000000000E+00 -0.88817841970E-15 -0.57843044706E+02  0.45725480072E+03  0.45358145351E+03 0.  0.
         25    1    3    3    0    0  0.72601539760E+01 -0.15024247056E+02 -0.12572809529E+03  0.17813899035E+03  0.12509000000E+03 0.  0.
         25    1    3    3    0    0 -0.20159827764E+02  0.17282875293E+02  0.82977622778E+02  0.15243985836E+03  0.12509000000E+03 0.  0.
         25    1    3    3    0    0  0.12899673788E+02 -0.22586282374E+01 -0.15092572189E+02  0.12667595202E+03  0.12509000000E+03 0.  0.
<mgrwt>
<rscale>  2 0.45358145E+03</rscale>
<asrwt>0</asrwt>
<pdfrwt beam="1">  1       21 0.29368512E-01 0.45358145E+03</pdfrwt>
<pdfrwt beam="2">  1       21 0.37874841E-01 0.45358145E+03</pdfrwt>
<totfact> 0.69160157E+04</totfact>
</mgrwt>
</event>
<event>
 6    0  0.1572624E-007  0.4631852E+03  0.7546771E-02  0.1023861E+00
         21   -1    0    0  502  501  0.00000000000E+00  0.00000000000E+00  0.66040782925E+03  0.66040782925E+03  0.00000000000E+00 0.  1.
         21   -1    0    0  501  502 -0.00000000000E+00 -0.00000000000E+00 -0.81215157963E+02  0.81215157963E+02  0.00000000000E+00 0.  1.
      99926    2    1    2    0    0  0.71054273576E-14 -0.88817841970E-14  0.57919267129E+03  0.74162298722E+03  0.46318517322E+03 0.  0.
         25    1    3    3    0    0 -0.64175749967E+02  0.70499077687E+02  0.28448882787E+03  0.32506929742E+03  0.12509000000E+03 0.  0.
         25    1    3    3    0    0  0.55556218563E+02 -0.58044619227E+02  0.23265588890E+03  0.27610132557E+03  0.12509000000E+03 0.  0.
         25    1    3    3    0    0  0.86195314040E+01 -0.12454458460E+02  0.62047954514E+02  0.14045236423E+03  0.12509000000E+03 0.  0.
<mgrwt>
<rscale>  2 0.46318517E+03</rscale>
<asrwt>0</asrwt>
<pdfrwt beam="1">  1       21 0.97118795E-01 0.46318517E+03</pdfrwt>
<pdfrwt beam="2">  1       21 0.11943406E-01 0.46318517E+03</pdfrwt>
<totfact> 0.47565344E+04</totfact>
</mgrwt>
</event>
<event>
 6    0  0.1572624E-007  0.4494499E+03  0.7546771E-02  0.1027886E+00
         21   -1    0    0  502  501  0.00000000000E+00  0.00000000000E+00  0.39527289342E+03  0.39527289342E+03  0.00000000000E+00 0.  1.
         21   -1    0    0  501  502 -0.00000000000E+00 -0.00000000000E+00 -0.12776312537E+03  0.12776312537E+03  0.00000000000E+00 0.  1.
      99926    2    1    2    0    0 -0.71054273576E-14  0.00000000000E+00  0.26750976805E+03  0.52303601880E+03  0.44944988703E+03 0.  0.
         25    1    3    3    0    0 -0.57457092063E+02 -0.59131966055E+02  0.34758926540E+02  0.15379726237E+03  0.12509000000E+03 0.  0.
         25    1    3    3    0    0  0.52195264225E+02  0.79601231965E+02  0.10394417639E+03  0.18844787514E+03  0.12509000000E+03 0.  0.
         25    1    3    3    0    0  0.52618278376E+01 -0.20469265910E+02  0.12880666512E+03  0.18079088129E+03  0.12509000000E+03 0.  0.
<mgrwt>
<rscale>  2 0.44944989E+03</rscale>
<asrwt>0</asrwt>
<pdfrwt beam="1">  1       21 0.58128366E-01 0.44944989E+03</pdfrwt>
<pdfrwt beam="2">  1       21 0.18788695E-01 0.44944989E+03</pdfrwt>
<totfact> 0.66560924E+04</totfact>
</mgrwt>
</event>
<event>
 6    0  0.1572624E-007  0.4553237E+03  0.7546771E-02  0.1026146E+00
         21   -1    0    0  502  501  0.00000000000E+00  0.00000000000E+00  0.12836470191E+03  0.12836470191E+03  0.00000000000E+00 0. -1.
         21   -1    0    0  501  502 -0.00000000000E+00 -0.00000000000E+00 -0.40377085675E+03  0.40377085675E+03  0.00000000000E+00 0. -1.
      99926    2    1    2    0    0  0.14210854715E-13  0.00000000000E+00 -0.27540615485E+03  0.53213555866E+03  0.45532373391E+03 0.  0.
         25    1    3    3    0    0  0.10072659658E+03  0.38484429905E+02 -0.15048060370E+03  0.22342519731E+03  0.12509000000E+03 0.  0.
         25    1    3    3    0    0 -0.16543633207E+02 -0.10600946666E+02 -0.76366456404E+02  0.14786958996E+03  0.12509000000E+03 0.  0.
         25    1    3    3    0    0 -0.84182963377E+02 -0.27883483240E+02 -0.48559094742E+02  0.16084077139E+03  0.12509000000E+03 0.  0.
<mgrwt>
<rscale>  2 0.45532373E+03</rscale>
<asrwt>0</asrwt>
<pdfrwt beam="1">  1       21 0.18877162E-01 0.45532373E+03</pdfrwt>
<pdfrwt beam="2">  1       21 0.59378067E-01 0.45532373E+03</pdfrwt>
<totfact> 0.62900623E+04</totfact>
</mgrwt>
</event>
<event>
 6    0  0.1572624E-007  0.4574437E+03  0.7546771E-02  0.1025525E+00
         21   -1    0    0  502  501  0.00000000000E+00  0.00000000000E+00  0.19782552747E+03  0.19782552747E+03  0.00000000000E+00 0.  1.
         21   -1    0    0  501  502 -0.00000000000E+00 -0.00000000000E+00 -0.26444356603E+03  0.26444356603E+03  0.00000000000E+00 0.  1.
      99926    2    1    2    0    0 -0.71054273576E-14  0.00000000000E+00 -0.66618038561E+02  0.46226909350E+03  0.45744371429E+03 0.  0.
         25    1    3    3    0    0 -0.40883236933E+02 -0.35359155350E+02 -0.91349471668E+02  0.16405469516E+03  0.12509000000E+03 0.  0.
         25    1    3    3    0    0 -0.33979314749E+02  0.65339199910E+02 -0.95937112983E+01  0.14547629454E+03  0.12509000000E+03 0.  0.
         25    1    3    3    0    0  0.74862551683E+02 -0.29980044560E+02  0.34325144406E+02  0.15273810381E+03  0.12509000000E+03 0.  0.
<mgrwt>
<rscale>  2 0.45744371E+03</rscale>
<asrwt>0</asrwt>
<pdfrwt beam="1">  1       21 0.29091989E-01 0.45744371E+03</pdfrwt>
<pdfrwt beam="2">  1       21 0.38888760E-01 0.45744371E+03</pdfrwt>
<totfact> 0.66706055E+04</totfact>
</mgrwt>
</event>
<event>
 6    0  0.1572624E-007  0.4530152E+03  0.7546771E-02  0.1026827E+00
         21   -1    0    0  502  501  0.00000000000E+00  0.00000000000E+00  0.12641709955E+03  0.12641709955E+03  0.00000000000E+00 0.  1.
         21   -1    0    0  501  502 -0.00000000000E+00 -0.00000000000E+00 -0.40584464378E+03  0.40584464378E+03  0.00000000000E+00 0.  1.
      99926    2    1    2    0    0  0.00000000000E+00  0.00000000000E+00 -0.27942754422E+03  0.53226174333E+03  0.45301524361E+03 0.  0.
         25    1    3    3    0    0 -0.24104106568E+02 -0.47522723887E+02 -0.23382395516E+02  0.13796253752E+03  0.12509000000E+03 0.  0.
         25    1    3    3    0    0  0.55488064263E+02  0.56916335193E+02 -0.60972967975E+02  0.16026105394E+03  0.12509000000E+03 0.  0.
         25    1    3    3    0    0 -0.31383957695E+02 -0.93936113059E+01 -0.19507218073E+03  0.23403815187E+03  0.12509000000E+03 0.  0.
<mgrwt>
<rscale>  2 0.45301524E+03</rscale>
<asrwt>0</asrwt>
<pdfrwt beam="1">  1       21 0.18590750E-01 0.45301524E+03</pdfrwt>
<pdfrwt beam="2">  1       21 0.59683036E-01 0.45301524E+03</pdfrwt>
<totfact> 0.64054503E+04</totfact>
</mgrwt>
</event>
<event>
 6    0  0.1572624E-007  0.4561505E+03  0.7546771E-02  0.1025904E+00
         21   -1    0    0  502  501  0.00000000000E+00  0.00000000000E+00  0.22204056341E+03  0.22204056341E+03  0.00000000000E+00 0. -1.
         21   -1    0    0  501  502 -0.00000000000E+00 -0.00000000000E+00 -0.23427394575E+03  0.23427394575E+03  0.00000000000E+00 0. -1.
      99926    2    1    2    0    0 -0.88817841970E-15  0.35527136788E-14 -0.12233382333E+02  0.45631450916E+03  0.45615049669E+03 0.  0.
         25    1    3    3    0    0 -0.26573722299E+02  0.48657012862E+02  0.10358331718E+03  0.17161200225E+03  0.12509000000E+03 0.  0.
         25    1    3    3    0    0  0.22113506203E+02 -0.19413959993E+02 -0.79588115495E+02  0.15115450780E+03  0.12509000000E+03 0.  0.
         25    1    3    3    0    0  0.44602160966E+01 -0.29243052869E+02 -0.36228584013E+02  0.13354799912E+03  0.12509000000E+03 0.  0.
<mgrwt>
<rscale>  2 0.45615050E+03</rscale>
<asrwt>0</asrwt>
<pdfrwt beam="1">  1       21 0.32653024E-01 0.45615050E+03</pdfrwt>
<pdfrwt beam="2">  1       21 0.34452051E-01 0.45615050E+03</pdfrwt>
<totfact> 0.67824852E+04</totfact>
</mgrwt>
</event>
<event>
 6    0  0.1572624E-007  0.4553904E+03  0.7546771E-02  0.1026127E+00
         21   -1    0    0  502  501  0.00000000000E+00  0.00000000000E+00  0.15210297621E+03  0.15210297621E+03  0.00000000000E+00 0.  1.
         21   -1    0    0  501  502 -0.00000000000E+00 -0.00000000000E+00 -0.34085534068E+03  0.34085534068E+03  0.00000000000E+00 0.  1.
      99926    2    1    2    0    0  0.00000000000E+00  0.00000000000E+00 -0.18875236448E+03  0.49295831689E+03  0.45539043369E+03 0.  0.
         25    1    3    3    0    0 -0.63048939710E+01 -0.30379256311E+02 -0.37085069883E+02  0.13410988558E+03  0.12509000000E+03 0.  0.
         25    1    3    3    0    0  0.49674860113E+02  0.74232827909E+02 -0.12356579368E+01  0.15371122086E+03  0.12509000000E+03 0.  0.
         25    1    3    3    0    0 -0.43369966142E+02 -0.43853571598E+02 -0.15043163666E+03  0.20513721045E+03  0.12509000000E+03 0.  0.
<mgrwt>
<rscale>  2 0.45539043E+03</rscale>
<asrwt>0</asrwt>
<pdfrwt beam="1">  1       21 0.22368085E-01 0.45539043E+03</pdfrwt>
<pdfrwt beam="2">  1       21 0.50125784E-01 0.45539043E+03</pdfrwt>
<totfact> 0.65564787E+04</totfact>
</mgrwt>
</event>
<event>
 6    0  0.1572624E-007  0.4575941E+03  0.7546771E-02  0.1025481E+00
         21   -1    0    0  502  501  0.00000000000E+00  0.00000000000E+00  0.19854767625E+03  0.19854767625E+03  0.00000000000E+00 0. -1.
         21   -1    0    0  501  502 -0.00000000000E+00 -0.00000000000E+00 -0.26365506852E+03  0.26365506852E+03  0.00000000000E+00 0. -1.
      99926    2    1    2    0    0  0.35527136788E-14 -0.35527136788E-14 -0.65107392267E+02  0.46220274477E+03  0.45759414850E+03 0.  0.
         25    1    3    3    0    0  0.51718501474E+02  0.55001920354E+02 -0.22437607113E+02  0.14782073248E+03  0.12509000000E+03 0.  0.
         25    1    3    3    0    0 -0.17049944174E+02  0.24503240421E+02 -0.87679917044E+02  0.15564827445E+03  0.12509000000E+03 0.  0.
         25    1    3    3    0    0 -0.34668557300E+02 -0.79505160775E+02  0.45010131890E+02  0.15873373784E+03  0.12509000000E+03 0.  0.
<mgrwt>
<rscale>  2 0.45759415E+03</rscale>
<asrwt>0</asrwt>
<pdfrwt beam="1">  1       21 0.29198188E-01 0.45759415E+03</pdfrwt>
<pdfrwt beam="2">  1       21 0.38772804E-01 0.45759415E+03</pdfrwt>
<totfact> 0.66631194E+04</totfact>
</mgrwt>
</event>
<event>
 6    0  0.1572624E-007  0.4585250E+03  0.7546771E-02  0.1025210E+00
         21   -1    0    0  502  501  0.00000000000E+00  0.00000000000E+00  0.24511400408E+03  0.24511400408E+03  0.00000000000E+00 0. -1.
         21   -1    0    0  501  502 -0.00000000000E+00 -0.00000000000E+00 -0.21443610906E+03  0.21443610906E+03  0.00000000000E+00 0. -1.
      99926    2    1    2    0    0  0.00000000000E+00  0.00000000000E+00  0.30677895021E+02  0.45955011313E+03  0.45852499740E+03 0.  0.
         25    1    3    3    0    0 -0.93547561484E+01  0.73266052616E+01 -0.56607732213E+02  0.13781557986E+03  0.12509000000E+03 0.  0.
         25    1    3    3    0    0  0.25738410691E+02 -0.90403224157E+02  0.63292169587E+02  0.16878570897E+03  0.12509000000E+03 0.  0.
         25    1    3    3    0    0 -0.16383654543E+02  0.83076618895E+02  0.23993457647E+02  0.15294882429E+03  0.12509000000E+03 0.  0.
<mgrwt>
<rscale>  2 0.45852500E+03</rscale>
<asrwt>0</asrwt>
<pdfrwt beam="1">  1       21 0.36046177E-01 0.45852500E+03</pdfrwt>
<pdfrwt beam="2">  1       21 0.31534722E-01 0.45852500E+03</pdfrwt>
<totfact> 0.66328544E+04</totfact>
</mgrwt>
</event>
<event>
 6    0  0.1572624E-007  0.4584426E+03  0.7546771E-02  0.1025234E+00
         21   -1    0    0  502  501  0.00000000000E+00  0.00000000000E+00  0.11936261847E+04  0.11936261847E+04  0.00000000000E+00 0.  1.
         21   -1    0    0  501  502 -0.00000000000E+00 -0.00000000000E+00 -0.44019153876E+02  0.44019153876E+02  0.00000000000E+00 0.  1.
      99926    2    1    2    0    0  0.71054273576E-14  0.00000000000E+00  0.11496070308E+04  0.12376453386E+04  0.45844264503E+03 0.  0.
         25    1    3    3    0    0  0.17225377185E+02 -0.22912944356E+02  0.26202279998E+03  0.29176218474E+03  0.12509000000E+03 0.  0.
         25    1    3    3    0    0 -0.75330302147E+02 -0.67779355706E+02  0.40354726612E+03  0.43447278347E+03  0.12509000000E+03 0.  0.
         25    1    3    3    0    0  0.58104924961E+02  0.90692300062E+02  0.48403696472E+03  0.51141037036E+03  0.12509000000E+03 0.  0.
<mgrwt>
<rscale>  2 0.45844265E+03</rscale>
<asrwt>0</asrwt>
<pdfrwt beam="1">  1       21 0.17553324E+00 0.45844265E+03</pdfrwt>
<pdfrwt beam="2">  1       21 0.64734058E-02 0.45844265E+03</pdfrwt>
<totfact> 0.30164133E+04</totfact>
</mgrwt>
</event>
<event>
 6    0  0.1572624E-007  0.4515072E+03  0.7546771E-02  0.1027274E+00
         21   -1    0    0  502  501  0.00000000000E+00  0.00000000000E+00  0.52597119412E+03  0.52597119412E+03  0.00000000000E+00 0.  1.
         21   -1    0    0  501  502 -0.00000000000E+00 -0.00000000000E+00 -0.96896366838E+02  0.96896366838E+02  0.00000000000E+00 0.  1.
      99926    2    1    2    0    0 -0.35527136788E-14  0.35527136788E-14  0.42907482728E+03  0.62286756095E+03  0.45150724367E+03 0.  0.
         25    1    3    3    0    0  0.52817040010E+02 -0.24096345876E+02  0.29924801263E+02  0.14111440547E+03  0.12509000000E+03 0.  0.
         25    1    3    3    0    0 -0.71970518886E+01  0.19226654422E+02  0.25911164340E+03  0.28845764618E+03  0.12509000000E+03 0.  0.
         25    1    3    3    0    0 -0.45619988122E+02  0.48696914539E+01  0.14003838262E+03  0.19329550930E+03  0.12509000000E+03 0.  0.
<mgrwt>
<rscale>  2 0.45150724E+03</rscale>
<asrwt>0</asrwt>
<pdfrwt beam="1">  1       21 0.77348703E-01 0.45150724E+03</pdfrwt>
<pdfrwt beam="2">  1       21 0.14249466E-01 0.45150724E+03</pdfrwt>
<totfact> 0.58899921E+04</totfact>
</mgrwt>
</event>
<event>
 6    0  0.1572624E-007  0.4612534E+03  0.7546771E-02  0.1024418E+00
         21   -1    0    0  502  501  0.00000000000E+00  0.00000000000E+00  0.31774907433E+02  0.31774907433E+02  0.00000000000E+00 0.  1.
         21   -1    0    0  501  502 -0.00000000000E+00 -0.00000000000E+00 -0.16739209683E+04  0.16739209683E+04  0.00000000000E+00 0.  1.
      99926    2    1    2    0    0 -0.71054273576E-14  0.00000000000E+00 -0.16421460608E+04  0.17056958757E+04  0.46125343930E+03 0.  0.
         25    1    3    3    0    0  0.86753203552E+02  0.79742538423E+02 -0.53896299755E+03  0.56569745588E+03  0.12509000000E+03 0.  0.
         25    1    3    3    0    0 -0.49989798069E+02 -0.32451545771E+00 -0.51635744795E+03  0.53363996044E+03  0.12509000000E+03 0.  0.
         25    1    3    3    0    0 -0.36763405483E+02 -0.79418022965E+02 -0.58682561533E+03  0.60635845938E+03  0.12509000000E+03 0.  0.
<mgrwt>
<rscale>  2 0.46125344E+03</rscale>
<asrwt>0</asrwt>
<pdfrwt beam="1">  1       21 0.46727795E-02 0.46125344E+03</pdfrwt>
<pdfrwt beam="2">  1       21 0.24616490E+00 0.46125344E+03</pdfrwt>
<totfact> 0.18241613E+04</totfact>
</mgrwt>
</event>
<event>
 6    0  0.1572624E-007  0.4673785E+03  0.7546771E-02  0.1022663E+00
         21   -1    0    0  502  501  0.00000000000E+00  0.00000000000E+00  0.86726875847E+02  0.86726875847E+02  0.00000000000E+00 0. -1.
         21   -1    0    0  501  502 -0.00000000000E+00 -0.00000000000E+00 -0.62968558247E+03  0.62968558247E+03  0.00000000000E+00 0. -1.
      99926    2    1    2    0    0  0.00000000000E+00 -0.46629367034E-14 -0.54295870662E+03  0.71641245832E+03  0.46737849045E+03 0.  0.
         25    1    3    3    0    0  0.51530655384E+02  0.58257010036E+02 -0.15248269223E+03  0.21200888470E+03  0.12509000000E+03 0.  0.
         25    1    3    3    0    0  0.55250988247E+02 -0.58884231643E+02 -0.23425521378E+03  0.27756627627E+03  0.12509000000E+03 0.  0.
         25    1    3    3    0    0 -0.10678164363E+03  0.62722160694E+00 -0.15622080061E+03  0.22683729735E+03  0.12509000000E+03 0.  0.
<mgrwt>
<rscale>  2 0.46737849E+03</rscale>
<asrwt>0</asrwt>
<pdfrwt beam="1">  1       21 0.12753953E-01 0.46737849E+03</pdfrwt>
<pdfrwt beam="2">  1       21 0.92600817E-01 0.46737849E+03</pdfrwt>
<totfact> 0.47249099E+04</totfact>
</mgrwt>
</event>
<event>
 6    0  0.1572624E-007  0.4575470E+03  0.7546771E-02  0.1025495E+00
         21   -1    0    0  502  501  0.00000000000E+00  0.00000000000E+00  0.48131810234E+03  0.48131810234E+03  0.00000000000E+00 0. -1.
         21   -1    0    0  501  502 -0.00000000000E+00 -0.00000000000E+00 -0.10873747221E+03  0.10873747221E+03  0.00000000000E+00 0. -1.
      99926    2    1    2    0    0  0.00000000000E+00 -0.14210854715E-13  0.37258063013E+03  0.59005557455E+03  0.45754699771E+03 0.  0.
         25    1    3    3    0    0 -0.12471693827E+02  0.23648515547E+02  0.12709848434E+03  0.18032284452E+03  0.12509000000E+03 0.  0.
         25    1    3    3    0    0 -0.84622334243E+01  0.71369886361E+02  0.38997676960E+02  0.14944429391E+03  0.12509000000E+03 0.  0.
         25    1    3    3    0    0  0.20933927251E+02 -0.95018401907E+02  0.20648446883E+03  0.26028843612E+03  0.12509000000E+03 0.  0.
<mgrwt>
<rscale>  2 0.45754700E+03</rscale>
<asrwt>0</asrwt>
<pdfrwt beam="1">  1       21 0.70782073E-01 0.45754700E+03</pdfrwt>
<pdfrwt beam="2">  1       21 0.15990805E-01 0.45754700E+03</pdfrwt>
<totfact> 0.58115823E+04</totfact>
</mgrwt>
</event>
<event>
 6    0  0.1572624E-007  0.4605583E+03  0.7546771E-02  0.1024619E+00
         21   -1    0    0  502  501  0.00000000000E+00  0.00000000000E+00  0.12681224340E+03  0.12681224340E+03  0.00000000000E+00 0. -1.
         21   -1    0    0  501  502 -0.00000000000E+00 -0.00000000000E+00 -0.41816543129E+03  0.41816543129E+03  0.00000000000E+00 0. -1.
      99926    2    1    2    0    0  0.00000000000E+00  0.00000000000E+00 -0.29135318789E+03  0.54497767469E+03  0.46055834138E+03 0.  0.
         25    1    3    3    0    0 -0.76333872623E+02  0.43851986511E+02 -0.17453902368E+03  0.23208023551E+03  0.12509000000E+03 0.  0.
         25    1    3    3    0    0  0.45369216760E+02 -0.84862120037E+01  0.30746713202E+01  0.13336919932E+03  0.12509000000E+03 0.  0.
         25    1    3    3    0    0  0.30964655864E+02 -0.35365774507E+02 -0.11988883553E+03  0.17952823985E+03  0.12509000000E+03 0.  0.
<mgrwt>
<rscale>  2 0.46055834E+03</rscale>
<asrwt>0</asrwt>
<pdfrwt beam="1">  1       21 0.18648859E-01 0.46055834E+03</pdfrwt>
<pdfrwt beam="2">  1       21 0.61494916E-01 0.46055834E+03</pdfrwt>
<totfact> 0.59537428E+04</totfact>
</mgrwt>
</event>
<event>
 6    0  0.1572624E-007  0.4557294E+03  0.7546771E-02  0.1026027E+00
         21   -1    0    0  502  501  0.00000000000E+00  0.00000000000E+00  0.54952000422E+03  0.54952000422E+03  0.00000000000E+00 0.  1.
         21   -1    0    0  501  502 -0.00000000000E+00 -0.00000000000E+00 -0.94486670460E+02  0.94486670460E+02  0.00000000000E+00 0.  1.
      99926    2    1    2    0    0  0.00000000000E+00  0.00000000000E+00  0.45503333376E+03  0.64400667468E+03  0.45572937386E+03 0.  0.
         25    1    3    3    0    0 -0.10676850329E+03 -0.81658798022E+01  0.14426447363E+03  0.21891994276E+03  0.12509000000E+03 0.  0.
         25    1    3    3    0    0  0.40358500364E+01 -0.10571517436E+02  0.11416517836E+03  0.16973285220E+03  0.12509000000E+03 0.  0.
         25    1    3    3    0    0  0.10273265325E+03  0.18737397238E+02  0.19660368177E+03  0.25535387971E+03  0.12509000000E+03 0.  0.
<mgrwt>
<rscale>  2 0.45572937E+03</rscale>
<asrwt>0</asrwt>
<pdfrwt beam="1">  1       21 0.80811764E-01 0.45572937E+03</pdfrwt>
<pdfrwt beam="2">  1       21 0.13895099E-01 0.45572937E+03</pdfrwt>
<totfact> 0.55726681E+04</totfact>
</mgrwt>
</event>
<event>
 6    0  0.1572624E-007  0.4602076E+03  0.7546771E-02  0.1024721E+00
         21   -1    0    0  502  501  0.00000000000E+00  0.00000000000E+00  0.16067552038E+04  0.16067552038E+04  0.00000000000E+00 0.  1.
         21   -1    0    0  501  502 -0.00000000000E+00 -0.00000000000E+00 -0.32953217447E+02  0.32953217447E+02  0.00000000000E+00 0.  1.
      99926    2    1    2    0    0  0.00000000000E+00  0.00000000000E+00  0.15738019863E+04  0.16397084212E+04  0.46020757757E+03 0.  0.
         25    1    3    3    0    0  0.31096807193E+02 -0.19670647609E+02  0.61579589828E+03  0.62944899892E+03  0.12509000000E+03 0.  0.
         25    1    3    3    0    0  0.62091810976E+02 -0.33078167923E+02  0.58810719333E+03  0.60536529231E+03  0.12509000000E+03 0.  0.
         25    1    3    3    0    0 -0.93188618169E+02  0.52748815532E+02  0.36989889472E+03  0.40489413001E+03  0.12509000000E+03 0.  0.
<mgrwt>
<rscale>  2 0.46020758E+03</rscale>
<asrwt>0</asrwt>
<pdfrwt beam="1">  1       21 0.23628748E+00 0.46020758E+03</pdfrwt>
<pdfrwt beam="2">  1       21 0.48460625E-02 0.46020758E+03</pdfrwt>
<totfact> 0.19736977E+04</totfact>
</mgrwt>
</event>
<event>
 6    0  0.1572624E-007  0.4464896E+03  0.7546771E-02  0.1028774E+00
         21   -1    0    0  502  501  0.00000000000E+00  0.00000000000E+00  0.14046625021E+03  0.14046625021E+03  0.00000000000E+00 0. -1.
         21   -1    0    0  501  502 -0.00000000000E+00 -0.00000000000E+00 -0.35480579777E+03  0.35480579777E+03  0.00000000000E+00 0. -1.
      99926    2    1    2    0    0  0.00000000000E+00  0.71054273576E-14 -0.21433954756E+03  0.49527204798E+03  0.44648959659E+03 0.  0.
         25    1    3    3    0    0 -0.34689244600E+02 -0.96719434628E+02 -0.10110029694E+03  0.19085798613E+03  0.12509000000E+03 0.  0.
         25    1    3    3    0    0 -0.47426091980E+01  0.33162687456E+02 -0.87821488292E+02  0.15646845716E+03  0.12509000000E+03 0.  0.
         25    1    3    3    0    0  0.39431853798E+02  0.63556747172E+02 -0.25417762323E+02  0.14794560469E+03  0.12509000000E+03 0.  0.
<mgrwt>
<rscale>  2 0.44648960E+03</rscale>
<asrwt>0</asrwt>
<pdfrwt beam="1">  1       21 0.20656802E-01 0.44648960E+03</pdfrwt>
<pdfrwt beam="2">  1       21 0.52177323E-01 0.44648960E+03</pdfrwt>
<totfact> 0.70229963E+04</totfact>
</mgrwt>
</event>
<event>
 6    0  0.1663283E-007  0.4920828E+03  0.7546771E-02  0.1015866E+00
         21   -1    0    0  502  501  0.00000000000E+00  0.00000000000E+00  0.10424166681E+04  0.10424166681E+04  0.00000000000E+00 0.  1.
         21   -1    0    0  501  502 -0.00000000000E+00 -0.00000000000E+00 -0.58073111726E+02  0.58073111726E+02  0.00000000000E+00 0.  1.
      99926    2    1    2    0    0  0.71054273576E-14  0.00000000000E+00  0.98434355638E+03  0.11004897798E+04  0.49208283706E+03 0.  0.
         25    1    3    3    0    0 -0.42738003255E+02 -0.20657025459E+02  0.58503738936E+03  0.60014123727E+03  0.12509000000E+03 0.  0.
         25    1    3    3    0    0 -0.55218506630E+02  0.10004578439E+02  0.23122318835E+03  0.26881377568E+03  0.12509000000E+03 0.  0.
         25    1    3    3    0    0  0.97956509886E+02  0.10652447021E+02  0.16808297867E+03  0.23153476688E+03  0.12509000000E+03 0.  0.
<mgrwt>
<rscale>  2 0.49208284E+03</rscale>
<asrwt>0</asrwt>
<pdfrwt beam="1">  1       21 0.15329656E+00 0.49208284E+03</pdfrwt>
<pdfrwt beam="2">  1       21 0.85401641E-02 0.49208284E+03</pdfrwt>
<totfact> 0.26832339E+04</totfact>
</mgrwt>
</event>
<event>
 6    0  0.1572624E-007  0.4584871E+03  0.7546771E-02  0.1025221E+00
         21   -1    0    0  502  501  0.00000000000E+00  0.00000000000E+00  0.17468259233E+03  0.17468259233E+03  0.00000000000E+00 0.  1.
         21   -1    0    0  501  502 -0.00000000000E+00 -0.00000000000E+00 -0.30084629687E+03  0.30084629687E+03  0.00000000000E+00 0.  1.
      99926    2    1    2    0    0  0.35527136788E-14  0.00000000000E+00 -0.12616370454E+03  0.47552888921E+03  0.45848712537E+03 0.  0.
         25    1    3    3    0    0 -0.37561844609E+02 -0.70707341215E+02  0.34772398253E+02  0.15253539934E+03  0.12509000000E+03 0.  0.
         25    1    3    3    0    0 -0.24390315131E+02  0.10265502359E+02 -0.69885719054E+02  0.14571132365E+03  0.12509000000E+03 0.  0.
         25    1    3    3    0    0  0.61952159739E+02  0.60441838856E+02 -0.91050383736E+02  0.17728216622E+03  0.12509000000E+03 0.  0.
<mgrwt>
<rscale>  2 0.45848713E+03</rscale>
<asrwt>0</asrwt>
<pdfrwt beam="1">  1       21 0.25688617E-01 0.45848713E+03</pdfrwt>
<pdfrwt beam="2">  1       21 0.44242102E-01 0.45848713E+03</pdfrwt>
<totfact> 0.65204045E+04</totfact>
</mgrwt>
</event>
<event>
 6    0  0.1572624E-007  0.4519647E+03  0.7546771E-02  0.1027138E+00
         21   -1    0    0  502  501  0.00000000000E+00  0.00000000000E+00  0.16935683731E+03  0.16935683731E+03  0.00000000000E+00 0. -1.
         21   -1    0    0  501  502 -0.00000000000E+00 -0.00000000000E+00 -0.30154089628E+03  0.30154089628E+03  0.00000000000E+00 0. -1.
      99926    2    1    2    0    0  0.71054273576E-14  0.10658141036E-13 -0.13218405897E+03  0.47089773359E+03  0.45196465576E+03 0.  0.
         25    1    3    3    0    0  0.29676339234E+02  0.67117052911E+02 -0.35134021006E+02  0.14922228866E+03  0.12509000000E+03 0.  0.
         25    1    3    3    0    0 -0.74818729339E+02 -0.89525477711E+02 -0.65541794786E+02  0.18318266398E+03  0.12509000000E+03 0.  0.
         25    1    3    3    0    0  0.45142390105E+02  0.22408424800E+02 -0.31508243183E+02  0.13849278095E+03  0.12509000000E+03 0.  0.
<mgrwt>
<rscale>  2 0.45196466E+03</rscale>
<asrwt>0</asrwt>
<pdfrwt beam="1">  1       21 0.24905418E-01 0.45196466E+03</pdfrwt>
<pdfrwt beam="2">  1       21 0.44344249E-01 0.45196466E+03</pdfrwt>
<totfact> 0.69016264E+04</totfact>
</mgrwt>
</event>
<event>
 6    0  0.1572624E-007  0.4521351E+03  0.7546771E-02  0.1027087E+00
         21   -1    0    0  502  501  0.00000000000E+00  0.00000000000E+00  0.52449491316E+02  0.52449491316E+02  0.00000000000E+00 0.  1.
         21   -1    0    0  501  502 -0.00000000000E+00 -0.00000000000E+00 -0.97439540331E+03  0.97439540331E+03  0.00000000000E+00 0.  1.
      99926    2    1    2    0    0  0.00000000000E+00 -0.17763568394E-14 -0.92194591199E+03  0.10268448946E+04  0.45213512690E+03 0.  0.
         25    1    3    3    0    0  0.42281118519E+02 -0.15078916305E+02 -0.21182454929E+03  0.25006442066E+03  0.12509000000E+03 0.  0.
         25    1    3    3    0    0  0.56759522171E+02 -0.80169866033E+01 -0.45172878520E+03  0.47222062525E+03  0.12509000000E+03 0.  0.
         25    1    3    3    0    0 -0.99040640690E+02  0.23095902908E+02 -0.25839257750E+03  0.30455984871E+03  0.12509000000E+03 0.  0.
<mgrwt>
<rscale>  2 0.45213513E+03</rscale>
<asrwt>0</asrwt>
<pdfrwt beam="1">  1       21 0.77131602E-02 0.45213513E+03</pdfrwt>
<pdfrwt beam="2">  1       21 0.14329345E+00 0.45213513E+03</pdfrwt>
<totfact> 0.39003766E+04</totfact>
</mgrwt>
</event>
<event>
 6    0  0.1572624E-007  0.4591078E+03  0.7546771E-02  0.1025040E+00
         21   -1    0    0  502  501  0.00000000000E+00  0.00000000000E+00  0.37932846647E+03  0.37932846647E+03  0.00000000000E+00 0. -1.
         21   -1    0    0  501  502 -0.00000000000E+00 -0.00000000000E+00 -0.13891652586E+03  0.13891652586E+03  0.00000000000E+00 0. -1.
      99926    2    1    2    0    0  0.00000000000E+00  0.00000000000E+00  0.24041194061E+03  0.51824499233E+03  0.45910779876E+03 0.  0.
         25    1    3    3    0    0 -0.26466551067E+02  0.30714186864E+02  0.84544375907E+01  0.13176807358E+03  0.12509000000E+03 0.  0.
         25    1    3    3    0    0  0.75776011109E+01  0.10976571746E+01  0.22290072369E+03  0.25571637728E+03  0.12509000000E+03 0.  0.
         25    1    3    3    0    0  0.18888949956E+02 -0.31811844039E+02  0.90567793282E+01  0.13076054146E+03  0.12509000000E+03 0.  0.
<mgrwt>
<rscale>  2 0.45910780E+03</rscale>
<asrwt>0</asrwt>
<pdfrwt beam="1">  1       21 0.55783598E-01 0.45910780E+03</pdfrwt>
<pdfrwt beam="2">  1       21 0.20428901E-01 0.45910780E+03</pdfrwt>
<totfact> 0.61962576E+04</totfact>
</mgrwt>
</event>
<event>
 6    0  0.1572624E-007  0.4579513E+03  0.7546771E-02  0.1025377E+00
         21   -1    0    0  502  501  0.00000000000E+00  0.00000000000E+00  0.68947217730E+03  0.68947217730E+03  0.00000000000E+00 0.  1.
         21   -1    0    0  501  502 -0.00000000000E+00 -0.00000000000E+00 -0.76043441037E+02  0.76043441037E+02  0.00000000000E+00 0.  1.
      99926    2    1    2    0    0  0.17763568394E-14  0.53290705182E-14  0.61342873627E+03  0.76551561834E+03  0.45795125008E+03 0.  0.
         25    1    3    3    0    0 -0.23285545153E+02 -0.62494730102E+02  0.79930939983E+02  0.16273988807E+03  0.12509000000E+03 0.  0.
         25    1    3    3    0    0  0.14795580154E+02  0.70719059835E+01  0.36120080445E+03  0.38259959524E+03  0.12509000000E+03 0.  0.
         25    1    3    3    0    0  0.84899649984E+01  0.55422824118E+02  0.17229699184E+03  0.22017613503E+03  0.12509000000E+03 0.  0.
<mgrwt>
<rscale>  2 0.45795125E+03</rscale>
<asrwt>0</asrwt>
<pdfrwt beam="1">  1       21 0.10139296E+00 0.45795125E+03</pdfrwt>
<pdfrwt beam="2">  1       21 0.11182859E-01 0.45795125E+03</pdfrwt>
<totfact> 0.48347879E+04</totfact>
</mgrwt>
</event>
<event>
 6    0  0.1572624E-007  0.4517799E+03  0.7546771E-02  0.1027193E+00
         21   -1    0    0  502  501  0.00000000000E+00  0.00000000000E+00  0.12819888622E+03  0.12819888622E+03  0.00000000000E+00 0. -1.
         21   -1    0    0  501  502 -0.00000000000E+00 -0.00000000000E+00 -0.39802421971E+03  0.39802421971E+03  0.00000000000E+00 0. -1.
      99926    2    1    2    0    0  0.00000000000E+00  0.00000000000E+00 -0.26982533349E+03  0.52622310592E+03  0.45177986521E+03 0.  0.
         25    1    3    3    0    0  0.16977479303E+02 -0.43621030994E+02 -0.16974706435E+03  0.21599213667E+03  0.12509000000E+03 0.  0.
         25    1    3    3    0    0  0.17347556595E+02  0.89648805945E+02 -0.66566681357E+02  0.16857187575E+03  0.12509000000E+03 0.  0.
         25    1    3    3    0    0 -0.34325035898E+02 -0.46027774951E+02 -0.33511587790E+02  0.14165909350E+03  0.12509000000E+03 0.  0.
<mgrwt>
<rscale>  2 0.45177987E+03</rscale>
<asrwt>0</asrwt>
<pdfrwt beam="1">  1       21 0.18852777E-01 0.45177987E+03</pdfrwt>
<pdfrwt beam="2">  1       21 0.58532974E-01 0.45177987E+03</pdfrwt>
<totfact> 0.65108989E+04</totfact>
</mgrwt>
</event>
<event>
 6    0  0.1572624E-007  0.4633447E+03  0.7546771E-02  0.1023816E+00
         21   -1    0    0  502  501  0.00000000000E+00  0.00000000000E+00  0.19562923153E+03  0.19562923153E+03  0.00000000000E+00 0.  1.
         21   -1    0    0  501  502 -0.00000000000E+00 -0.00000000000E+00 -0.27435606770E+03  0.27435606770E+03  0.00000000000E+00 0.  1.
      99926    2    1    2    0    0  0.00000000000E+00 -0.35527136788E-14 -0.78726836169E+02  0.46998529923E+03  0.46334465224E+03 0.  0.
         25    1    3    3    0    0  0.22065286360E+02 -0.14912336771E+02  0.87511553643E+02  0.15496785077E+03  0.12509000000E+03 0.  0.
         25    1    3    3    0    0 -0.37530331532E+02 -0.29575977662E+02 -0.81578932566E+02  0.15679889852E+03  0.12509000000E+03 0.  0.
         25    1    3    3    0    0  0.15465045172E+02  0.44488314433E+02 -0.84659457246E+02  0.15821854994E+03  0.12509000000E+03 0.  0.
<mgrwt>
<rscale>  2 0.46334465E+03</rscale>
<asrwt>0</asrwt>
<pdfrwt beam="1">  1       21 0.28769005E-01 0.46334465E+03</pdfrwt>
<pdfrwt beam="2">  1       21 0.40346481E-01 0.46334465E+03</pdfrwt>
<totfact> 0.63147663E+04</totfact>
</mgrwt>
</event>
<event>
 6    0  0.1572624E-007  0.4620761E+03  0.7546771E-02  0.1024181E+00
         21   -1    0    0  502  501  0.00000000000E+00  0.00000000000E+00  0.48088279320E+02  0.48088279320E+02  0.00000000000E+00 0.  1.
         21   -1    0    0  501  502 -0.00000000000E+00 -0.00000000000E+00 -0.11100123406E+04  0.11100123406E+04  0.00000000000E+00 0.  1.
      99926    2    1    2    0    0  0.71054273576E-14  0.00000000000E+00 -0.10619240613E+04  0.11581006200E+04  0.46207611271E+03 0.  0.
         25    1    3    3    0    0  0.20202112289E+01  0.20928736789E+02 -0.41164852009E+03  0.43074830873E+03  0.12509000000E+03 0.  0.
         25    1    3    3    0    0 -0.56441583917E+02  0.37533015210E+02 -0.15535923904E+03  0.21066176891E+03  0.12509000000E+03 0.  0.
         25    1    3    3    0    0  0.54421372688E+02 -0.58461751999E+02 -0.49491630218E+03  0.51669054232E+03  0.12509000000E+03 0.  0.
<mgrwt>
<rscale>  2 0.46207611E+03</rscale>
<asrwt>0</asrwt>
<pdfrwt beam="1">  1       21 0.70718058E-02 0.46207611E+03</pdfrwt>
<pdfrwt beam="2">  1       21 0.16323711E+00 0.46207611E+03</pdfrwt>
<totfact> 0.31727031E+04</totfact>
</mgrwt>
</event>
<event>
 6    0  0.1572624E-007  0.4515069E+03  0.7546771E-02  0.1027274E+00
         21   -1    0    0  502  501  0.00000000000E+00  0.00000000000E+00  0.16466209188E+03  0.16466209188E+03  0.00000000000E+00 0.  1.
         21   -1    0    0  501  502 -0.00000000000E+00 -0.00000000000E+00 -0.30951028793E+03  0.30951028793E+03  0.00000000000E+00 0.  1.
      99926    2    1    2    0    0 -0.35527136788E-14  0.17763568394E-14 -0.14484819606E+03  0.47417237981E+03  0.45150686138E+03 0.  0.
         25    1    3    3    0    0 -0.20470474360E+02  0.50843920438E+01 -0.71579213867E+02  0.14565707439E+03  0.12509000000E+03 0.  0.
         25    1    3    3    0    0 -0.41867727292E+02  0.38191363026E+02  0.40503262315E+02  0.14317649652E+03  0.12509000000E+03 0.  0.
         25    1    3    3    0    0  0.62338201652E+02 -0.43275755070E+02 -0.11377224451E+03  0.18533880889E+03  0.12509000000E+03 0.  0.
<mgrwt>
<rscale>  2 0.45150686E+03</rscale>
<asrwt>0</asrwt>
<pdfrwt beam="1">  1       21 0.24215013E-01 0.45150686E+03</pdfrwt>
<pdfrwt beam="2">  1       21 0.45516219E-01 0.45150686E+03</pdfrwt>
<totfact> 0.69020483E+04</totfact>
</mgrwt>
</event>
<event>
 6    0  0.1572624E-007  0.4557938E+03  0.7546771E-02  0.1026008E+00
         21   -1    0    0  502  501  0.00000000000E+00  0.00000000000E+00  0.31983267555E+03  0.31983267555E+03  0.00000000000E+00 0.  1.
         21   -1    0    0  501  502 -0.00000000000E+00 -0.00000000000E+00 -0.16238805794E+03  0.16238805794E+03  0.00000000000E+00 0.  1.
      99926    2    1    2    0    0  0.00000000000E+00  0.00000000000E+00  0.15744461761E+03  0.48222073349E+03  0.45579384396E+03 0.  0.
         25    1    3    3    0    0 -0.30590979005E+02  0.52602735124E+02 -0.20392009969E+02  0.14059231099E+03  0.12509000000E+03 0.  0.
         25    1    3    3    0    0  0.65600205718E+02 -0.74862818811E+02  0.10033187230E+03  0.18873744019E+03  0.12509000000E+03 0.  0.
         25    1    3    3    0    0 -0.35009226713E+02  0.22260083688E+02  0.77504755285E+02  0.15289098231E+03  0.12509000000E+03 0.  0.
<mgrwt>
<rscale>  2 0.45579384E+03</rscale>
<asrwt>0</asrwt>
<pdfrwt beam="1">  1       21 0.47034217E-01 0.45579384E+03</pdfrwt>
<pdfrwt beam="2">  1       21 0.23880597E-01 0.45579384E+03</pdfrwt>
<totfact> 0.66121160E+04</totfact>
</mgrwt>
</event>
<event>
 6    0  0.1572624E-007  0.4833053E+03  0.7546771E-02  0.1018231E+00
         21   -1    0    0  502  501  0.00000000000E+00  0.00000000000E+00  0.98624981827E+03  0.98624981827E+03  0.00000000000E+00 0.  1.
         21   -1    0    0  501  502 -0.00000000000E+00 -0.00000000000E+00 -0.59210148314E+02  0.59210148314E+02  0.00000000000E+00 0.  1.
      99926    2    1    2    0    0  0.00000000000E+00  0.71054273576E-14  0.92703966996E+03  0.10454599666E+04  0.48330527833E+03 0.  0.
         25    1    3    3    0    0 -0.23690303344E+02  0.86981181999E+02  0.44024086909E+03  0.46646166767E+03  0.12509000000E+03 0.  0.
         25    1    3    3    0    0 -0.71183516291E+02 -0.35403186533E+02  0.23165555047E+03  0.27501323745E+03  0.12509000000E+03 0.  0.
         25    1    3    3    0    0  0.94873819636E+02 -0.51577995466E+02  0.25514325040E+03  0.30398506146E+03  0.12509000000E+03 0.  0.
<mgrwt>
<rscale>  2 0.48330528E+03</rscale>
<asrwt>0</asrwt>
<pdfrwt beam="1">  1       21 0.14503673E+00 0.48330528E+03</pdfrwt>
<pdfrwt beam="2">  1       21 0.87073754E-02 0.48330528E+03</pdfrwt>
<totfact> 0.30199240E+04</totfact>
</mgrwt>
</event>
<event>
 6    0  0.1572624E-007  0.4633153E+03  0.7546771E-02  0.1023824E+00
         21   -1    0    0  502  501  0.00000000000E+00  0.00000000000E+00  0.85663562635E+03  0.85663562635E+03  0.00000000000E+00 0.  1.
         21   -1    0    0  501  502 -0.00000000000E+00 -0.00000000000E+00 -0.62646542629E+02  0.62646542629E+02  0.00000000000E+00 0.  1.
      99926    2    1    2    0    0  0.00000000000E+00 -0.44408920985E-15  0.79398908372E+03  0.91928216898E+03  0.46331527186E+03 0.  0.
         25    1    3    3    0    0 -0.11315423382E+03 -0.25815197450E+02  0.30861147685E+03  0.35264551152E+03  0.12509000000E+03 0.  0.
         25    1    3    3    0    0  0.98709144072E+02  0.22698104659E+02  0.21706038978E+03  0.27022475828E+03  0.12509000000E+03 0.  0.
         25    1    3    3    0    0  0.14445089748E+02  0.31170927901E+01  0.26831721709E+03  0.29641189918E+03  0.12509000000E+03 0.  0.
<mgrwt>
<rscale>  2 0.46331527E+03</rscale>
<asrwt>0</asrwt>
<pdfrwt beam="1">  1       21 0.12597582E+00 0.46331527E+03</pdfrwt>
<pdfrwt beam="2">  1       21 0.92127274E-02 0.46331527E+03</pdfrwt>
<totfact> 0.39758937E+04</totfact>
</mgrwt>
</event>
<event>
 6    0  0.1572624E-007  0.4527647E+03  0.7546771E-02  0.1026901E+00
         21   -1    0    0  502  501  0.00000000000E+00  0.00000000000E+00  0.69342989297E+03  0.69342989297E+03  0.00000000000E+00 0.  1.
         21   -1    0    0  501  502 -0.00000000000E+00 -0.00000000000E+00 -0.73906479453E+02  0.73906479453E+02  0.00000000000E+00 0.  1.
      99926    2    1    2    0    0 -0.17763568394E-14  0.00000000000E+00  0.61952341351E+03  0.76733637242E+03  0.45276467237E+03 0.  0.
         25    1    3    3    0    0  0.11496996963E+02 -0.34363072847E+02  0.30852029538E+03  0.33488099749E+03  0.12509000000E+03 0.  0.
         25    1    3    3    0    0 -0.72966831846E+02  0.19814450424E+02  0.22412570710E+03  0.26757543175E+03  0.12509000000E+03 0.  0.
         25    1    3    3    0    0  0.61469834883E+02  0.14548622422E+02  0.86877411030E+02  0.16487994318E+03  0.12509000000E+03 0.  0.
<mgrwt>
<rscale>  2 0.45276467E+03</rscale>
<asrwt>0</asrwt>
<pdfrwt beam="1">  1       21 0.10197498E+00 0.45276467E+03</pdfrwt>
<pdfrwt beam="2">  1       21 0.10868600E-01 0.45276467E+03</pdfrwt>
<totfact> 0.50261386E+04</totfact>
</mgrwt>
</event>
<event>
 6    0  0.1572624E-007  0.4576134E+03  0.7546771E-02  0.1025476E+00
         21   -1    0    0  502  501  0.00000000000E+00  0.00000000000E+00  0.11588073855E+04  0.11588073855E+04  0.00000000000E+00 0. -1.
         21   -1    0    0  501  502 -0.00000000000E+00 -0.00000000000E+00 -0.45177914375E+02  0.45177914375E+02  0.00000000000E+00 0. -1.
      99926    2    1    2    0    0  0.71054273576E-14 -0.71054273576E-14  0.11136294712E+04  0.12039852999E+04  0.45761337760E+03 0.  0.
         25    1    3    3    0    0 -0.36476055577E+02 -0.58762198710E+02  0.27160054254E+03  0.30691670114E+03  0.12509000000E+03 0.  0.
         25    1    3    3    0    0  0.77923037690E+02  0.85710467013E+02  0.39447247919E+03  0.42973751162E+03  0.12509000000E+03 0.  0.
         25    1    3    3    0    0 -0.41446982113E+02 -0.26948268302E+02  0.44755644943E+03  0.46733108715E+03  0.12509000000E+03 0.  0.
<mgrwt>
<rscale>  2 0.45761338E+03</rscale>
<asrwt>0</asrwt>
<pdfrwt beam="1">  1       21 0.17041283E+00 0.45761338E+03</pdfrwt>
<pdfrwt beam="2">  1       21 0.66438117E-02 0.45761338E+03</pdfrwt>
<totfact> 0.31386075E+04</totfact>
</mgrwt>
</event>
<event>
 6    0  0.1572624E-007  0.4535162E+03  0.7546771E-02  0.1026679E+00
         21   -1    0    0  502  501  0.00000000000E+00  0.00000000000E+00  0.86665437193E+02  0.86665437193E+02  0.00000000000E+00 0.  1.
         21   -1    0    0  501  502 -0.00000000000E+00 -0.00000000000E+00 -0.59330733892E+03  0.59330733892E+03  0.00000000000E+00 0.  1.
      99926    2    1    2    0    0 -0.17763568394E-14 -0.71054273576E-14 -0.50664190173E+03  0.67997277612E+03  0.45351621765E+03 0.  0.
         25    1    3    3    0    0  0.45722074966E+02 -0.81548117566E+02 -0.11693005991E+03  0.19509164674E+03  0.12509000000E+03 0.  0.
         25    1    3    3    0    0 -0.58876713069E+02  0.26570507496E+02 -0.13248738011E+03  0.19332064866E+03  0.12509000000E+03 0.  0.
         25    1    3    3    0    0  0.13154638103E+02  0.54977610070E+02 -0.25722446171E+03  0.29156048071E+03  0.12509000000E+03 0.  0.
<mgrwt>
<rscale>  2 0.45351622E+03</rscale>
<asrwt>0</asrwt>
<pdfrwt beam="1">  1       21 0.12744917E-01 0.45351622E+03</pdfrwt>
<pdfrwt beam="2">  1       21 0.87251082E-01 0.45351622E+03</pdfrwt>
<totfact> 0.54639869E+04</totfact>
</mgrwt>
</event>
<event>
 6    0  0.1572624E-007  0.4576846E+03  0.7546771E-02  0.1025455E+00
         21   -1    0    0  502  501  0.00000000000E+00  0.00000000000E+00  0.13385919509E+04  0.13385919509E+04  0.00000000000E+00 0.  1.
         21   -1    0    0  501  502 -0.00000000000E+00 -0.00000000000E+00 -0.39122298829E+02  0.39122298829E+02  0.00000000000E+00 0.  1.
      99926    2    1    2    0    0  0.00000000000E+00 -0.71054273576E-14  0.12994696521E+04  0.13777142498E+04  0.45768458272E+03 0.  0.
         25    1    3    3    0    0 -0.38154094834E+02  0.78663583353E+02  0.34408831992E+03  0.37641463083E+03  0.12509000000E+03 0.  0.
         25    1    3    3    0    0  0.42455616958E+01 -0.52535402553E+02  0.25834149440E+03  0.29183185080E+03  0.12509000000E+03 0.  0.
         25    1    3    3    0    0  0.33908533138E+02 -0.26128180800E+02  0.69703983780E+03  0.70946776814E+03  0.12509000000E+03 0.  0.
<mgrwt>
<rscale>  2 0.45768458E+03</rscale>
<asrwt>0</asrwt>
<pdfrwt beam="1">  1       21 0.19685173E+00 0.45768458E+03</pdfrwt>
<pdfrwt beam="2">  1       21 0.57532801E-02 0.45768458E+03</pdfrwt>
<totfact> 0.26377327E+04</totfact>
</mgrwt>
</event>
<event>
 6    0  0.1572624E-007  0.4413469E+03  0.7546771E-02  0.1030334E+00
         21   -1    0    0  502  501  0.00000000000E+00  0.00000000000E+00  0.54927870651E+02  0.54927870651E+02  0.00000000000E+00 0.  1.
         21   -1    0    0  501  502 -0.00000000000E+00 -0.00000000000E+00 -0.88655848906E+03  0.88655848906E+03  0.00000000000E+00 0.  1.
      99926    2    1    2    0    0  0.00000000000E+00  0.00000000000E+00 -0.83163061841E+03  0.94148635971E+03  0.44134689310E+03 0.  0.
         25    1    3    3    0    0 -0.46272270641E+02  0.90820901999E+01 -0.17090968896E+03  0.21698211280E+03  0.12509000000E+03 0.  0.
         25    1    3    3    0    0  0.17144632093E+02  0.98300071996E+01 -0.51043475322E+03  0.52591036579E+03  0.12509000000E+03 0.  0.
         25    1    3    3    0    0  0.29127638548E+02 -0.18912097399E+02 -0.15028617623E+03  0.19859388113E+03  0.12509000000E+03 0.  0.
<mgrwt>
<rscale>  2 0.44134689E+03</rscale>
<asrwt>0</asrwt>
<pdfrwt beam="1">  1       21 0.80776286E-02 0.44134689E+03</pdfrwt>
<pdfrwt beam="2">  1       21 0.13037624E+00 0.44134689E+03</pdfrwt>
<totfact> 0.46229663E+04</totfact>
</mgrwt>
</event>
<event>
 6    0  0.1572624E-007  0.4640336E+03  0.7546771E-02  0.1023618E+00
         21   -1    0    0  502  501  0.00000000000E+00  0.00000000000E+00  0.15381336865E+03  0.15381336865E+03  0.00000000000E+00 0.  1.
         21   -1    0    0  501  502 -0.00000000000E+00 -0.00000000000E+00 -0.34998122470E+03  0.34998122470E+03  0.00000000000E+00 0.  1.
      99926    2    1    2    0    0  0.71054273576E-14  0.17763568394E-14 -0.19616785605E+03  0.50379459335E+03  0.46403358126E+03 0.  0.
         25    1    3    3    0    0 -0.63320705958E+02 -0.40195654089E+02 -0.13817618671E+03  0.20091134633E+03  0.12509000000E+03 0.  0.
         25    1    3    3    0    0  0.10385932905E+03  0.28788191876E+02 -0.37400136505E+02  0.16929795785E+03  0.12509000000E+03 0.  0.
         25    1    3    3    0    0 -0.40538623093E+02  0.11407462214E+02 -0.20591532844E+02  0.13358528917E+03  0.12509000000E+03 0.  0.
<mgrwt>
<rscale>  2 0.46403358E+03</rscale>
<asrwt>0</asrwt>
<pdfrwt beam="1">  1       21 0.22619613E-01 0.46403358E+03</pdfrwt>
<pdfrwt beam="2">  1       21 0.51467827E-01 0.46403358E+03</pdfrwt>
<totfact> 0.60545300E+04</totfact>
</mgrwt>
</event>
<event>
 6    0  0.1572624E-007  0.4536334E+03  0.7546771E-02  0.1026644E+00
         21   -1    0    0  502  501  0.00000000000E+00  0.00000000000E+00  0.11796938841E+03  0.11796938841E+03  0.00000000000E+00 0. -1.
         21   -1    0    0  501  502 -0.00000000000E+00 -0.00000000000E+00 -0.43609456791E+03  0.43609456791E+03  0.00000000000E+00 0. -1.
      99926    2    1    2    0    0  0.00000000000E+00 -0.35527136788E-14 -0.31812517950E+03  0.55406395632E+03  0.45363337384E+03 0.  0.
         25    1    3    3    0    0  0.43780621983E+02  0.90321162895E+02 -0.81082225557E+02  0.17971224424E+03  0.12509000000E+03 0.  0.
         25    1    3    3    0    0 -0.47790228638E+02 -0.85639175075E+02 -0.16825256712E+03  0.23146146268E+03  0.12509000000E+03 0.  0.
         25    1    3    3    0    0  0.40096066553E+01 -0.46819878201E+01 -0.68790386822E+02  0.14289024940E+03  0.12509000000E+03 0.  0.
<mgrwt>
<rscale>  2 0.45363337E+03</rscale>
<asrwt>0</asrwt>
<pdfrwt beam="1">  1       21 0.17348439E-01 0.45363337E+03</pdfrwt>
<pdfrwt beam="2">  1       21 0.64131555E-01 0.45363337E+03</pdfrwt>
<totfact> 0.62269255E+04</totfact>
</mgrwt>
</event>
<event>
 6    0  0.1572624E-007  0.4507588E+03  0.7546771E-02  0.1027496E+00
         21   -1    0    0  502  501  0.00000000000E+00  0.00000000000E+00  0.12781253453E+03  0.12781253453E+03  0.00000000000E+00 0.  1.
         21   -1    0    0  501  502 -0.00000000000E+00 -0.00000000000E+00 -0.39742483565E+03  0.39742483565E+03  0.00000000000E+00 0.  1.
      99926    2    1    2    0    0  0.00000000000E+00  0.00000000000E+00 -0.26961230112E+03  0.52523737017E+03  0.45075880703E+03 0.  0.
         25    1    3    3    0    0  0.36772620325E+02  0.20806410669E+02 -0.94698462030E+01  0.13237189436E+03  0.12509000000E+03 0.  0.
         25    1    3    3    0    0 -0.70033454094E+02  0.59424244131E+01 -0.65835215748E+02  0.15786633850E+03  0.12509000000E+03 0.  0.
         25    1    3    3    0    0  0.33260833769E+02 -0.26748835082E+02 -0.19430723917E+03  0.23499913731E+03  0.12509000000E+03 0.  0.
<mgrwt>
<rscale>  2 0.45075881E+03</rscale>
<asrwt>0</asrwt>
<pdfrwt beam="1">  1       21 0.18795961E-01 0.45075881E+03</pdfrwt>
<pdfrwt beam="2">  1       21 0.58444827E-01 0.45075881E+03</pdfrwt>
<totfact> 0.65711551E+04</totfact>
</mgrwt>
</event>
<event>
 6    0  0.1572624E-007  0.4510000E+03  0.7546771E-02  0.1027424E+00
         21   -1    0    0  502  501  0.00000000000E+00  0.00000000000E+00  0.11726254634E+03  0.11726254634E+03  0.00000000000E+00 0.  1.
         21   -1    0    0  501  502 -0.00000000000E+00 -0.00000000000E+00 -0.43364442183E+03  0.43364442183E+03  0.00000000000E+00 0.  1.
      99926    2    1    2    0    0  0.00000000000E+00  0.35527136788E-14 -0.31638187549E+03  0.55090696818E+03  0.45099999606E+03 0.  0.
         25    1    3    3    0    0  0.37495042657E+02 -0.24883214570E+02 -0.50145131661E+02  0.14208129687E+03  0.12509000000E+03 0.  0.
         25    1    3    3    0    0 -0.93448036850E+02 -0.66981346481E+01 -0.19877199356E+03  0.25285413606E+03  0.12509000000E+03 0.  0.
         25    1    3    3    0    0  0.55952994193E+02  0.31581349219E+02 -0.67464750267E+02  0.15597153524E+03  0.12509000000E+03 0.  0.
<mgrwt>
<rscale>  2 0.45100000E+03</rscale>
<asrwt>0</asrwt>
<pdfrwt beam="1">  1       21 0.17244492E-01 0.45100000E+03</pdfrwt>
<pdfrwt beam="2">  1       21 0.63771239E-01 0.45100000E+03</pdfrwt>
<totfact> 0.63801890E+04</totfact>
</mgrwt>
</event>
<event>
 6    0  0.1572624E-007  0.4399878E+03  0.7546771E-02  0.1030751E+00
         21   -1    0    0  502  501  0.00000000000E+00  0.00000000000E+00  0.37943874767E+02  0.37943874767E+02  0.00000000000E+00 0.  1.
         21   -1    0    0  501  502 -0.00000000000E+00 -0.00000000000E+00 -0.12754974007E+04  0.12754974007E+04  0.00000000000E+00 0.  1.
      99926    2    1    2    0    0  0.71054273576E-14  0.17763568394E-14 -0.12375535259E+04  0.13134412755E+04  0.43998778909E+03 0.  0.
         25    1    3    3    0    0  0.59723107645E+02  0.11281520006E+02 -0.22534607387E+03  0.26480650179E+03  0.12509000000E+03 0.  0.
         25    1    3    3    0    0 -0.59101298824E+02 -0.14403193463E+02 -0.66952244702E+03  0.68381885808E+03  0.12509000000E+03 0.  0.
         25    1    3    3    0    0 -0.62180882105E+00  0.31216734576E+01 -0.34268500503E+03  0.36481591559E+03  0.12509000000E+03 0.  0.
<mgrwt>
<rscale>  2 0.43998779E+03</rscale>
<asrwt>0</asrwt>
<pdfrwt beam="1">  1       21 0.55799829E-02 0.43998779E+03</pdfrwt>
<pdfrwt beam="2">  1       21 0.18757310E+00 0.43998779E+03</pdfrwt>
<totfact> 0.32340714E+04</totfact>
</mgrwt>
</event>
<event>
 6    0  0.1572624E-007  0.4555161E+03  0.7546771E-02  0.1026090E+00
         21   -1    0    0  502  501  0.00000000000E+00  0.00000000000E+00  0.14371294026E+03  0.14371294026E+03  0.00000000000E+00 0.  1.
         21   -1    0    0  501  502 -0.00000000000E+00 -0.00000000000E+00 -0.36095385485E+03  0.36095385485E+03  0.00000000000E+00 0.  1.
      99926    2    1    2    0    0 -0.35527136788E-14  0.00000000000E+00 -0.21724091459E+03  0.50466679511E+03  0.45551614584E+03 0.  0.
         25    1    3    3    0    0  0.23843536704E+02 -0.38296292468E+02 -0.10815302818E+03  0.17140509288E+03  0.12509000000E+03 0.  0.
         25    1    3    3    0    0  0.13143491543E+02  0.67895925497E+02 -0.13546196171E+03  0.19692653259E+03  0.12509000000E+03 0.  0.
         25    1    3    3    0    0 -0.36987028247E+02 -0.29599633029E+02  0.26374075299E+02  0.13633516964E+03  0.12509000000E+03 0.  0.
<mgrwt>
<rscale>  2 0.45551615E+03</rscale>
<asrwt>0</asrwt>
<pdfrwt beam="1">  1       21 0.21134256E-01 0.45551615E+03</pdfrwt>
<pdfrwt beam="2">  1       21 0.53081448E-01 0.45551615E+03</pdfrwt>
<totfact> 0.64678649E+04</totfact>
</mgrwt>
</event>
<event>
 6    0  0.1572624E-007  0.4436213E+03  0.7546771E-02  0.1029641E+00
         21   -1    0    0  502  501  0.00000000000E+00  0.00000000000E+00  0.92995322877E+02  0.92995322877E+02  0.00000000000E+00 0.  1.
         21   -1    0    0  501  502 -0.00000000000E+00 -0.00000000000E+00 -0.52905853107E+03  0.52905853107E+03  0.00000000000E+00 0.  1.
      99926    2    1    2    0    0  0.00000000000E+00  0.00000000000E+00 -0.43606320819E+03  0.62205385395E+03  0.44362132013E+03 0.  0.
         25    1    3    3    0    0  0.21307756644E+02  0.19626555023E+02 -0.67233580634E+02  0.14493820966E+03  0.12509000000E+03 0.  0.
         25    1    3    3    0    0 -0.30808270269E+02 -0.85310161928E+02 -0.14282145987E+03  0.21041019639E+03  0.12509000000E+03 0.  0.
         25    1    3    3    0    0  0.95005136249E+01  0.65683606905E+02 -0.22600816769E+03  0.26670544789E+03  0.12509000000E+03 0.  0.
<mgrwt>
<rscale>  2 0.44362132E+03</rscale>
<asrwt>0</asrwt>
<pdfrwt beam="1">  1       21 0.13675783E-01 0.44362132E+03</pdfrwt>
<pdfrwt beam="2">  1       21 0.77802726E-01 0.44362132E+03</pdfrwt>
<totfact> 0.62795100E+04</totfact>
</mgrwt>
</event>
<event>
 6    0  0.1572624E-007  0.4557210E+03  0.7546771E-02  0.1026030E+00
         21   -1    0    0  502  501  0.00000000000E+00  0.00000000000E+00  0.17173767759E+03  0.17173767759E+03  0.00000000000E+00 0.  1.
         21   -1    0    0  501  502 -0.00000000000E+00 -0.00000000000E+00 -0.30232386408E+03  0.30232386408E+03  0.00000000000E+00 0.  1.
      99926    2    1    2    0    0 -0.35527136788E-14  0.71054273576E-14 -0.13058618649E+03  0.47406154167E+03  0.45572095979E+03 0.  0.
         25    1    3    3    0    0 -0.40735998443E+02 -0.40697263034E+02 -0.14081644922E+03  0.19695803934E+03  0.12509000000E+03 0.  0.
         25    1    3    3    0    0  0.13054236933E+02 -0.19130018442E+02  0.38488187836E+02  0.13291056922E+03  0.12509000000E+03 0.  0.
         25    1    3    3    0    0  0.27681761510E+02  0.59827281475E+02 -0.28257925099E+02  0.14419293311E+03  0.12509000000E+03 0.  0.
<mgrwt>
<rscale>  2 0.45572096E+03</rscale>
<asrwt>0</asrwt>
<pdfrwt beam="1">  1       21 0.25255541E-01 0.45572096E+03</pdfrwt>
<pdfrwt beam="2">  1       21 0.44459392E-01 0.45572096E+03</pdfrwt>
<totfact> 0.66752300E+04</totfact>
</mgrwt>
</event>
<event>
 6    0  0.1572624E-007  0.4498318E+03  0.7546771E-02  0.1027772E+00
         21   -1    0    0  502  501  0.00000000000E+00  0.00000000000E+00  0.78098032337E+03  0.78098032337E+03  0.00000000000E+00 0. -1.
         21   -1    0    0  501  502 -0.00000000000E+00 -0.00000000000E+00 -0.64773921075E+02  0.64773921075E+02  0.00000000000E+00 0. -1.
      99926    2    1    2    0    0  0.53290705182E-14  0.00000000000E+00  0.71620640229E+03  0.84575424444E+03  0.44983178112E+03 0.  0.
         25    1    3    3    0    0 -0.69062669981E+02 -0.52195030269E+02  0.31560905786E+03  0.35035775869E+03  0.12509000000E+03 0.  0.
         25    1    3    3    0    0  0.83956671744E+02  0.18311591954E+02  0.27616348961E+03  0.31511556329E+03  0.12509000000E+03 0.  0.
         25    1    3    3    0    0 -0.14894001763E+02  0.33883438315E+02  0.12443385482E+03  0.18028092247E+03  0.12509000000E+03 0.  0.
<mgrwt>
<rscale>  2 0.44983178E+03</rscale>
<asrwt>0</asrwt>
<pdfrwt beam="1">  1       21 0.11485004E+00 0.44983178E+03</pdfrwt>
<pdfrwt beam="2">  1       21 0.95255771E-02 0.44983178E+03</pdfrwt>
<totfact> 0.47527758E+04</totfact>
</mgrwt>
</event>
<event>
 6    0  0.1572624E-007  0.4542923E+03  0.7546771E-02  0.1026450E+00
         21   -1    0    0  502  501  0.00000000000E+00  0.00000000000E+00  0.33642738569E+02  0.33642738569E+02  0.00000000000E+00 0.  1.
         21   -1    0    0  501  502 -0.00000000000E+00 -0.00000000000E+00 -0.15336257382E+04  0.15336257382E+04  0.00000000000E+00 0.  1.
      99926    2    1    2    0    0 -0.11102230246E-15  0.00000000000E+00 -0.14999829996E+04  0.15672684768E+04  0.45429228377E+03 0.  0.
         25    1    3    3    0    0 -0.36581300267E+00  0.32806378801E+02 -0.23468548968E+03  0.26795742101E+03  0.12509000000E+03 0.  0.
         25    1    3    3    0    0 -0.61007927628E+01  0.60558255460E+02 -0.60207945882E+03  0.61794150598E+03  0.12509000000E+03 0.  0.
         25    1    3    3    0    0  0.64666057654E+01 -0.93364634261E+02 -0.66321805113E+03  0.68136954978E+03  0.12509000000E+03 0.  0.
<mgrwt>
<rscale>  2 0.45429228E+03</rscale>
<asrwt>0</asrwt>
<pdfrwt beam="1">  1       21 0.49474617E-02 0.45429228E+03</pdfrwt>
<pdfrwt beam="2">  1       21 0.22553319E+00 0.45429228E+03</pdfrwt>
<totfact> 0.22299919E+04</totfact>
</mgrwt>
</event>
<event>
 6    0  0.1572624E-007  0.4624654E+03  0.7546771E-02  0.1024069E+00
         21   -1    0    0  502  501  0.00000000000E+00  0.00000000000E+00  0.11430982567E+03  0.11430982567E+03  0.00000000000E+00 0. -1.
         21   -1    0    0  501  502 -0.00000000000E+00 -0.00000000000E+00 -0.46775117679E+03  0.46775117679E+03  0.00000000000E+00 0. -1.
      99926    2    1    2    0    0  0.00000000000E+00  0.35527136788E-14 -0.35344135112E+03  0.58206100246E+03  0.46246537373E+03 0.  0.
         25    1    3    3    0    0 -0.37045991663E+01  0.15580096489E+02  0.12874571066E+02  0.12676642356E+03  0.12509000000E+03 0.  0.
         25    1    3    3    0    0 -0.20103214321E+02 -0.39734462672E+02 -0.24018967723E+03  0.27444772890E+03  0.12509000000E+03 0.  0.
         25    1    3    3    0    0  0.23807813487E+02  0.24154366182E+02 -0.12612624496E+03  0.18084685000E+03  0.12509000000E+03 0.  0.
<mgrwt>
<rscale>  2 0.46246537E+03</rscale>
<asrwt>0</asrwt>
<pdfrwt beam="1">  1       21 0.16810269E-01 0.46246537E+03</pdfrwt>
<pdfrwt beam="2">  1       21 0.68786936E-01 0.46246537E+03</pdfrwt>
<totfact> 0.56393645E+04</totfact>
</mgrwt>
</event>
<event>
 6    0  0.1572624E-007  0.4581817E+03  0.7546771E-02  0.1025310E+00
         21   -1    0    0  502  501  0.00000000000E+00  0.00000000000E+00  0.28665230161E+03  0.28665230161E+03  0.00000000000E+00 0.  1.
         21   -1    0    0  501  502 -0.00000000000E+00 -0.00000000000E+00 -0.18308810085E+03  0.18308810085E+03  0.00000000000E+00 0.  1.
      99926    2    1    2    0    0 -0.71054273576E-14  0.00000000000E+00  0.10356420076E+03  0.46974040246E+03  0.45818173472E+03 0.  0.
         25    1    3    3    0    0 -0.62663115684E+02  0.58078996907E+02  0.61194493719E+02  0.16337720193E+03  0.12509000000E+03 0.  0.
         25    1    3    3    0    0  0.10314527605E+03 -0.46349113148E+02  0.44305818899E+02  0.17434936751E+03  0.12509000000E+03 0.  0.
         25    1    3    3    0    0 -0.40482160369E+02 -0.11729883759E+02 -0.19361118613E+01  0.13201383303E+03  0.12509000000E+03 0.  0.
<mgrwt>
<rscale>  2 0.45818173E+03</rscale>
<asrwt>0</asrwt>
<pdfrwt beam="1">  1       21 0.42154750E-01 0.45818173E+03</pdfrwt>
<pdfrwt beam="2">  1       21 0.26924721E-01 0.45818173E+03</pdfrwt>
<totfact> 0.65779386E+04</totfact>
</mgrwt>
</event>
<event>
 6    0  0.1572624E-007  0.4546036E+03  0.7546771E-02  0.1026358E+00
         21   -1    0    0  502  501  0.00000000000E+00  0.00000000000E+00  0.20968194460E+03  0.20968194460E+03  0.00000000000E+00 0.  1.
         21   -1    0    0  501  502 -0.00000000000E+00 -0.00000000000E+00 -0.24640230912E+03  0.24640230912E+03  0.00000000000E+00 0.  1.
      99926    2    1    2    0    0  0.14210854715E-13 -0.35527136788E-14 -0.36720364523E+02  0.45608425372E+03  0.45460363100E+03 0.  0.
         25    1    3    3    0    0  0.33455458562E+02 -0.22891760555E+02  0.41237612395E+02  0.13780910414E+03  0.12509000000E+03 0.  0.
         25    1    3    3    0    0 -0.10397849067E+03 -0.28630216069E+01 -0.41512557081E+02  0.16790033922E+03  0.12509000000E+03 0.  0.
         25    1    3    3    0    0  0.70523032110E+02  0.25754782162E+02 -0.36445419837E+02  0.15037481035E+03  0.12509000000E+03 0.  0.
<mgrwt>
<rscale>  2 0.45460363E+03</rscale>
<asrwt>0</asrwt>
<pdfrwt beam="1">  1       21 0.30835580E-01 0.45460363E+03</pdfrwt>
<pdfrwt beam="2">  1       21 0.36235633E-01 0.45460363E+03</pdfrwt>
<totfact> 0.68683420E+04</totfact>
</mgrwt>
</event>
<event>
 6    0  0.1572624E-007  0.4913944E+03  0.7546771E-02  0.1016050E+00
         21   -1    0    0  502  501  0.00000000000E+00  0.00000000000E+00  0.18073766898E+03  0.18073766898E+03  0.00000000000E+00 0.  1.
         21   -1    0    0  501  502 -0.00000000000E+00 -0.00000000000E+00 -0.33400405633E+03  0.33400405633E+03  0.00000000000E+00 0.  1.
      99926    2    1    2    0    0  0.00000000000E+00 -0.14210854715E-13 -0.15326638735E+03  0.51474172531E+03  0.49139440197E+03 0.  0.
         25    1    3    3    0    0  0.29414554179E+02 -0.38229285240E+02  0.12105048181E+02  0.13461327772E+03  0.12509000000E+03 0.  0.
         25    1    3    3    0    0 -0.82602565718E+02 -0.72908534588E+02 -0.80641559729E+02  0.18517399260E+03  0.12509000000E+03 0.  0.
         25    1    3    3    0    0  0.53188011538E+02  0.11113781983E+03 -0.84729875799E+02  0.19495445499E+03  0.12509000000E+03 0.  0.
<mgrwt>
<rscale>  2 0.49139440E+03</rscale>
<asrwt>0</asrwt>
<pdfrwt beam="1">  1       21 0.26579069E-01 0.49139440E+03</pdfrwt>
<pdfrwt beam="2">  1       21 0.49118243E-01 0.49139440E+03</pdfrwt>
<totfact> 0.48610946E+04</totfact>
</mgrwt>
</event>
<event>
 6    0  0.1572624E-007  0.4886637E+03  0.7546771E-02  0.1016781E+00
         21   -1    0    0  502  501  0.00000000000E+00  0.00000000000E+00  0.27042130339E+03  0.27042130339E+03  0.00000000000E+00 0. -1.
         21   -1    0    0  501  502 -0.00000000000E+00 -0.00000000000E+00 -0.22075941172E+03  0.22075941172E+03  0.00000000000E+00 0. -1.
      99926    2    1    2    0    0  0.44408920985E-15  0.35527136788E-14  0.49661891664E+02  0.49118071511E+03  0.48866367924E+03 0.  0.
         25    1    3    3    0    0  0.57382387631E+02 -0.81561949730E+02 -0.22072510993E+02  0.16149239578E+03  0.12509000000E+03 0.  0.
         25    1    3    3    0    0  0.28618649662E+01  0.20332520176E+02  0.11578200886E+03  0.17168163362E+03  0.12509000000E+03 0.  0.
         25    1    3    3    0    0 -0.60244252598E+02  0.61229429554E+02 -0.44047606203E+02  0.15800668570E+03  0.12509000000E+03 0.  0.
<mgrwt>
<rscale>  2 0.48866368E+03</rscale>
<asrwt>0</asrwt>
<pdfrwt beam="1">  1       21 0.39767839E-01 0.48866368E+03</pdfrwt>
<pdfrwt beam="2">  1       21 0.32464620E-01 0.48866368E+03</pdfrwt>
<totfact> 0.50872048E+04</totfact>
</mgrwt>
</event>
<event>
 6    0  0.1572624E-007  0.4578403E+03  0.7546771E-02  0.1025409E+00
         21   -1    0    0  502  501  0.00000000000E+00  0.00000000000E+00  0.18077160666E+02  0.18077160666E+02  0.00000000000E+00 0. -1.
         21   -1    0    0  501  502 -0.00000000000E+00 -0.00000000000E+00 -0.28989306279E+04  0.28989306279E+04  0.00000000000E+00 0. -1.
      99926    2    1    2    0    0  0.00000000000E+00  0.00000000000E+00 -0.28808534672E+04  0.29170077886E+04  0.45784029845E+03 0.  0.
         25    1    3    3    0    0  0.92047136842E+02  0.86532206881E+01 -0.69067998885E+03  0.70797874878E+03  0.12509000000E+03 0.  0.
         25    1    3    3    0    0 -0.33085658286E+02 -0.55780888732E+02 -0.11676723582E+04  0.11761430238E+04  0.12509000000E+03 0.  0.
         25    1    3    3    0    0 -0.58961478556E+02  0.47127668044E+02 -0.10225011202E+04  0.10328860159E+04  0.12509000000E+03 0.  0.
<mgrwt>
<rscale>  2 0.45784030E+03</rscale>
<asrwt>0</asrwt>
<pdfrwt beam="1">  1       21 0.26584053E-02 0.45784030E+03</pdfrwt>
<pdfrwt beam="2">  1       21 0.42631344E+00 0.45784030E+03</pdfrwt>
<totfact> 0.36550492E+03</totfact>
</mgrwt>
</event>
<event>
 6    0  0.1572624E-007  0.4557330E+03  0.7546771E-02  0.1026026E+00
         21   -1    0    0  502  501  0.00000000000E+00  0.00000000000E+00  0.27286601164E+02  0.27286601164E+02  0.00000000000E+00 0.  1.
         21   -1    0    0  501  502 -0.00000000000E+00 -0.00000000000E+00 -0.19028802270E+04  0.19028802270E+04  0.00000000000E+00 0.  1.
      99926    2    1    2    0    0  0.00000000000E+00  0.00000000000E+00 -0.18755936259E+04  0.19301668282E+04  0.45573296487E+03 0.  0.
         25    1    3    3    0    0  0.11472330731E+02 -0.19026686121E+02 -0.39349497338E+03  0.41349659168E+03  0.12509000000E+03 0.  0.
         25    1    3    3    0    0  0.50606682736E+02  0.44731946906E+02 -0.38475375029E+03  0.41017671786E+03  0.12509000000E+03 0.  0.
         25    1    3    3    0    0 -0.62079013467E+02 -0.25705260786E+02 -0.10973449022E+04  0.11064935187E+04  0.12509000000E+03 0.  0.
<mgrwt>
<rscale>  2 0.45573296E+03</rscale>
<asrwt>0</asrwt>
<pdfrwt beam="1">  1       21 0.40127356E-02 0.45573296E+03</pdfrwt>
<pdfrwt beam="2">  1       21 0.27983532E+00 0.45573296E+03</pdfrwt>
<totfact> 0.14799264E+04</totfact>
</mgrwt>
</event>
<event>
 6    0  0.1572624E-007  0.4544009E+03  0.7546771E-02  0.1026418E+00
         21   -1    0    0  502  501  0.00000000000E+00  0.00000000000E+00  0.28761807435E+04  0.28761807435E+04  0.00000000000E+00 0. -1.
         21   -1    0    0  501  502 -0.00000000000E+00 -0.00000000000E+00 -0.17947425279E+02  0.17947425279E+02  0.00000000000E+00 0. -1.
      99926    2    1    2    0    0 -0.71054273576E-14 -0.14210854715E-13  0.28582333182E+04  0.28941281688E+04  0.45440087581E+03 0.  0.
         25    1    3    3    0    0 -0.55761092280E+02  0.83333314281E+02  0.13476378435E+04  0.13571400098E+04  0.12509000000E+03 0.  0.
         25    1    3    3    0    0  0.81282783385E+01 -0.14727562780E+01  0.59737485077E+03  0.61038713810E+03  0.12509000000E+03 0.  0.
         25    1    3    3    0    0  0.47632813942E+02 -0.81860558003E+02  0.91322062394E+03  0.92660102094E+03  0.12509000000E+03 0.  0.
<mgrwt>
<rscale>  2 0.45440088E+03</rscale>
<asrwt>0</asrwt>
<pdfrwt beam="1">  1       21 0.42296744E+00 0.45440088E+03</pdfrwt>
<pdfrwt beam="2">  1       21 0.26393292E-02 0.45440088E+03</pdfrwt>
<totfact> 0.38992844E+03</totfact>
</mgrwt>
</event>
<event>
 6    0  0.1572624E-007  0.4423250E+03  0.7546771E-02  0.1030036E+00
         21   -1    0    0  502  501  0.00000000000E+00  0.00000000000E+00  0.45913196295E+03  0.45913196295E+03  0.00000000000E+00 0.  1.
         21   -1    0    0  501  502 -0.00000000000E+00 -0.00000000000E+00 -0.10653333183E+03  0.10653333183E+03  0.00000000000E+00 0.  1.
      99926    2    1    2    0    0  0.00000000000E+00  0.71054273576E-14  0.35259863112E+03  0.56566529478E+03  0.44232502873E+03 0.  0.
         25    1    3    3    0    0 -0.38193153523E+02  0.25636935258E+01  0.23642876989E+02  0.13293525955E+03  0.12509000000E+03 0.  0.
         25    1    3    3    0    0 -0.19236494830E+02  0.46128286872E+02  0.14579095520E+03  0.19849527023E+03  0.12509000000E+03 0.  0.
         25    1    3    3    0    0  0.57429648353E+02 -0.48691980397E+02  0.18316479893E+03  0.23423476500E+03  0.12509000000E+03 0.  0.
<mgrwt>
<rscale>  2 0.44232503E+03</rscale>
<asrwt>0</asrwt>
<pdfrwt beam="1">  1       21 0.67519405E-01 0.44232503E+03</pdfrwt>
<pdfrwt beam="2">  1       21 0.15666667E-01 0.44232503E+03</pdfrwt>
<totfact> 0.67343992E+04</totfact>
</mgrwt>
</event>
<event>
 6    0  0.1572624E-007  0.4494968E+03  0.7546771E-02  0.1027872E+00
         21   -1    0    0  502  501  0.00000000000E+00  0.00000000000E+00  0.17369421665E+03  0.17369421665E+03  0.00000000000E+00 0.  1.
         21   -1    0    0  501  502 -0.00000000000E+00 -0.00000000000E+00 -0.29080894980E+03  0.29080894980E+03  0.00000000000E+00 0.  1.
      99926    2    1    2    0    0  0.00000000000E+00  0.00000000000E+00 -0.11711473315E+03  0.46450316645E+03  0.44949675296E+03 0.  0.
         25    1    3    3    0    0 -0.37620719394E+02  0.41013239214E+02 -0.26351635062E+02  0.13942496580E+03  0.12509000000E+03 0.  0.
         25    1    3    3    0    0  0.81625688471E+02 -0.48604583468E+02  0.11432521798E+02  0.15749085436E+03  0.12509000000E+03 0.  0.
         25    1    3    3    0    0 -0.44004969077E+02  0.75913442536E+01 -0.10219561989E+03  0.16758734629E+03  0.12509000000E+03 0.  0.
<mgrwt>
<rscale>  2 0.44949675E+03</rscale>
<asrwt>0</asrwt>
<pdfrwt beam="1">  1       21 0.25543267E-01 0.44949675E+03</pdfrwt>
<pdfrwt beam="2">  1       21 0.42766022E-01 0.44949675E+03</pdfrwt>
<totfact> 0.70891371E+04</totfact>
</mgrwt>
</event>
<event>
 6    0  0.1572624E-007  0.4721510E+03  0.7546771E-02  0.1021315E+00
         21   -1    0    0  502  501  0.00000000000E+00  0.00000000000E+00  0.20986185299E+03  0.20986185299E+03  0.00000000000E+00 0.  1.
         21   -1    0    0  501  502 -0.00000000000E+00 -0.00000000000E+00 -0.26556344491E+03  0.26556344491E+03  0.00000000000E+00 0.  1.
      99926    2    1    2    0    0 -0.44408920985E-14 -0.17763568394E-14 -0.55701591929E+02  0.47542529790E+03  0.47215097854E+03 0.  0.
         25    1    3    3    0    0 -0.55284033309E+01 -0.14309342049E+02  0.68892136923E+02  0.14362783554E+03  0.12509000000E+03 0.  0.
         25    1    3    3    0    0 -0.36232265853E+02  0.86245109318E+02 -0.77489053623E+02  0.17436472551E+03  0.12509000000E+03 0.  0.
         25    1    3    3    0    0  0.41760669184E+02 -0.71935767268E+02 -0.47104675229E+02  0.15743273685E+03  0.12509000000E+03 0.  0.
<mgrwt>
<rscale>  2 0.47215098E+03</rscale>
<asrwt>0</asrwt>
<pdfrwt beam="1">  1       21 0.30862038E-01 0.47215098E+03</pdfrwt>
<pdfrwt beam="2">  1       21 0.39053447E-01 0.47215098E+03</pdfrwt>
<totfact> 0.58631302E+04</totfact>
</mgrwt>
</event>
<event>
 6    0  0.1572624E-007  0.4590779E+03  0.7546771E-02  0.1025049E+00
         21   -1    0    0  502  501  0.00000000000E+00  0.00000000000E+00  0.11498076355E+03  0.11498076355E+03  0.00000000000E+00 0. -1.
         21   -1    0    0  501  502 -0.00000000000E+00 -0.00000000000E+00 -0.45823432252E+03  0.45823432252E+03  0.00000000000E+00 0. -1.
      99926    2    1    2    0    0 -0.71054273576E-14 -0.35527136788E-14 -0.34325355897E+03  0.57321508607E+03  0.45907791185E+03 0.  0.
         25    1    3    3    0    0  0.99166303499E+02 -0.10989720319E+02 -0.17699971863E+03  0.23860246897E+03  0.12509000000E+03 0.  0.
         25    1    3    3    0    0 -0.48922797941E+02  0.42482275949E+02 -0.38025430728E+02  0.14591650150E+03  0.12509000000E+03 0.  0.
         25    1    3    3    0    0 -0.50243505558E+02 -0.31492555630E+02 -0.12822840961E+03  0.18869611560E+03  0.12509000000E+03 0.  0.
<mgrwt>
<rscale>  2 0.45907791E+03</rscale>
<asrwt>0</asrwt>
<pdfrwt beam="1">  1       21 0.16908936E-01 0.45907791E+03</pdfrwt>
<pdfrwt beam="2">  1       21 0.67387400E-01 0.45907791E+03</pdfrwt>
<totfact> 0.58450344E+04</totfact>
</mgrwt>
</event>
<event>
 6    0  0.1572624E-007  0.4625990E+03  0.7546771E-02  0.1024030E+00
         21   -1    0    0  502  501  0.00000000000E+00  0.00000000000E+00  0.43902106942E+03  0.43902106942E+03  0.00000000000E+00 0.  1.
         21   -1    0    0  501  502 -0.00000000000E+00 -0.00000000000E+00 -0.12186081669E+03  0.12186081669E+03  0.00000000000E+00 0.  1.
      99926    2    1    2    0    0  0.71054273576E-14 -0.44408920985E-15  0.31716025273E+03  0.56088188612E+03  0.46259903184E+03 0.  0.
         25    1    3    3    0    0 -0.90255596124E+02 -0.39403116271E+02  0.20715617734E+03  0.26126589543E+03  0.12509000000E+03 0.  0.
         25    1    3    3    0    0  0.54776039553E+02  0.42307402448E+02  0.27454749804E+02  0.14557335676E+03  0.12509000000E+03 0.  0.
         25    1    3    3    0    0  0.35479556571E+02 -0.29042861776E+01  0.82549325585E+02  0.15404263393E+03  0.12509000000E+03 0.  0.
<mgrwt>
<rscale>  2 0.46259903E+03</rscale>
<asrwt>0</asrwt>
<pdfrwt beam="1">  1       21 0.64561922E-01 0.46259903E+03</pdfrwt>
<pdfrwt beam="2">  1       21 0.17920708E-01 0.46259903E+03</pdfrwt>
<totfact> 0.57611359E+04</totfact>
</mgrwt>
</event>
<event>
 6    0  0.1572624E-007  0.4561326E+03  0.7546771E-02  0.1025909E+00
         21   -1    0    0  502  501  0.00000000000E+00  0.00000000000E+00  0.27557666108E+03  0.27557666108E+03  0.00000000000E+00 0.  1.
         21   -1    0    0  501  502 -0.00000000000E+00 -0.00000000000E+00 -0.18874692526E+03  0.18874692526E+03  0.00000000000E+00 0.  1.
      99926    2    1    2    0    0 -0.71054273576E-14  0.00000000000E+00  0.86829735824E+02  0.46432358634E+03  0.45613264497E+03 0.  0.
         25    1    3    3    0    0 -0.71492228333E+02 -0.44205521295E+02  0.62790716740E+01  0.15083832957E+03  0.12509000000E+03 0.  0.
         25    1    3    3    0    0  0.27088715988E+02 -0.51012290903E+02  0.53996826014E+02  0.14798384262E+03  0.12509000000E+03 0.  0.
         25    1    3    3    0    0  0.44403512345E+02  0.95217812197E+02  0.26553838136E+02  0.16550141416E+03  0.12509000000E+03 0.  0.
<mgrwt>
<rscale>  2 0.45613264E+03</rscale>
<asrwt>0</asrwt>
<pdfrwt beam="1">  1       21 0.40525979E-01 0.45613264E+03</pdfrwt>
<pdfrwt beam="2">  1       21 0.27756901E-01 0.45613264E+03</pdfrwt>
<totfact> 0.67252849E+04</totfact>
</mgrwt>
</event>
<event>
 6    0  0.1572624E-007  0.4580134E+03  0.7546771E-02  0.1025359E+00
         21   -1    0    0  502  501  0.00000000000E+00  0.00000000000E+00  0.36518675335E+03  0.36518675335E+03  0.00000000000E+00 0. -1.
         21   -1    0    0  501  502 -0.00000000000E+00 -0.00000000000E+00 -0.14360892563E+03  0.14360892563E+03  0.00000000000E+00 0. -1.
      99926    2    1    2    0    0  0.00000000000E+00  0.00000000000E+00  0.22157782771E+03  0.50879567898E+03  0.45801343781E+03 0.  0.
         25    1    3    3    0    0  0.74704741743E+02  0.64702359655E+02  0.47285949400E+02  0.16628488474E+03  0.12509000000E+03 0.  0.
         25    1    3    3    0    0  0.22550376770E+02 -0.25453787175E+02  0.96971569785E+02  0.16188702301E+03  0.12509000000E+03 0.  0.
         25    1    3    3    0    0 -0.97255118513E+02 -0.39248572480E+02  0.77320308528E+02  0.18062377122E+03  0.12509000000E+03 0.  0.
<mgrwt>
<rscale>  2 0.45801344E+03</rscale>
<asrwt>0</asrwt>
<pdfrwt beam="1">  1       21 0.53703934E-01 0.45801344E+03</pdfrwt>
<pdfrwt beam="2">  1       21 0.21118960E-01 0.45801344E+03</pdfrwt>
<totfact> 0.63133498E+04</totfact>
</mgrwt>
</event>
<event>
 6    0  0.1572624E-007  0.4529113E+03  0.7546771E-02  0.1026857E+00
         21   -1    0    0  502  501  0.00000000000E+00  0.00000000000E+00  0.23067553891E+03  0.23067553891E+03  0.00000000000E+00 0.  1.
         21   -1    0    0  501  502 -0.00000000000E+00 -0.00000000000E+00 -0.22231295413E+03  0.22231295413E+03  0.00000000000E+00 0.  1.
      99926    2    1    2    0    0  0.71054273576E-14  0.00000000000E+00  0.83625847826E+01  0.45298849304E+03  0.45291129596E+03 0.  0.
         25    1    3    3    0    0 -0.41166991853E+02  0.45089771822E+01  0.42686599180E+02  0.13850886594E+03  0.12509000000E+03 0.  0.
         25    1    3    3    0    0 -0.67654172357E+02 -0.19495134492E+02  0.42002233234E+01  0.14360465620E+03  0.12509000000E+03 0.  0.
         25    1    3    3    0    0  0.10882116421E+03  0.14986157310E+02 -0.38524237721E+02  0.17087497091E+03  0.12509000000E+03 0.  0.
<mgrwt>
<rscale>  2 0.45291130E+03</rscale>
<asrwt>0</asrwt>
<pdfrwt beam="1">  1       21 0.33922873E-01 0.45291130E+03</pdfrwt>
<pdfrwt beam="2">  1       21 0.32693081E-01 0.45291130E+03</pdfrwt>
<totfact> 0.69850270E+04</totfact>
</mgrwt>
</event>
<event>
 6    0  0.1572624E-007  0.4776313E+03  0.7546771E-02  0.1019788E+00
         21   -1    0    0  502  501  0.00000000000E+00  0.00000000000E+00  0.14033979713E+03  0.14033979713E+03  0.00000000000E+00 0. -1.
         21   -1    0    0  501  502 -0.00000000000E+00 -0.00000000000E+00 -0.40639161117E+03  0.40639161117E+03  0.00000000000E+00 0. -1.
      99926    2    1    2    0    0  0.00000000000E+00  0.00000000000E+00 -0.26605181404E+03  0.54673140830E+03  0.47763130662E+03 0.  0.
         25    1    3    3    0    0 -0.50182805542E+02 -0.60524875026E+02 -0.45181926995E+02  0.15450077377E+03  0.12509000000E+03 0.  0.
         25    1    3    3    0    0 -0.27985944718E+01 -0.29288337587E+02 -0.18536744864E+03  0.22555318212E+03  0.12509000000E+03 0.  0.
         25    1    3    3    0    0  0.52981400013E+02  0.89813212613E+02 -0.35502438410E+02  0.16667745241E+03  0.12509000000E+03 0.  0.
<mgrwt>
<rscale>  2 0.47763131E+03</rscale>
<asrwt>0</asrwt>
<pdfrwt beam="1">  1       21 0.20638206E-01 0.47763131E+03</pdfrwt>
<pdfrwt beam="2">  1       21 0.59763471E-01 0.47763131E+03</pdfrwt>
<totfact> 0.52097517E+04</totfact>
</mgrwt>
</event>
<event>
 6    0  0.1572624E-007  0.4547651E+03  0.7546771E-02  0.1026310E+00
         21   -1    0    0  502  501  0.00000000000E+00  0.00000000000E+00  0.51350439010E+02  0.51350439010E+02  0.00000000000E+00 0.  1.
         21   -1    0    0  501  502 -0.00000000000E+00 -0.00000000000E+00 -0.10068624755E+04  0.10068624755E+04  0.00000000000E+00 0.  1.
      99926    2    1    2    0    0  0.71054273576E-14  0.00000000000E+00 -0.95551203648E+03  0.10582129145E+04  0.45476512680E+03 0.  0.
         25    1    3    3    0    0  0.67106012382E+02  0.29536379376E+02 -0.34643216265E+03  0.37555075027E+03  0.12509000000E+03 0.  0.
         25    1    3    3    0    0 -0.10741184564E+03  0.12700721694E+02 -0.27078476937E+03  0.31728616790E+03  0.12509000000E+03 0.  0.
         25    1    3    3    0    0  0.40305833257E+02 -0.42237101071E+02 -0.33829510446E+03  0.36537599634E+03  0.12509000000E+03 0.  0.
<mgrwt>
<rscale>  2 0.45476513E+03</rscale>
<asrwt>0</asrwt>
<pdfrwt beam="1">  1       21 0.75515364E-02 0.45476513E+03</pdfrwt>
<pdfrwt beam="2">  1       21 0.14806799E+00 0.45476513E+03</pdfrwt>
<totfact> 0.37045333E+04</totfact>
</mgrwt>
</event>
<event>
 6    0  0.1572624E-007  0.4732488E+03  0.7546771E-02  0.1021007E+00
         21   -1    0    0  502  501  0.00000000000E+00  0.00000000000E+00  0.13697449323E+04  0.13697449323E+04  0.00000000000E+00 0. -1.
         21   -1    0    0  501  502 -0.00000000000E+00 -0.00000000000E+00 -0.40877033351E+02  0.40877033351E+02  0.00000000000E+00 0. -1.
      99926    2    1    2    0    0  0.00000000000E+00  0.00000000000E+00  0.13288678989E+04  0.14106219656E+04  0.47324881100E+03 0.  0.
         25    1    3    3    0    0 -0.30313255729E+02 -0.73395769277E+02  0.84027121168E+03  0.85323446350E+03  0.12509000000E+03 0.  0.
         25    1    3    3    0    0  0.10482853927E+02  0.64842430805E+02  0.26033639741E+03  0.29620428588E+03  0.12509000000E+03 0.  0.
         25    1    3    3    0    0  0.19830401802E+02  0.85533384724E+01  0.22826028986E+03  0.26118321627E+03  0.12509000000E+03 0.  0.
<mgrwt>
<rscale>  2 0.47324881E+03</rscale>
<asrwt>0</asrwt>
<pdfrwt beam="1">  1       21 0.20143305E+00 0.47324881E+03</pdfrwt>
<pdfrwt beam="2">  1       21 0.60113293E-02 0.47324881E+03</pdfrwt>
<totfact> 0.22662231E+04</totfact>
</mgrwt>
</event>
<event>
 6    0  0.1572624E-007  0.4369228E+03  0.7546771E-02  0.1031695E+00
         21   -1    0    0  502  501  0.00000000000E+00  0.00000000000E+00  0.17510542971E+04  0.17510542971E+04  0.00000000000E+00 0.  1.
         21   -1    0    0  501  502 -0.00000000000E+00 -0.00000000000E+00 -0.27255228652E+02  0.27255228652E+02  0.00000000000E+00 0.  1.
      99926    2    1    2    0    0 -0.35527136788E-14  0.17763568394E-14  0.17237990685E+04  0.17783095258E+04  0.43692280897E+03 0.  0.
         25    1    3    3    0    0  0.58425847810E+02  0.59191196619E+02  0.74002787869E+03  0.75511982280E+03  0.12509000000E+03 0.  0.
         25    1    3    3    0    0  0.14138947127E+02 -0.95336003019E+01  0.50801167986E+03  0.52346363229E+03  0.12509000000E+03 0.  0.
         25    1    3    3    0    0 -0.72564794936E+02 -0.49657596317E+02  0.47575950994E+03  0.49972607070E+03  0.12509000000E+03 0.  0.
<mgrwt>
<rscale>  2 0.43692281E+03</rscale>
<asrwt>0</asrwt>
<pdfrwt beam="1">  1       21 0.25750791E+00 0.43692281E+03</pdfrwt>
<pdfrwt beam="2">  1       21 0.40081231E-02 0.43692281E+03</pdfrwt>
<totfact> 0.20394943E+04</totfact>
</mgrwt>
</event>
<event>
 6    0  0.1572624E-007  0.4321270E+03  0.7546771E-02  0.1033190E+00
         21   -1    0    0  502  501  0.00000000000E+00  0.00000000000E+00  0.37592731348E+02  0.37592731348E+02  0.00000000000E+00 0.  1.
         21   -1    0    0  501  502 -0.00000000000E+00 -0.00000000000E+00 -0.12418208890E+04  0.12418208890E+04  0.00000000000E+00 0.  1.
      99926    2    1    2    0    0 -0.53290705182E-14 -0.71054273576E-14 -0.12042281577E+04  0.12794136204E+04  0.43212701403E+03 0.  0.
         25    1    3    3    0    0  0.63404646791E+02 -0.26829452722E+02 -0.52265923456E+03  0.54181191601E+03  0.12509000000E+03 0.  0.
         25    1    3    3    0    0 -0.14826760728E+02  0.62650816091E+02 -0.39111906837E+03  0.41565200749E+03  0.12509000000E+03 0.  0.
         25    1    3    3    0    0 -0.48577886063E+02 -0.35821363369E+02 -0.29044985477E+03  0.32194969688E+03  0.12509000000E+03 0.  0.
<mgrwt>
<rscale>  2 0.43212701E+03</rscale>
<asrwt>0</asrwt>
<pdfrwt beam="1">  1       21 0.55283440E-02 0.43212701E+03</pdfrwt>
<pdfrwt beam="2">  1       21 0.18262068E+00 0.43212701E+03</pdfrwt>
<totfact> 0.35652053E+04</totfact>
</mgrwt>
</event>
<event>
 6    0  0.1572624E-007  0.4510732E+03  0.7546771E-02  0.1027402E+00
         21   -1    0    0  502  501  0.00000000000E+00  0.00000000000E+00  0.53855342367E+03  0.53855342367E+03  0.00000000000E+00 0.  1.
         21   -1    0    0  501  502 -0.00000000000E+00 -0.00000000000E+00 -0.94450711116E+02  0.94450711116E+02  0.00000000000E+00 0.  1.
      99926    2    1    2    0    0  0.00000000000E+00  0.88817841970E-14  0.44410271255E+03  0.63300413479E+03  0.45107318182E+03 0.  0.
         25    1    3    3    0    0 -0.17708844950E+02 -0.80721517074E+02  0.86248843402E+02  0.17296224327E+03  0.12509000000E+03 0.  0.
         25    1    3    3    0    0 -0.38057007659E+02  0.69207836589E+01  0.19442445420E+03  0.23440266544E+03  0.12509000000E+03 0.  0.
         25    1    3    3    0    0  0.55765852609E+02  0.73800733416E+02  0.16342941495E+03  0.22563922607E+03  0.12509000000E+03 0.  0.
<mgrwt>
<rscale>  2 0.45107318E+03</rscale>
<asrwt>0</asrwt>
<pdfrwt beam="1">  1       21 0.79199031E-01 0.45107318E+03</pdfrwt>
<pdfrwt beam="2">  1       21 0.13889811E-01 0.45107318E+03</pdfrwt>
<totfact> 0.58483098E+04</totfact>
</mgrwt>
</event>
<event>
 6    0  0.1572624E-007  0.4650080E+03  0.7546771E-02  0.1023339E+00
         21   -1    0    0  502  501  0.00000000000E+00  0.00000000000E+00  0.52345777405E+03  0.52345777405E+03  0.00000000000E+00 0.  1.
         21   -1    0    0  501  502 -0.00000000000E+00 -0.00000000000E+00 -0.10327120760E+03  0.10327120760E+03  0.00000000000E+00 0.  1.
      99926    2    1    2    0    0  0.00000000000E+00  0.00000000000E+00  0.42018656645E+03  0.62672898165E+03  0.46500802769E+03 0.  0.
         25    1    3    3    0    0 -0.64419101496E+02 -0.87149262795E+02  0.20952402963E+03  0.26700681964E+03  0.12509000000E+03 0.  0.
         25    1    3    3    0    0  0.64332283817E+02  0.79210395181E+02  0.15043794918E+03  0.22066267038E+03  0.12509000000E+03 0.  0.
         25    1    3    3    0    0  0.86817679593E-01  0.79388676139E+01  0.60224587647E+02  0.13905949163E+03  0.12509000000E+03 0.  0.
<mgrwt>
<rscale>  2 0.46500803E+03</rscale>
<asrwt>0</asrwt>
<pdfrwt beam="1">  1       21 0.76979083E-01 0.46500803E+03</pdfrwt>
<pdfrwt beam="2">  1       21 0.15186943E-01 0.46500803E+03</pdfrwt>
<totfact> 0.52767639E+04</totfact>
</mgrwt>
</event>
<event>
 6    0  0.1572624E-007  0.4567260E+03  0.7546771E-02  0.1025735E+00
         21   -1    0    0  502  501  0.00000000000E+00  0.00000000000E+00  0.15862260073E+04  0.15862260073E+04  0.00000000000E+00 0.  1.
         21   -1    0    0  501  502 -0.00000000000E+00 -0.00000000000E+00 -0.32876570276E+02  0.32876570276E+02  0.00000000000E+00 0.  1.
      99926    2    1    2    0    0 -0.71054273576E-14  0.71054273576E-14  0.15533494370E+04  0.16191025775E+04  0.45672604831E+03 0.  0.
         25    1    3    3    0    0 -0.74283377281E+02 -0.70395281764E+02  0.56612921053E+03  0.58874723519E+03  0.12509000000E+03 0.  0.
         25    1    3    3    0    0  0.17429344188E+02  0.90593851042E+02  0.55651569117E+03  0.57781333535E+03  0.12509000000E+03 0.  0.
         25    1    3    3    0    0  0.56854033093E+02 -0.20198569279E+02  0.43070453530E+03  0.45254200700E+03  0.12509000000E+03 0.  0.
<mgrwt>
<rscale>  2 0.45672605E+03</rscale>
<asrwt>0</asrwt>
<pdfrwt beam="1">  1       21 0.23326848E+00 0.45672605E+03</pdfrwt>
<pdfrwt beam="2">  1       21 0.48347908E-02 0.45672605E+03</pdfrwt>
<totfact> 0.20722419E+04</totfact>
</mgrwt>
</event>
<event>
 6    0  0.1572624E-007  0.4499892E+03  0.7546771E-02  0.1027725E+00
         21   -1    0    0  502  501  0.00000000000E+00  0.00000000000E+00  0.18443852781E+03  0.18443852781E+03  0.00000000000E+00 0.  1.
         21   -1    0    0  501  502 -0.00000000000E+00 -0.00000000000E+00 -0.27446856863E+03  0.27446856863E+03  0.00000000000E+00 0.  1.
      99926    2    1    2    0    0  0.00000000000E+00 -0.79936057773E-14 -0.90030040822E+02  0.45890709644E+03  0.44998923866E+03 0.  0.
         25    1    3    3    0    0 -0.19737781506E+02  0.88233059790E+02 -0.17738690690E+02  0.15536029771E+03  0.12509000000E+03 0.  0.
         25    1    3    3    0    0  0.33943627986E+02 -0.82472049225E+02 -0.87187576919E+02  0.17664368218E+03  0.12509000000E+03 0.  0.
         25    1    3    3    0    0 -0.14205846481E+02 -0.57610105648E+01  0.14896226787E+02  0.12690311655E+03  0.12509000000E+03 0.  0.
<mgrwt>
<rscale>  2 0.44998924E+03</rscale>
<asrwt>0</asrwt>
<pdfrwt beam="1">  1       21 0.27123313E-01 0.44998924E+03</pdfrwt>
<pdfrwt beam="2">  1       21 0.40363025E-01 0.44998924E+03</pdfrwt>
<totfact> 0.71052920E+04</totfact>
</mgrwt>
</event>
<event>
 6    0  0.1572624E-007  0.4549102E+03  0.7546771E-02  0.1026268E+00
         21   -1    0    0  502  501  0.00000000000E+00  0.00000000000E+00  0.93282003302E+02  0.93282003302E+02  0.00000000000E+00 0.  1.
         21   -1    0    0  501  502 -0.00000000000E+00 -0.00000000000E+00 -0.55461732114E+03  0.55461732114E+03  0.00000000000E+00 0.  1.
      99926    2    1    2    0    0  0.00000000000E+00  0.17763568394E-14 -0.46133531783E+03  0.64789932444E+03  0.45491016600E+03 0.  0.
         25    1    3    3    0    0 -0.72196054795E+02  0.53158888405E+01 -0.12331073533E+03  0.18998309017E+03  0.12509000000E+03 0.  0.
         25    1    3    3    0    0  0.73645660207E+02 -0.61842642123E+02 -0.11208621814E+03  0.19354333894E+03  0.12509000000E+03 0.  0.
         25    1    3    3    0    0 -0.14496054118E+01  0.56526753283E+02 -0.22593836436E+03  0.26437289533E+03  0.12509000000E+03 0.  0.
<mgrwt>
<rscale>  2 0.45491017E+03</rscale>
<asrwt>0</asrwt>
<pdfrwt beam="1">  1       21 0.13717942E-01 0.45491017E+03</pdfrwt>
<pdfrwt beam="2">  1       21 0.81561371E-01 0.45491017E+03</pdfrwt>
<totfact> 0.55862253E+04</totfact>
</mgrwt>
</event>
<event>
 6    0  0.1572624E-007  0.4585041E+03  0.7546771E-02  0.1025216E+00
         21   -1    0    0  502  501  0.00000000000E+00  0.00000000000E+00  0.92533471247E+03  0.92533471247E+03  0.00000000000E+00 0. -1.
         21   -1    0    0  501  502 -0.00000000000E+00 -0.00000000000E+00 -0.56797288295E+02  0.56797288295E+02  0.00000000000E+00 0. -1.
      99926    2    1    2    0    0  0.88817841970E-15  0.14210854715E-13  0.86853742418E+03  0.98213200077E+03  0.45850410002E+03 0.  0.
         25    1    3    3    0    0  0.27953508685E+02 -0.11577965858E+02  0.25586045522E+03  0.28640448423E+03  0.12509000000E+03 0.  0.
         25    1    3    3    0    0 -0.23207682538E+02 -0.56821834896E+02  0.48386209325E+03  0.50352492573E+03  0.12509000000E+03 0.  0.
         25    1    3    3    0    0 -0.47458261474E+01  0.68399800754E+02  0.12881487571E+03  0.19220259081E+03  0.12509000000E+03 0.  0.
<mgrwt>
<rscale>  2 0.45850410E+03</rscale>
<asrwt>0</asrwt>
<pdfrwt beam="1">  1       21 0.13607863E+00 0.45850410E+03</pdfrwt>
<pdfrwt beam="2">  1       21 0.83525429E-02 0.45850410E+03</pdfrwt>
<totfact> 0.38792653E+04</totfact>
</mgrwt>
</event>
<event>
 6    0  0.1572624E-007  0.4540324E+03  0.7546771E-02  0.1026526E+00
         21   -1    0    0  502  501  0.00000000000E+00  0.00000000000E+00  0.10177256380E+03  0.10177256380E+03  0.00000000000E+00 0. -1.
         21   -1    0    0  501  502 -0.00000000000E+00 -0.00000000000E+00 -0.50638752014E+03  0.50638752014E+03  0.00000000000E+00 0. -1.
      99926    2    1    2    0    0  0.00000000000E+00  0.00000000000E+00 -0.40461495633E+03  0.60816008394E+03  0.45403240502E+03 0.  0.
         25    1    3    3    0    0  0.17288106257E+02  0.40608533708E+02 -0.37748243612E+02  0.13791435612E+03  0.12509000000E+03 0.  0.
         25    1    3    3    0    0 -0.18783603146E+02 -0.90920455846E+02 -0.23271513410E+03  0.28004141618E+03  0.12509000000E+03 0.  0.
         25    1    3    3    0    0  0.14954968900E+01  0.50311922137E+02 -0.13415157862E+03  0.19020431164E+03  0.12509000000E+03 0.  0.
<mgrwt>
<rscale>  2 0.45403241E+03</rscale>
<asrwt>0</asrwt>
<pdfrwt beam="1">  1       21 0.14966553E-01 0.45403241E+03</pdfrwt>
<pdfrwt beam="2">  1       21 0.74468755E-01 0.45403241E+03</pdfrwt>
<totfact> 0.58625597E+04</totfact>
</mgrwt>
</event>
<event>
 6    0  0.1572624E-007  0.4517159E+03  0.7546771E-02  0.1027212E+00
         21   -1    0    0  502  501  0.00000000000E+00  0.00000000000E+00  0.93761823351E+02  0.93761823351E+02  0.00000000000E+00 0.  1.
         21   -1    0    0  501  502 -0.00000000000E+00 -0.00000000000E+00 -0.54405751037E+03  0.54405751037E+03  0.00000000000E+00 0.  1.
      99926    2    1    2    0    0  0.17763568394E-14 -0.88817841970E-15 -0.45029568702E+03  0.63781933372E+03  0.45171594694E+03 0.  0.
         25    1    3    3    0    0  0.88202246977E+02 -0.31383873736E+02 -0.21109100682E+03  0.26262426613E+03  0.12509000000E+03 0.  0.
         25    1    3    3    0    0  0.10712725320E+02  0.69344633823E+01 -0.12672017252E+03  0.17851711260E+03  0.12509000000E+03 0.  0.
         25    1    3    3    0    0 -0.98914972296E+02  0.24449410354E+02 -0.11248450768E+03  0.19667795499E+03  0.12509000000E+03 0.  0.
<mgrwt>
<rscale>  2 0.45171595E+03</rscale>
<asrwt>0</asrwt>
<pdfrwt beam="1">  1       21 0.13788504E-01 0.45171595E+03</pdfrwt>
<pdfrwt beam="2">  1       21 0.80008456E-01 0.45171595E+03</pdfrwt>
<totfact> 0.57894680E+04</totfact>
</mgrwt>
</event>
<event>
 6    0  0.1572624E-007  0.4575694E+03  0.7546771E-02  0.1025489E+00
         21   -1    0    0  502  501  0.00000000000E+00  0.00000000000E+00  0.12226303460E+03  0.12226303460E+03  0.00000000000E+00 0. -1.
         21   -1    0    0  501  502 -0.00000000000E+00 -0.00000000000E+00 -0.42811335791E+03  0.42811335791E+03  0.00000000000E+00 0. -1.
      99926    2    1    2    0    0  0.71054273576E-14 -0.71054273576E-14 -0.30585032331E+03  0.55037639251E+03  0.45756939711E+03 0.  0.
         25    1    3    3    0    0 -0.26228277448E+02  0.11282213932E+03 -0.97682453881E+02  0.19648442064E+03  0.12509000000E+03 0.  0.
         25    1    3    3    0    0  0.44345552573E+02 -0.55923433209E+02 -0.78204638939E+02  0.16388237265E+03  0.12509000000E+03 0.  0.
         25    1    3    3    0    0 -0.18117275125E+02 -0.56898706115E+02 -0.12996323049E+03  0.19000959922E+03  0.12509000000E+03 0.  0.
<mgrwt>
<rscale>  2 0.45756940E+03</rscale>
<asrwt>0</asrwt>
<pdfrwt beam="1">  1       21 0.17979858E-01 0.45756940E+03</pdfrwt>
<pdfrwt beam="2">  1       21 0.62957846E-01 0.45756940E+03</pdfrwt>
<totfact> 0.60600291E+04</totfact>
</mgrwt>
</event>
<event>
 6    0  0.1572624E-007  0.4476296E+03  0.7546771E-02  0.1028431E+00
         21   -1    0    0  502  501  0.00000000000E+00  0.00000000000E+00  0.15682057059E+04  0.15682057059E+04  0.00000000000E+00 0. -1.
         21   -1    0    0  501  502 -0.00000000000E+00 -0.00000000000E+00 -0.31942915276E+02  0.31942915276E+02  0.00000000000E+00 0. -1.
      99926    2    1    2    0    0  0.00000000000E+00 -0.17763568394E-14  0.15362627906E+04  0.16001486212E+04  0.44762958793E+03 0.  0.
         25    1    3    3    0    0 -0.34409772317E+02  0.30596609735E+02  0.76736185347E+03  0.77885294326E+03  0.12509000000E+03 0.  0.
         25    1    3    3    0    0  0.68842740154E+02 -0.37383628940E+02  0.29434735399E+03  0.32927910879E+03  0.12509000000E+03 0.  0.
         25    1    3    3    0    0 -0.34432967836E+02  0.67870192053E+01  0.47455358315E+03  0.49201656911E+03  0.12509000000E+03 0.  0.
<mgrwt>
<rscale>  2 0.44762959E+03</rscale>
<asrwt>0</asrwt>
<pdfrwt beam="1">  1       21 0.23061843E+00 0.44762959E+03</pdfrwt>
<pdfrwt beam="2">  1       21 0.46974886E-02 0.44762959E+03</pdfrwt>
<totfact> 0.22697951E+04</totfact>
</mgrwt>
</event>
<event>
 6    0  0.1572624E-007  0.4565516E+03  0.7546771E-02  0.1025786E+00
         21   -1    0    0  502  501  0.00000000000E+00  0.00000000000E+00  0.14292770493E+04  0.14292770493E+04  0.00000000000E+00 0. -1.
         21   -1    0    0  501  502 -0.00000000000E+00 -0.00000000000E+00 -0.36458887411E+02  0.36458887411E+02  0.00000000000E+00 0. -1.
      99926    2    1    2    0    0  0.00000000000E+00  0.71054273576E-14  0.13928181619E+04  0.14657359367E+04  0.45655164448E+03 0.  0.
         25    1    3    3    0    0  0.18020422511E+02  0.53332860284E+02  0.76077179738E+03  0.77303969199E+03  0.12509000000E+03 0.  0.
         25    1    3    3    0    0  0.69102127597E+00 -0.18369982805E+02  0.45550290012E+03  0.47272437413E+03  0.12509000000E+03 0.  0.
         25    1    3    3    0    0 -0.18711443787E+02 -0.34962877479E+02  0.17654346439E+03  0.21997187059E+03  0.12509000000E+03 0.  0.
<mgrwt>
<rscale>  2 0.45655164E+03</rscale>
<asrwt>0</asrwt>
<pdfrwt beam="1">  1       21 0.21018776E+00 0.45655164E+03</pdfrwt>
<pdfrwt beam="2">  1       21 0.53616021E-02 0.45655164E+03</pdfrwt>
<totfact> 0.24336802E+04</totfact>
</mgrwt>
</event>
<event>
 6    0  0.1572624E-007  0.4662129E+03  0.7546771E-02  0.1022995E+00
         21   -1    0    0  502  501  0.00000000000E+00  0.00000000000E+00  0.65351552733E+03  0.65351552733E+03  0.00000000000E+00 0. -1.
         21   -1    0    0  501  502 -0.00000000000E+00 -0.00000000000E+00 -0.83148152636E+02  0.83148152636E+02  0.00000000000E+00 0. -1.
      99926    2    1    2    0    0  0.00000000000E+00  0.35527136788E-14  0.57036737469E+03  0.73666367997E+03  0.46621286476E+03 0.  0.
         25    1    3    3    0    0  0.50210205966E+02  0.24406680951E+02  0.14125757841E+03  0.19676880448E+03  0.12509000000E+03 0.  0.
         25    1    3    3    0    0 -0.13466864122E+02  0.32401599261E+02  0.35809932289E+03  0.38093812256E+03  0.12509000000E+03 0.  0.
         25    1    3    3    0    0 -0.36743341844E+02 -0.56808280212E+02  0.71010473400E+02  0.15895675293E+03  0.12509000000E+03 0.  0.
<mgrwt>
<rscale>  2 0.46621286E+03</rscale>
<asrwt>0</asrwt>
<pdfrwt beam="1">  1       21 0.96105222E-01 0.46621286E+03</pdfrwt>
<pdfrwt beam="2">  1       21 0.12227670E-01 0.46621286E+03</pdfrwt>
<totfact> 0.46701744E+04</totfact>
</mgrwt>
</event>
<event>
 6    0  0.1572624E-007  0.4624893E+03  0.7546771E-02  0.1024062E+00
         21   -1    0    0  502  501  0.00000000000E+00  0.00000000000E+00  0.81679433858E+02  0.81679433858E+02  0.00000000000E+00 0. -1.
         21   -1    0    0  501  502 -0.00000000000E+00 -0.00000000000E+00 -0.65468248924E+03  0.65468248924E+03  0.00000000000E+00 0. -1.
      99926    2    1    2    0    0  0.71054273576E-14  0.17763568394E-14 -0.57300305539E+03  0.73636192310E+03  0.46248932994E+03 0.  0.
         25    1    3    3    0    0  0.68606998753E+02  0.54415939386E+02 -0.18518744531E+03  0.24002065065E+03  0.12509000000E+03 0.  0.
         25    1    3    3    0    0 -0.10050423982E+03 -0.44235878971E+02 -0.14323034911E+03  0.21959133912E+03  0.12509000000E+03 0.  0.
         25    1    3    3    0    0  0.31897241072E+02 -0.10180060416E+02 -0.24458526096E+03  0.27674993333E+03  0.12509000000E+03 0.  0.
<mgrwt>
<rscale>  2 0.46248933E+03</rscale>
<asrwt>0</asrwt>
<pdfrwt beam="1">  1       21 0.12011682E-01 0.46248933E+03</pdfrwt>
<pdfrwt beam="2">  1       21 0.96276836E-01 0.46248933E+03</pdfrwt>
<totfact> 0.48078610E+04</totfact>
</mgrwt>
</event>
<event>
 6    0  0.1572624E-007  0.4492827E+03  0.7546771E-02  0.1027936E+00
         21   -1    0    0  502  501  0.00000000000E+00  0.00000000000E+00  0.17376146291E+03  0.17376146291E+03  0.00000000000E+00 0.  1.
         21   -1    0    0  501  502 -0.00000000000E+00 -0.00000000000E+00 -0.29041958986E+03  0.29041958986E+03  0.00000000000E+00 0.  1.
      99926    2    1    2    0    0 -0.14210854715E-13 -0.26645352591E-14 -0.11665812695E+03  0.46418105277E+03  0.44928268514E+03 0.  0.
         25    1    3    3    0    0  0.76377938380E+02  0.21255757909E+02 -0.10441880024E+03  0.18120758996E+03  0.12509000000E+03 0.  0.
         25    1    3    3    0    0  0.48996198281E+01 -0.28440067674E+02 -0.32050086654E+02  0.13231613612E+03  0.12509000000E+03 0.  0.
         25    1    3    3    0    0 -0.81277558208E+02  0.71843097644E+01  0.19810759935E+02  0.15065732669E+03  0.12509000000E+03 0.  0.
<mgrwt>
<rscale>  2 0.44928269E+03</rscale>
<asrwt>0</asrwt>
<pdfrwt beam="1">  1       21 0.25553157E-01 0.44928269E+03</pdfrwt>
<pdfrwt beam="2">  1       21 0.42708763E-01 0.44928269E+03</pdfrwt>
<totfact> 0.71038565E+04</totfact>
</mgrwt>
</event>
<event>
 6    0  0.1572624E-007  0.4862211E+03  0.7546771E-02  0.1017439E+00
         21   -1    0    0  502  501  0.00000000000E+00  0.00000000000E+00  0.79497668740E+02  0.79497668740E+02  0.00000000000E+00 0.  1.
         21   -1    0    0  501  502 -0.00000000000E+00 -0.00000000000E+00 -0.74345236951E+03  0.74345236951E+03  0.00000000000E+00 0.  1.
      99926    2    1    2    0    0  0.00000000000E+00  0.00000000000E+00 -0.66395470077E+03  0.82295003825E+03  0.48622106164E+03 0.  0.
         25    1    3    3    0    0 -0.14878083702E+02 -0.39663027541E+02 -0.77791111759E+02  0.15327582424E+03  0.12509000000E+03 0.  0.
         25    1    3    3    0    0 -0.63811685525E+02  0.39895801024E+02 -0.15068137839E+03  0.20979988571E+03  0.12509000000E+03 0.  0.
         25    1    3    3    0    0  0.78689769226E+02 -0.23277348293E+00 -0.43548221062E+03  0.45987432830E+03  0.12509000000E+03 0.  0.
<mgrwt>
<rscale>  2 0.48622106E+03</rscale>
<asrwt>0</asrwt>
<pdfrwt beam="1">  1       21 0.11690833E-01 0.48622106E+03</pdfrwt>
<pdfrwt beam="2">  1       21 0.10933124E+00 0.48622106E+03</pdfrwt>
<totfact> 0.36797149E+04</totfact>
</mgrwt>
</event>
<event>
 6    0  0.1572624E-007  0.4558035E+03  0.7546771E-02  0.1026005E+00
         21   -1    0    0  502  501  0.00000000000E+00  0.00000000000E+00  0.73175670406E+03  0.73175670406E+03  0.00000000000E+00 0.  1.
         21   -1    0    0  501  502 -0.00000000000E+00 -0.00000000000E+00 -0.70978794042E+02  0.70978794042E+02  0.00000000000E+00 0.  1.
      99926    2    1    2    0    0  0.17763568394E-14  0.00000000000E+00  0.66077791002E+03  0.80273549810E+03  0.45580350322E+03 0.  0.
         25    1    3    3    0    0  0.62951836182E+02  0.38124173013E+02  0.38976615135E+03  0.41591050370E+03  0.12509000000E+03 0.  0.
         25    1    3    3    0    0 -0.91746170031E+01 -0.58322369455E+02  0.13230705345E+03  0.19141143348E+03  0.12509000000E+03 0.  0.
         25    1    3    3    0    0 -0.53777219179E+02  0.20198196442E+02  0.13870470522E+03  0.19541356092E+03  0.12509000000E+03 0.  0.
<mgrwt>
<rscale>  2 0.45580350E+03</rscale>
<asrwt>0</asrwt>
<pdfrwt beam="1">  1       21 0.10761128E+00 0.45580350E+03</pdfrwt>
<pdfrwt beam="2">  1       21 0.10438058E-01 0.45580350E+03</pdfrwt>
<totfact> 0.47333606E+04</totfact>
</mgrwt>
</event>
<event>
 6    0  0.1572624E-007  0.4413444E+03  0.7546771E-02  0.1030335E+00
         21   -1    0    0  502  501  0.00000000000E+00  0.00000000000E+00  0.76648159167E+03  0.76648159167E+03  0.00000000000E+00 0.  1.
         21   -1    0    0  501  502 -0.00000000000E+00 -0.00000000000E+00 -0.63532149187E+02  0.63532149187E+02  0.00000000000E+00 0.  1.
      99926    2    1    2    0    0  0.00000000000E+00  0.00000000000E+00  0.70294944248E+03  0.83001374085E+03  0.44134441349E+03 0.  0.
         25    1    3    3    0    0 -0.10180770235E+02 -0.38707432697E+02  0.39909150080E+03  0.42014693566E+03  0.12509000000E+03 0.  0.
         25    1    3    3    0    0 -0.15233799519E+02  0.45917436726E+02  0.92759639375E+02  0.16307157459E+03  0.12509000000E+03 0.  0.
         25    1    3    3    0    0  0.25414569754E+02 -0.72100040298E+01  0.21109830230E+03  0.24679523060E+03  0.12509000000E+03 0.  0.
<mgrwt>
<rscale>  2 0.44134441E+03</rscale>
<asrwt>0</asrwt>
<pdfrwt beam="1">  1       21 0.11271788E+00 0.44134441E+03</pdfrwt>
<pdfrwt beam="2">  1       21 0.93429636E-02 0.44134441E+03</pdfrwt>
<totfact> 0.51663988E+04</totfact>
</mgrwt>
</event>
<event>
 6    0  0.1572624E-007  0.4568196E+03  0.7546771E-02  0.1025708E+00
         21   -1    0    0  502  501  0.00000000000E+00  0.00000000000E+00  0.80436992552E+02  0.80436992552E+02  0.00000000000E+00 0. -1.
         21   -1    0    0  501  502 -0.00000000000E+00 -0.00000000000E+00 -0.64859500703E+03  0.64859500703E+03  0.00000000000E+00 0. -1.
      99926    2    1    2    0    0  0.00000000000E+00 -0.71054273576E-14 -0.56815801448E+03  0.72903199959E+03  0.45681957817E+03 0.  0.
         25    1    3    3    0    0 -0.31041494316E+02  0.30429054326E+02 -0.30092162683E+03  0.32877170698E+03  0.12509000000E+03 0.  0.
         25    1    3    3    0    0  0.39800694966E+02  0.59040384065E+02 -0.12804626076E+03  0.19264790490E+03  0.12509000000E+03 0.  0.
         25    1    3    3    0    0 -0.87592006503E+01 -0.89469438392E+02 -0.13919012690E+03  0.20761238770E+03  0.12509000000E+03 0.  0.
<mgrwt>
<rscale>  2 0.45681958E+03</rscale>
<asrwt>0</asrwt>
<pdfrwt beam="1">  1       21 0.11828970E-01 0.45681958E+03</pdfrwt>
<pdfrwt beam="2">  1       21 0.95381618E-01 0.45681958E+03</pdfrwt>
<totfact> 0.50626630E+04</totfact>
</mgrwt>
</event>
<event>
 6    0  0.1572624E-007  0.4566428E+03  0.7546771E-02  0.1025759E+00
         21   -1    0    0  502  501  0.00000000000E+00  0.00000000000E+00  0.25613012746E+02  0.25613012746E+02  0.00000000000E+00 0.  1.
         21   -1    0    0  501  502 -0.00000000000E+00 -0.00000000000E+00 -0.20353196938E+04  0.20353196938E+04  0.00000000000E+00 0.  1.
      99926    2    1    2    0    0  0.00000000000E+00  0.00000000000E+00 -0.20097066811E+04  0.20609327066E+04  0.45664283313E+03 0.  0.
         25    1    3    3    0    0  0.99778356248E+02 -0.13559050895E+02 -0.71146052062E+03  0.72935803878E+03  0.12509000000E+03 0.  0.
         25    1    3    3    0    0 -0.82884539910E+02  0.50147380137E+02 -0.56929348419E+03  0.59086985532E+03  0.12509000000E+03 0.  0.
         25    1    3    3    0    0 -0.16893816338E+02 -0.36588329242E+02 -0.72895267628E+03  0.74070481248E+03  0.12509000000E+03 0.  0.
<mgrwt>
<rscale>  2 0.45664283E+03</rscale>
<asrwt>0</asrwt>
<pdfrwt beam="1">  1       21 0.37666194E-02 0.45664283E+03</pdfrwt>
<pdfrwt beam="2">  1       21 0.29931173E+00 0.45664283E+03</pdfrwt>
<totfact> 0.12579169E+04</totfact>
</mgrwt>
</event>
<event>
 6    0  0.1572624E-007  0.4554222E+03  0.7546771E-02  0.1026117E+00
         21   -1    0    0  502  501  0.00000000000E+00  0.00000000000E+00  0.35598771042E+02  0.35598771042E+02  0.00000000000E+00 0. -1.
         21   -1    0    0  501  502 -0.00000000000E+00 -0.00000000000E+00 -0.14565770168E+04  0.14565770168E+04  0.00000000000E+00 0. -1.
      99926    2    1    2    0    0 -0.71054273576E-14  0.71054273576E-14 -0.14209782458E+04  0.14921757879E+04  0.45542222926E+03 0.  0.
         25    1    3    3    0    0  0.34637071001E+02  0.54059090133E+02 -0.45615072013E+03  0.47732913120E+03  0.12509000000E+03 0.  0.
         25    1    3    3    0    0 -0.87109667336E+02 -0.89776322368E+01 -0.67018295789E+03  0.68735827425E+03  0.12509000000E+03 0.  0.
         25    1    3    3    0    0  0.52472596336E+02 -0.45081457896E+02 -0.29464456775E+03  0.32748838242E+03  0.12509000000E+03 0.  0.
<mgrwt>
<rscale>  2 0.45542223E+03</rscale>
<asrwt>0</asrwt>
<pdfrwt beam="1">  1       21 0.52351136E-02 0.45542223E+03</pdfrwt>
<pdfrwt beam="2">  1       21 0.21420249E+00 0.45542223E+03</pdfrwt>
<totfact> 0.23893079E+04</totfact>
</mgrwt>
</event>
<event>
 6    0  0.1572624E-007  0.4565991E+03  0.7546771E-02  0.1025772E+00
         21   -1    0    0  502  501  0.00000000000E+00  0.00000000000E+00  0.42470751157E+02  0.42470751157E+02  0.00000000000E+00 0. -1.
         21   -1    0    0  501  502 -0.00000000000E+00 -0.00000000000E+00 -0.12272137375E+04  0.12272137375E+04  0.00000000000E+00 0. -1.
      99926    2    1    2    0    0 -0.71054273576E-14  0.00000000000E+00 -0.11847429863E+04  0.12696844886E+04  0.45659912072E+03 0.  0.
         25    1    3    3    0    0 -0.53555401552E+02 -0.95537680038E+02 -0.41526898940E+03  0.44731585149E+03  0.12509000000E+03 0.  0.
         25    1    3    3    0    0  0.16143489686E+02  0.36870760496E+02 -0.50302342632E+03  0.51990397264E+03  0.12509000000E+03 0.  0.
         25    1    3    3    0    0  0.37411911866E+02  0.58666919542E+02 -0.26645057060E+03  0.30246466450E+03  0.12509000000E+03 0.  0.
<mgrwt>
<rscale>  2 0.45659912E+03</rscale>
<asrwt>0</asrwt>
<pdfrwt beam="1">  1       21 0.62456991E-02 0.45659912E+03</pdfrwt>
<pdfrwt beam="2">  1       21 0.18047260E+00 0.45659912E+03</pdfrwt>
<totfact> 0.29637417E+04</totfact>
</mgrwt>
</event>
<event>
 6    0  0.1572624E-007  0.4566013E+03  0.7546771E-02  0.1025772E+00
         21   -1    0    0  502  501  0.00000000000E+00  0.00000000000E+00  0.37202929727E+04  0.37202929727E+04  0.00000000000E+00 0.  1.
         21   -1    0    0  501  502 -0.00000000000E+00 -0.00000000000E+00 -0.14009968573E+02  0.14009968573E+02  0.00000000000E+00 0.  1.
      99926    2    1    2    0    0  0.00000000000E+00 -0.35527136788E-14  0.37062830042E+04  0.37343029413E+04  0.45660130368E+03 0.  0.
         25    1    3    3    0    0 -0.65418162514E+02 -0.18536550704E+02  0.10288549245E+04  0.10386592817E+04  0.12509000000E+03 0.  0.
         25    1    3    3    0    0  0.25965454295E+02  0.88598776318E+02  0.16819502689E+04  0.16891205295E+04  0.12509000000E+03 0.  0.
         25    1    3    3    0    0  0.39452708219E+02 -0.70062225614E+02  0.99547781076E+03  0.10065231301E+04  0.12509000000E+03 0.  0.
<mgrwt>
<rscale>  2 0.45660130E+03</rscale>
<asrwt>0</asrwt>
<pdfrwt beam="1">  1       21 0.54710122E+00 0.45660130E+03</pdfrwt>
<pdfrwt beam="2">  1       21 0.20602921E-02 0.45660130E+03</pdfrwt>
<totfact> 0.78953616E+02</totfact>
</mgrwt>
</event>
<event>
 6    0  0.1572624E-007  0.4764070E+03  0.7546771E-02  0.1020127E+00
         21   -1    0    0  502  501  0.00000000000E+00  0.00000000000E+00  0.27647020234E+03  0.27647020234E+03  0.00000000000E+00 0.  1.
         21   -1    0    0  501  502 -0.00000000000E+00 -0.00000000000E+00 -0.20523332339E+03  0.20523332339E+03  0.00000000000E+00 0.  1.
      99926    2    1    2    0    0 -0.71054273576E-14  0.71054273576E-14  0.71236878952E+02  0.48170352572E+03  0.47640696235E+03 0.  0.
         25    1    3    3    0    0 -0.47815803225E+02 -0.37294758314E+02 -0.69723226950E+02  0.15551876579E+03  0.12509000000E+03 0.  0.
         25    1    3    3    0    0 -0.37102307596E+00 -0.32379740663E+02  0.11483267995E+03  0.17286595312E+03  0.12509000000E+03 0.  0.
         25    1    3    3    0    0  0.48186826301E+02  0.69674498978E+02  0.26127425953E+02  0.15331880682E+03  0.12509000000E+03 0.  0.
<mgrwt>
<rscale>  2 0.47640696E+03</rscale>
<asrwt>0</asrwt>
<pdfrwt beam="1">  1       21 0.40657383E-01 0.47640696E+03</pdfrwt>
<pdfrwt beam="2">  1       21 0.30181371E-01 0.47640696E+03</pdfrwt>
<totfact> 0.56367534E+04</totfact>
</mgrwt>
</event>
<event>
 6    0  0.1572624E-007  0.4526820E+03  0.7546771E-02  0.1026925E+00
         21   -1    0    0  502  501  0.00000000000E+00  0.00000000000E+00  0.98714292889E+03  0.98714292889E+03  0.00000000000E+00 0. -1.
         21   -1    0    0  501  502 -0.00000000000E+00 -0.00000000000E+00 -0.51897505646E+02  0.51897505646E+02  0.00000000000E+00 0. -1.
      99926    2    1    2    0    0  0.00000000000E+00 -0.71054273576E-14  0.93524542325E+03  0.10390404345E+04  0.45268203289E+03 0.  0.
         25    1    3    3    0    0 -0.12661408337E+02  0.25991905858E+01  0.12108742075E+03  0.17457588211E+03  0.12509000000E+03 0.  0.
         25    1    3    3    0    0 -0.12260487331E+02  0.54423623222E+02  0.27127173848E+03  0.30388832572E+03  0.12509000000E+03 0.  0.
         25    1    3    3    0    0  0.24921895669E+02 -0.57022813808E+02  0.54288626402E+03  0.56057622670E+03  0.12509000000E+03 0.  0.
<mgrwt>
<rscale>  2 0.45268203E+03</rscale>
<asrwt>0</asrwt>
<pdfrwt beam="1">  1       21 0.14516807E+00 0.45268203E+03</pdfrwt>
<pdfrwt beam="2">  1       21 0.76319867E-02 0.45268203E+03</pdfrwt>
<totfact> 0.38371747E+04</totfact>
</mgrwt>
</event>
<event>
 6    0  0.1572624E-007  0.4594136E+03  0.7546771E-02  0.1024951E+00
         21   -1    0    0  502  501  0.00000000000E+00  0.00000000000E+00  0.11027779831E+04  0.11027779831E+04  0.00000000000E+00 0.  1.
         21   -1    0    0  501  502 -0.00000000000E+00 -0.00000000000E+00 -0.47847543290E+02  0.47847543290E+02  0.00000000000E+00 0.  1.
      99926    2    1    2    0    0  0.71054273576E-14  0.00000000000E+00  0.10549304398E+04  0.11506255264E+04  0.45941361444E+03 0.  0.
         25    1    3    3    0    0  0.45620690577E+02  0.55060404791E+02  0.32098550519E+03  0.35184101271E+03  0.12509000000E+03 0.  0.
         25    1    3    3    0    0  0.39669024144E+02 -0.90911573189E+02  0.36738312843E+03  0.40057011467E+03  0.12509000000E+03 0.  0.
         25    1    3    3    0    0 -0.85289714721E+02  0.35851168398E+02  0.36656180616E+03  0.39821439897E+03  0.12509000000E+03 0.  0.
<mgrwt>
<rscale>  2 0.45941361E+03</rscale>
<asrwt>0</asrwt>
<pdfrwt beam="1">  1       21 0.16217322E+00 0.45941361E+03</pdfrwt>
<pdfrwt beam="2">  1       21 0.70364041E-02 0.45941361E+03</pdfrwt>
<totfact> 0.32624730E+04</totfact>
</mgrwt>
</event>
<event>
 6    0  0.1572624E-007  0.4516417E+03  0.7546771E-02  0.1027234E+00
         21   -1    0    0  502  501  0.00000000000E+00  0.00000000000E+00  0.57195958472E+03  0.57195958472E+03  0.00000000000E+00 0. -1.
         21   -1    0    0  501  502 -0.00000000000E+00 -0.00000000000E+00 -0.89158481267E+02  0.89158481267E+02  0.00000000000E+00 0. -1.
      99926    2    1    2    0    0 -0.88817841970E-15 -0.71054273576E-14  0.48280110345E+03  0.66111806598E+03  0.45164166291E+03 0.  0.
         25    1    3    3    0    0  0.70543296492E+02 -0.87070781135E+02  0.18892394731E+03  0.25277943661E+03  0.12509000000E+03 0.  0.
         25    1    3    3    0    0 -0.72334028031E+01  0.44112050938E+02  0.17418648710E+03  0.21905852082E+03  0.12509000000E+03 0.  0.
         25    1    3    3    0    0 -0.63309893688E+02  0.42958730196E+02  0.11969066904E+03  0.18928010856E+03  0.12509000000E+03 0.  0.
<mgrwt>
<rscale>  2 0.45164166E+03</rscale>
<asrwt>0</asrwt>
<pdfrwt beam="1">  1       21 0.84111701E-01 0.45164166E+03</pdfrwt>
<pdfrwt beam="2">  1       21 0.13111542E-01 0.45164166E+03</pdfrwt>
<totfact> 0.56547538E+04</totfact>
</mgrwt>
</event>
<event>
 6    0  0.1572624E-007  0.4557286E+03  0.7546771E-02  0.1026027E+00
         21   -1    0    0  502  501  0.00000000000E+00  0.00000000000E+00  0.46058018435E+02  0.46058018435E+02  0.00000000000E+00 0. -1.
         21   -1    0    0  501  502 -0.00000000000E+00 -0.00000000000E+00 -0.11273200681E+04  0.11273200681E+04  0.00000000000E+00 0. -1.
      99926    2    1    2    0    0  0.00000000000E+00  0.35527136788E-14 -0.10812620497E+04  0.11733780866E+04  0.45572855289E+03 0.  0.
         25    1    3    3    0    0 -0.49852347104E+01 -0.37122244345E+02 -0.40550993253E+03  0.42601493762E+03  0.12509000000E+03 0.  0.
         25    1    3    3    0    0 -0.39530488071E+02  0.22597853558E+02 -0.54287539201E+03  0.55895842584E+03  0.12509000000E+03 0.  0.
         25    1    3    3    0    0  0.44515722782E+02  0.14524390788E+02 -0.13287672517E+03  0.18840472312E+03  0.12509000000E+03 0.  0.
<mgrwt>
<rscale>  2 0.45572855E+03</rscale>
<asrwt>0</asrwt>
<pdfrwt beam="1">  1       21 0.67732382E-02 0.45572855E+03</pdfrwt>
<pdfrwt beam="2">  1       21 0.16578236E+00 0.45572855E+03</pdfrwt>
<totfact> 0.32824604E+04</totfact>
</mgrwt>
</event>
<event>
 6    0  0.1572624E-007  0.4408299E+03  0.7546771E-02  0.1030492E+00
         21   -1    0    0  502  501  0.00000000000E+00  0.00000000000E+00  0.21064398141E+03  0.21064398141E+03  0.00000000000E+00 0.  1.
         21   -1    0    0  501  502 -0.00000000000E+00 -0.00000000000E+00 -0.23063917757E+03  0.23063917757E+03  0.00000000000E+00 0.  1.
      99926    2    1    2    0    0  0.71054273576E-14 -0.26645352591E-14 -0.19995196158E+02  0.44128315899E+03  0.44082992019E+03 0.  0.
         25    1    3    3    0    0  0.46114749842E+02  0.68727849301E+01 -0.17921686772E+02  0.13469409891E+03  0.12509000000E+03 0.  0.
         25    1    3    3    0    0 -0.16516628399E+01  0.35980833361E+02  0.71876779866E+02  0.14869811009E+03  0.12509000000E+03 0.  0.
         25    1    3    3    0    0 -0.44463087002E+02 -0.42853618291E+02 -0.73950289253E+02  0.15789094998E+03  0.12509000000E+03 0.  0.
<mgrwt>
<rscale>  2 0.44082992E+03</rscale>
<asrwt>0</asrwt>
<pdfrwt beam="1">  1       21 0.30977056E-01 0.44082992E+03</pdfrwt>
<pdfrwt beam="2">  1       21 0.33917526E-01 0.44082992E+03</pdfrwt>
<totfact> 0.78017211E+04</totfact>
</mgrwt>
</event>
<event>
 6    0  0.1572624E-007  0.4497971E+03  0.7546771E-02  0.1027783E+00
         21   -1    0    0  502  501  0.00000000000E+00  0.00000000000E+00  0.64832304608E+03  0.64832304608E+03  0.00000000000E+00 0. -1.
         21   -1    0    0  501  502 -0.00000000000E+00 -0.00000000000E+00 -0.78015665385E+02  0.78015665385E+02  0.00000000000E+00 0. -1.
      99926    2    1    2    0    0  0.00000000000E+00  0.00000000000E+00  0.57030738070E+03  0.72633871147E+03  0.44979708236E+03 0.  0.
         25    1    3    3    0    0  0.62336210644E+02  0.16563381535E+02  0.23092783935E+03  0.27043543379E+03  0.12509000000E+03 0.  0.
         25    1    3    3    0    0  0.32279003395E+02 -0.49147312057E+02  0.20261855053E+03  0.24527367869E+03  0.12509000000E+03 0.  0.
         25    1    3    3    0    0 -0.94615214039E+02  0.32583930522E+02  0.13676099082E+03  0.21062959898E+03  0.12509000000E+03 0.  0.
<mgrwt>
<rscale>  2 0.44979708E+03</rscale>
<asrwt>0</asrwt>
<pdfrwt beam="1">  1       21 0.95341622E-01 0.44979708E+03</pdfrwt>
<pdfrwt beam="2">  1       21 0.11472892E-01 0.44979708E+03</pdfrwt>
<totfact> 0.53658251E+04</totfact>
</mgrwt>
</event>
<event>
 6    0  0.1572624E-007  0.4546934E+03  0.7546771E-02  0.1026332E+00
         21   -1    0    0  502  501  0.00000000000E+00  0.00000000000E+00  0.93840456032E+02  0.93840456032E+02  0.00000000000E+00 0.  1.
         21   -1    0    0  501  502 -0.00000000000E+00 -0.00000000000E+00 -0.55079145002E+03  0.55079145002E+03  0.00000000000E+00 0.  1.
      99926    2    1    2    0    0  0.00000000000E+00  0.00000000000E+00 -0.45695099399E+03  0.64463190605E+03  0.45469339493E+03 0.  0.
         25    1    3    3    0    0  0.60985525331E+02 -0.60039102875E+02 -0.73554585172E+02  0.16846873085E+03  0.12509000000E+03 0.  0.
         25    1    3    3    0    0 -0.73303366333E+02  0.54616203584E+02 -0.23681085213E+03  0.28298975422E+03  0.12509000000E+03 0.  0.
         25    1    3    3    0    0  0.12317841003E+02  0.54228992911E+01 -0.14658555669E+03  0.19317342098E+03  0.12509000000E+03 0.  0.
<mgrwt>
<rscale>  2 0.45469339E+03</rscale>
<asrwt>0</asrwt>
<pdfrwt beam="1">  1       21 0.13800067E-01 0.45469339E+03</pdfrwt>
<pdfrwt beam="2">  1       21 0.80998744E-01 0.45469339E+03</pdfrwt>
<totfact> 0.56147516E+04</totfact>
</mgrwt>
</event>
<event>
 6    0  0.1572624E-007  0.4585024E+03  0.7546771E-02  0.1025216E+00
         21   -1    0    0  502  501  0.00000000000E+00  0.00000000000E+00  0.70697943871E+02  0.70697943871E+02  0.00000000000E+00 0. -1.
         21   -1    0    0  501  502 -0.00000000000E+00 -0.00000000000E+00 -0.74338962667E+03  0.74338962667E+03  0.00000000000E+00 0. -1.
      99926    2    1    2    0    0 -0.12434497876E-13 -0.71054273576E-14 -0.67269168280E+03  0.81408757054E+03  0.45850242355E+03 0.  0.
         25    1    3    3    0    0 -0.80809655922E+02  0.26821769671E+02 -0.28233967935E+03  0.32033234375E+03  0.12509000000E+03 0.  0.
         25    1    3    3    0    0  0.94882404437E+01  0.37226346591E+02 -0.10499291858E+03  0.16777022572E+03  0.12509000000E+03 0.  0.
         25    1    3    3    0    0  0.71321415478E+02 -0.64048116262E+02 -0.28535908487E+03  0.32598500107E+03  0.12509000000E+03 0.  0.
<mgrwt>
<rscale>  2 0.45850242E+03</rscale>
<asrwt>0</asrwt>
<pdfrwt beam="1">  1       21 0.10396755E-01 0.45850242E+03</pdfrwt>
<pdfrwt beam="2">  1       21 0.10932201E+00 0.45850242E+03</pdfrwt>
<totfact> 0.45818651E+04</totfact>
</mgrwt>
</event>
<event>
 6    0  0.1572624E-007  0.4639568E+03  0.7546771E-02  0.1023640E+00
         21   -1    0    0  502  501  0.00000000000E+00  0.00000000000E+00  0.24724888691E+02  0.24724888691E+02  0.00000000000E+00 0.  1.
         21   -1    0    0  501  502 -0.00000000000E+00 -0.00000000000E+00 -0.21765104516E+04  0.21765104516E+04  0.00000000000E+00 0.  1.
      99926    2    1    2    0    0 -0.35527136788E-14  0.00000000000E+00 -0.21517855629E+04  0.22012353402E+04  0.46395680251E+03 0.  0.
         25    1    3    3    0    0  0.56314975609E+02  0.23257605967E+02 -0.76720458528E+03  0.77971961402E+03  0.12509000000E+03 0.  0.
         25    1    3    3    0    0 -0.86892837906E+02  0.37270027009E+02 -0.98398354209E+03  0.99639878533E+03  0.12509000000E+03 0.  0.
         25    1    3    3    0    0  0.30577862297E+02 -0.60527632976E+02 -0.40059743549E+03  0.42511694089E+03  0.12509000000E+03 0.  0.
<mgrwt>
<rscale>  2 0.46395680E+03</rscale>
<asrwt>0</asrwt>
<pdfrwt beam="1">  1       21 0.36360131E-02 0.46395680E+03</pdfrwt>
<pdfrwt beam="2">  1       21 0.32007506E+00 0.46395680E+03</pdfrwt>
<totfact> 0.99813886E+03</totfact>
</mgrwt>
</event>
<event>
 6    0  0.1572624E-007  0.4584910E+03  0.7546771E-02  0.1025220E+00
         21   -1    0    0  502  501  0.00000000000E+00  0.00000000000E+00  0.76416798921E+02  0.76416798921E+02  0.00000000000E+00 0. -1.
         21   -1    0    0  501  502 -0.00000000000E+00 -0.00000000000E+00 -0.68772180727E+03  0.68772180727E+03  0.00000000000E+00 0. -1.
      99926    2    1    2    0    0  0.00000000000E+00  0.88817841970E-15 -0.61130500835E+03  0.76413860619E+03  0.45849099908E+03 0.  0.
         25    1    3    3    0    0 -0.10508596508E+02  0.22189314468E+01 -0.35568425399E+02  0.13049128416E+03  0.12509000000E+03 0.  0.
         25    1    3    3    0    0  0.32749996027E+02 -0.43021316899E+01 -0.36854131261E+03  0.39059093407E+03  0.12509000000E+03 0.  0.
         25    1    3    3    0    0 -0.22241399519E+02  0.20832002431E+01 -0.20719527034E+03  0.24305638796E+03  0.12509000000E+03 0.  0.
<mgrwt>
<rscale>  2 0.45849100E+03</rscale>
<asrwt>0</asrwt>
<pdfrwt beam="1">  1       21 0.11237765E-01 0.45849100E+03</pdfrwt>
<pdfrwt beam="2">  1       21 0.10113556E+00 0.45849100E+03</pdfrwt>
<totfact> 0.48213041E+04</totfact>
</mgrwt>
</event>
<event>
 6    0  0.1572624E-007  0.4686813E+03  0.7546771E-02  0.1022293E+00
         21   -1    0    0  502  501  0.00000000000E+00  0.00000000000E+00  0.55126558955E+02  0.55126558955E+02  0.00000000000E+00 0.  1.
         21   -1    0    0  501  502 -0.00000000000E+00 -0.00000000000E+00 -0.99617214587E+03  0.99617214587E+03  0.00000000000E+00 0.  1.
      99926    2    1    2    0    0  0.00000000000E+00  0.00000000000E+00 -0.94104558691E+03  0.10512987048E+04  0.46868130975E+03 0.  0.
         25    1    3    3    0    0 -0.78285989258E+02  0.77785905140E+02 -0.28699327024E+03  0.33195178628E+03  0.12509000000E+03 0.  0.
         25    1    3    3    0    0 -0.67274071794E+01 -0.42078338107E+02 -0.20252825754E+03  0.24182855031E+03  0.12509000000E+03 0.  0.
         25    1    3    3    0    0  0.85013396438E+02 -0.35707567033E+02 -0.45152405913E+03  0.47751836822E+03  0.12509000000E+03 0.  0.
<mgrwt>
<rscale>  2 0.46868131E+03</rscale>
<asrwt>0</asrwt>
<pdfrwt beam="1">  1       21 0.81068459E-02 0.46868131E+03</pdfrwt>
<pdfrwt beam="2">  1       21 0.14649592E+00 0.46868131E+03</pdfrwt>
<totfact> 0.33506168E+04</totfact>
</mgrwt>
</event>
<event>
 6    0  0.1572624E-007  0.4559926E+03  0.7546771E-02  0.1025950E+00
         21   -1    0    0  502  501  0.00000000000E+00  0.00000000000E+00  0.14706103013E+03  0.14706103013E+03  0.00000000000E+00 0.  1.
         21   -1    0    0  501  502 -0.00000000000E+00 -0.00000000000E+00 -0.35347445853E+03  0.35347445853E+03  0.00000000000E+00 0.  1.
      99926    2    1    2    0    0  0.00000000000E+00  0.00000000000E+00 -0.20641342840E+03  0.50053548866E+03  0.45599262273E+03 0.  0.
         25    1    3    3    0    0  0.33635419699E+02 -0.41709491986E+02 -0.10876815766E+03  0.17420976839E+03  0.12509000000E+03 0.  0.
         25    1    3    3    0    0 -0.69287842405E+02  0.69822279510E+02 -0.10881925668E+03  0.19278250581E+03  0.12509000000E+03 0.  0.
         25    1    3    3    0    0  0.35652422707E+02 -0.28112787524E+02  0.11173985947E+02  0.13354321446E+03  0.12509000000E+03 0.  0.
<mgrwt>
<rscale>  2 0.45599262E+03</rscale>
<asrwt>0</asrwt>
<pdfrwt beam="1">  1       21 0.21626622E-01 0.45599262E+03</pdfrwt>
<pdfrwt beam="2">  1       21 0.51981538E-01 0.45599262E+03</pdfrwt>
<totfact> 0.64721580E+04</totfact>
</mgrwt>
</event>
<event>
 6    0  0.1572624E-007  0.4604789E+03  0.7546771E-02  0.1024642E+00
         21   -1    0    0  502  501  0.00000000000E+00  0.00000000000E+00  0.61527728820E+03  0.61527728820E+03  0.00000000000E+00 0.  1.
         21   -1    0    0  501  502 -0.00000000000E+00 -0.00000000000E+00 -0.86156620787E+02  0.86156620787E+02  0.00000000000E+00 0.  1.
      99926    2    1    2    0    0  0.00000000000E+00  0.00000000000E+00  0.52912066742E+03  0.70143390899E+03  0.46047893328E+03 0.  0.
         25    1    3    3    0    0 -0.85143940093E+02 -0.50565510217E+02  0.23877073118E+03  0.28716777592E+03  0.12509000000E+03 0.  0.
         25    1    3    3    0    0  0.11510335216E+02  0.32076238690E+02  0.63617191846E+02  0.14441616289E+03  0.12509000000E+03 0.  0.
         25    1    3    3    0    0  0.73633604877E+02  0.18489271526E+02  0.22673274439E+03  0.26984997018E+03  0.12509000000E+03 0.  0.
<mgrwt>
<rscale>  2 0.46047893E+03</rscale>
<asrwt>0</asrwt>
<pdfrwt beam="1">  1       21 0.90481952E-01 0.46047893E+03</pdfrwt>
<pdfrwt beam="2">  1       21 0.12670092E-01 0.46047893E+03</pdfrwt>
<totfact> 0.50607560E+04</totfact>
</mgrwt>
</event>
<event>
 6    0  0.1572624E-007  0.4371806E+03  0.7546771E-02  0.1031615E+00
         21   -1    0    0  502  501  0.00000000000E+00  0.00000000000E+00  0.39158560533E+02  0.39158560533E+02  0.00000000000E+00 0. -1.
         21   -1    0    0  501  502 -0.00000000000E+00 -0.00000000000E+00 -0.12202112614E+04  0.12202112614E+04  0.00000000000E+00 0. -1.
      99926    2    1    2    0    0  0.71054273576E-14  0.00000000000E+00 -0.11810527009E+04  0.12593698219E+04  0.43718058760E+03 0.  0.
         25    1    3    3    0    0 -0.54493238054E+01  0.58829422718E+01 -0.63670782565E+03  0.64892886165E+03  0.12509000000E+03 0.  0.
         25    1    3    3    0    0 -0.42038756926E+02  0.23238268381E+02 -0.32907639533E+03  0.35531121044E+03  0.12509000000E+03 0.  0.
         25    1    3    3    0    0  0.47488080732E+02 -0.29121210653E+02 -0.21526847988E+03  0.25512974984E+03  0.12509000000E+03 0.  0.
<mgrwt>
<rscale>  2 0.43718059E+03</rscale>
<asrwt>0</asrwt>
<pdfrwt beam="1">  1       21 0.57586133E-02 0.43718059E+03</pdfrwt>
<pdfrwt beam="2">  1       21 0.17944279E+00 0.43718059E+03</pdfrwt>
<totfact> 0.34913134E+04</totfact>
</mgrwt>
</event>
<event>
 6    0  0.1572624E-007  0.4570744E+03  0.7546771E-02  0.1025633E+00
         21   -1    0    0  502  501  0.00000000000E+00  0.00000000000E+00  0.97853867041E+03  0.97853867041E+03  0.00000000000E+00 0.  1.
         21   -1    0    0  501  502 -0.00000000000E+00 -0.00000000000E+00 -0.53374748566E+02  0.53374748566E+02  0.00000000000E+00 0.  1.
      99926    2    1    2    0    0  0.53290705182E-14  0.17763568394E-14  0.92516392184E+03  0.10319134190E+04  0.45707441624E+03 0.  0.
         25    1    3    3    0    0 -0.13864569340E+02 -0.89184483503E+01  0.20436835237E+03  0.24017846813E+03  0.12509000000E+03 0.  0.
         25    1    3    3    0    0 -0.64075703139E+02  0.41392451204E+02  0.52182162614E+03  0.54200032136E+03  0.12509000000E+03 0.  0.
         25    1    3    3    0    0  0.77940272479E+02 -0.32474002854E+02  0.19897394333E+03  0.24973462948E+03  0.12509000000E+03 0.  0.
<mgrwt>
<rscale>  2 0.45707442E+03</rscale>
<asrwt>0</asrwt>
<pdfrwt beam="1">  1       21 0.14390273E+00 0.45707442E+03</pdfrwt>
<pdfrwt beam="2">  1       21 0.78492283E-02 0.45707442E+03</pdfrwt>
<totfact> 0.37339756E+04</totfact>
</mgrwt>
</event>
<event>
 6    0  0.1572624E-007  0.4598104E+03  0.7546771E-02  0.1024836E+00
         21   -1    0    0  502  501  0.00000000000E+00  0.00000000000E+00  0.33250989603E+03  0.33250989603E+03  0.00000000000E+00 0. -1.
         21   -1    0    0  501  502 -0.00000000000E+00 -0.00000000000E+00 -0.15896185663E+03  0.15896185663E+03  0.00000000000E+00 0. -1.
      99926    2    1    2    0    0  0.00000000000E+00  0.00000000000E+00  0.17354803939E+03  0.49147175266E+03  0.45981035405E+03 0.  0.
         25    1    3    3    0    0  0.28574724482E+02 -0.34814405411E+02  0.29565113645E+02  0.13619897851E+03  0.12509000000E+03 0.  0.
         25    1    3    3    0    0  0.79272024239E+02  0.46481318727E+02  0.41948477707E+02  0.16078479312E+03  0.12509000000E+03 0.  0.
         25    1    3    3    0    0 -0.10784674872E+03 -0.11666913316E+02  0.10203444804E+03  0.19448798102E+03  0.12509000000E+03 0.  0.
<mgrwt>
<rscale>  2 0.45981035E+03</rscale>
<asrwt>0</asrwt>
<pdfrwt beam="1">  1       21 0.48898514E-01 0.45981035E+03</pdfrwt>
<pdfrwt beam="2">  1       21 0.23376744E-01 0.45981035E+03</pdfrwt>
<totfact> 0.63417466E+04</totfact>
</mgrwt>
</event>
<event>
 6    0  0.1572624E-007  0.4529483E+03  0.7546771E-02  0.1026846E+00
         21   -1    0    0  502  501  0.00000000000E+00  0.00000000000E+00  0.49067009905E+03  0.49067009905E+03  0.00000000000E+00 0. -1.
         21   -1    0    0  501  502 -0.00000000000E+00 -0.00000000000E+00 -0.10453160722E+03  0.10453160722E+03  0.00000000000E+00 0. -1.
      99926    2    1    2    0    0 -0.17763568394E-14  0.00000000000E+00  0.38613849182E+03  0.59520170627E+03  0.45294827109E+03 0.  0.
         25    1    3    3    0    0  0.41606908032E+02  0.84650049843E+02  0.19601214030E+03  0.25092834232E+03  0.12509000000E+03 0.  0.
         25    1    3    3    0    0 -0.45056833404E+02 -0.37242964149E+02  0.41269675815E+02  0.14411055082E+03  0.12509000000E+03 0.  0.
         25    1    3    3    0    0  0.34499253717E+01 -0.47407085694E+02  0.14885667571E+03  0.20016281314E+03  0.12509000000E+03 0.  0.
<mgrwt>
<rscale>  2 0.45294827E+03</rscale>
<asrwt>0</asrwt>
<pdfrwt beam="1">  1       21 0.72157366E-01 0.45294827E+03</pdfrwt>
<pdfrwt beam="2">  1       21 0.15372295E-01 0.45294827E+03</pdfrwt>
<totfact> 0.59940530E+04</totfact>
</mgrwt>
</event>
<event>
 6    0  0.1572624E-007  0.4570093E+03  0.7546771E-02  0.1025652E+00
         21   -1    0    0  502  501  0.00000000000E+00  0.00000000000E+00  0.50435977143E+03  0.50435977143E+03  0.00000000000E+00 0.  1.
         21   -1    0    0  501  502 -0.00000000000E+00 -0.00000000000E+00 -0.10352606490E+03  0.10352606490E+03  0.00000000000E+00 0.  1.
      99926    2    1    2    0    0  0.00000000000E+00 -0.17763568394E-14  0.40083370653E+03  0.60788583633E+03  0.45700933221E+03 0.  0.
         25    1    3    3    0    0  0.20679715469E+02 -0.60598470269E+02  0.78148658259E+02  0.16079348904E+03  0.12509000000E+03 0.  0.
         25    1    3    3    0    0  0.73809376535E+02  0.14492370771E+02  0.14683019586E+03  0.20703735748E+03  0.12509000000E+03 0.  0.
         25    1    3    3    0    0 -0.94489092004E+02  0.46106099498E+02  0.17585485241E+03  0.24005498981E+03  0.12509000000E+03 0.  0.
<mgrwt>
<rscale>  2 0.45700933E+03</rscale>
<asrwt>0</asrwt>
<pdfrwt beam="1">  1       21 0.74170554E-01 0.45700933E+03</pdfrwt>
<pdfrwt beam="2">  1       21 0.15224421E-01 0.45700933E+03</pdfrwt>
<totfact> 0.57280850E+04</totfact>
</mgrwt>
</event>
<event>
 6    0  0.1572624E-007  0.4560442E+03  0.7546771E-02  0.1025935E+00
         21   -1    0    0  502  501  0.00000000000E+00  0.00000000000E+00  0.12025318005E+04  0.12025318005E+04  0.00000000000E+00 0.  1.
         21   -1    0    0  501  502 -0.00000000000E+00 -0.00000000000E+00 -0.43237169386E+02  0.43237169386E+02  0.00000000000E+00 0.  1.
      99926    2    1    2    0    0 -0.35527136788E-14  0.10658141036E-13  0.11592946311E+04  0.12457689698E+04  0.45604416956E+03 0.  0.
         25    1    3    3    0    0  0.66111001783E+02 -0.93025457616E+02  0.47197235693E+03  0.50142777558E+03  0.12509000000E+03 0.  0.
         25    1    3    3    0    0 -0.51319168611E+02  0.81580346128E+02  0.34578362723E+03  0.38013528500E+03  0.12509000000E+03 0.  0.
         25    1    3    3    0    0 -0.14791833173E+02  0.11445111488E+02  0.34153864692E+03  0.36420590927E+03  0.12509000000E+03 0.  0.
<mgrwt>
<rscale>  2 0.45604417E+03</rscale>
<asrwt>0</asrwt>
<pdfrwt beam="1">  1       21 0.17684289E+00 0.45604417E+03</pdfrwt>
<pdfrwt beam="2">  1       21 0.63584081E-02 0.45604417E+03</pdfrwt>
<totfact> 0.30482704E+04</totfact>
</mgrwt>
</event>
<event>
 6    0  0.1572624E-007  0.4631576E+03  0.7546771E-02  0.1023869E+00
         21   -1    0    0  502  501  0.00000000000E+00  0.00000000000E+00  0.17600707114E+03  0.17600707114E+03  0.00000000000E+00 0.  1.
         21   -1    0    0  501  502 -0.00000000000E+00 -0.00000000000E+00 -0.30469654398E+03  0.30469654398E+03  0.00000000000E+00 0.  1.
      99926    2    1    2    0    0  0.00000000000E+00  0.35527136788E-14 -0.12868947284E+03  0.48070361513E+03  0.46315762455E+03 0.  0.
         25    1    3    3    0    0  0.76321030864E+02  0.81703101552E+02  0.15080097086E+02  0.16844944044E+03  0.12509000000E+03 0.  0.
         25    1    3    3    0    0 -0.26321511314E+02 -0.58026565742E+02 -0.75006917134E+02  0.15916485167E+03  0.12509000000E+03 0.  0.
         25    1    3    3    0    0 -0.49999519550E+02 -0.23676535810E+02 -0.68762652789E+02  0.15308932302E+03  0.12509000000E+03 0.  0.
<mgrwt>
<rscale>  2 0.46315762E+03</rscale>
<asrwt>0</asrwt>
<pdfrwt beam="1">  1       21 0.25883393E-01 0.46315762E+03</pdfrwt>
<pdfrwt beam="2">  1       21 0.44808315E-01 0.46315762E+03</pdfrwt>
<totfact> 0.62503386E+04</totfact>
</mgrwt>
</event>
<event>
 6    0  0.1572624E-007  0.4604721E+03  0.7546771E-02  0.1024644E+00
         21   -1    0    0  502  501  0.00000000000E+00  0.00000000000E+00  0.11205106564E+04  0.11205106564E+04  0.00000000000E+00 0. -1.
         21   -1    0    0  501  502 -0.00000000000E+00 -0.00000000000E+00 -0.47307567776E+02  0.47307567776E+02  0.00000000000E+00 0. -1.
      99926    2    1    2    0    0  0.00000000000E+00  0.14210854715E-13  0.10732030886E+04  0.11678182241E+04  0.46047207872E+03 0.  0.
         25    1    3    3    0    0  0.48896744027E+02 -0.35751324579E+01  0.23223418353E+03  0.26829814991E+03  0.12509000000E+03 0.  0.
         25    1    3    3    0    0 -0.34426393828E+02  0.71787869451E+02  0.24322001719E+03  0.28485462898E+03  0.12509000000E+03 0.  0.
         25    1    3    3    0    0 -0.14470350199E+02 -0.68212736993E+02  0.59774888788E+03  0.61466544525E+03  0.12509000000E+03 0.  0.
<mgrwt>
<rscale>  2 0.46047208E+03</rscale>
<asrwt>0</asrwt>
<pdfrwt beam="1">  1       21 0.16478096E+00 0.46047208E+03</pdfrwt>
<pdfrwt beam="2">  1       21 0.69569960E-02 0.46047208E+03</pdfrwt>
<totfact> 0.31814609E+04</totfact>
</mgrwt>
</event>
<event>
 6    0  0.1572624E-007  0.4586298E+03  0.7546771E-02  0.1025179E+00
         21   -1    0    0  502  501  0.00000000000E+00  0.00000000000E+00  0.14696840189E+03  0.14696840189E+03  0.00000000000E+00 0.  1.
         21   -1    0    0  501  502 -0.00000000000E+00 -0.00000000000E+00 -0.35780023328E+03  0.35780023328E+03  0.00000000000E+00 0.  1.
      99926    2    1    2    0    0  0.00000000000E+00 -0.71054273576E-14 -0.21083183139E+03  0.50476863518E+03  0.45862982233E+03 0.  0.
         25    1    3    3    0    0  0.36834194328E+02  0.50939039201E+02 -0.13874992789E+03  0.19710554071E+03  0.12509000000E+03 0.  0.
         25    1    3    3    0    0  0.18145629164E+01 -0.85841462300E+02 -0.80781485970E+02  0.17188718935E+03  0.12509000000E+03 0.  0.
         25    1    3    3    0    0 -0.38648757245E+02  0.34902423099E+02  0.86995824772E+01  0.13577590512E+03  0.12509000000E+03 0.  0.
<mgrwt>
<rscale>  2 0.45862982E+03</rscale>
<asrwt>0</asrwt>
<pdfrwt beam="1">  1       21 0.21613000E-01 0.45862982E+03</pdfrwt>
<pdfrwt beam="2">  1       21 0.52617682E-01 0.45862982E+03</pdfrwt>
<totfact> 0.63099206E+04</totfact>
</mgrwt>
</event>
<event>
 6    0  0.1572624E-007  0.4591979E+03  0.7546771E-02  0.1025014E+00
         21   -1    0    0  502  501  0.00000000000E+00  0.00000000000E+00  0.22929292691E+04  0.22929292691E+04  0.00000000000E+00 0. -1.
         21   -1    0    0  501  502 -0.00000000000E+00 -0.00000000000E+00 -0.22990534326E+02  0.22990534326E+02  0.00000000000E+00 0. -1.
      99926    2    1    2    0    0 -0.14210854715E-13  0.00000000000E+00  0.22699387347E+04  0.23159198034E+04  0.45919786178E+03 0.  0.
         25    1    3    3    0    0  0.70979147950E+02 -0.52132520227E+02  0.11129432712E+04  0.11234082393E+04  0.12509000000E+03 0.  0.
         25    1    3    3    0    0 -0.88847488617E+02  0.53527649236E+02  0.64971190134E+03  0.66972542755E+03  0.12509000000E+03 0.  0.
         25    1    3    3    0    0  0.17868340666E+02 -0.13951290092E+01  0.50728356217E+03  0.52278613651E+03  0.12509000000E+03 0.  0.
<mgrwt>
<rscale>  2 0.45919786E+03</rscale>
<asrwt>0</asrwt>
<pdfrwt beam="1">  1       21 0.33719532E+00 0.45919786E+03</pdfrwt>
<pdfrwt beam="2">  1       21 0.33809625E-02 0.45919786E+03</pdfrwt>
<totfact> 0.89095094E+03</totfact>
</mgrwt>
</event>
<event>
 6    0  0.1572624E-007  0.4740478E+03  0.7546771E-02  0.1020784E+00
         21   -1    0    0  502  501  0.00000000000E+00  0.00000000000E+00  0.80842483913E+03  0.80842483913E+03  0.00000000000E+00 0. -1.
         21   -1    0    0  501  502 -0.00000000000E+00 -0.00000000000E+00 -0.69493560423E+02  0.69493560423E+02  0.00000000000E+00 0. -1.
      99926    2    1    2    0    0 -0.39968028887E-14  0.00000000000E+00  0.73893127871E+03  0.87791839955E+03  0.47404776302E+03 0.  0.
         25    1    3    3    0    0  0.59986890013E+02 -0.10254878750E+03  0.27396665724E+03  0.32375904338E+03  0.12509000000E+03 0.  0.
         25    1    3    3    0    0 -0.19824171080E+01  0.63459538063E+02  0.13623594854E+03  0.19554739764E+03  0.12509000000E+03 0.  0.
         25    1    3    3    0    0 -0.58004472905E+02  0.39089249439E+02  0.32872867292E+03  0.35861195853E+03  0.12509000000E+03 0.  0.
<mgrwt>
<rscale>  2 0.47404776E+03</rscale>
<asrwt>0</asrwt>
<pdfrwt beam="1">  1       21 0.11888600E+00 0.47404776E+03</pdfrwt>
<pdfrwt beam="2">  1       21 0.10219642E-01 0.47404776E+03</pdfrwt>
<totfact> 0.38179514E+04</totfact>
</mgrwt>
</event>
<event>
 6    0  0.1572624E-007  0.4517860E+03  0.7546771E-02  0.1027191E+00
         21   -1    0    0  502  501  0.00000000000E+00  0.00000000000E+00  0.17494663214E+03  0.17494663214E+03  0.00000000000E+00 0.  1.
         21   -1    0    0  501  502 -0.00000000000E+00 -0.00000000000E+00 -0.29167551930E+03  0.29167551930E+03  0.00000000000E+00 0.  1.
      99926    2    1    2    0    0  0.00000000000E+00  0.17763568394E-14 -0.11672888716E+03  0.46662215145E+03  0.45178601032E+03 0.  0.
         25    1    3    3    0    0  0.70324370113E+00  0.19012018584E+02  0.19716511518E+02  0.12805545802E+03  0.12509000000E+03 0.  0.
         25    1    3    3    0    0 -0.15828331094E+02 -0.27528854192E+02 -0.16461498081E+03  0.20917450582E+03  0.12509000000E+03 0.  0.
         25    1    3    3    0    0  0.15125087393E+02  0.85168356083E+01  0.28169582127E+02  0.12939218761E+03  0.12509000000E+03 0.  0.
<mgrwt>
<rscale>  2 0.45178601E+03</rscale>
<asrwt>0</asrwt>
<pdfrwt beam="1">  1       21 0.25727446E-01 0.45178601E+03</pdfrwt>
<pdfrwt beam="2">  1       21 0.42893458E-01 0.45178601E+03</pdfrwt>
<totfact> 0.69441437E+04</totfact>
</mgrwt>
</event>
<event>
 6    0  0.1572624E-007  0.4558893E+03  0.7546771E-02  0.1025980E+00
         21   -1    0    0  502  501  0.00000000000E+00  0.00000000000E+00  0.46570677512E+03  0.46570677512E+03  0.00000000000E+00 0. -1.
         21   -1    0    0  501  502 -0.00000000000E+00 -0.00000000000E+00 -0.11156968058E+03  0.11156968058E+03  0.00000000000E+00 0. -1.
      99926    2    1    2    0    0  0.00000000000E+00  0.00000000000E+00  0.35413709454E+03  0.57727645570E+03  0.45588926789E+03 0.  0.
         25    1    3    3    0    0 -0.37340511055E+02 -0.22574809988E+02  0.94376967987E+02  0.16266055452E+03  0.12509000000E+03 0.  0.
         25    1    3    3    0    0  0.83536743020E+02  0.64914620497E+02  0.20950633091E+03  0.26595621102E+03  0.12509000000E+03 0.  0.
         25    1    3    3    0    0 -0.46196231965E+02 -0.42339810509E+02  0.50253795645E+02  0.14865969016E+03  0.12509000000E+03 0.  0.
<mgrwt>
<rscale>  2 0.45588927E+03</rscale>
<asrwt>0</asrwt>
<pdfrwt beam="1">  1       21 0.68486289E-01 0.45588927E+03</pdfrwt>
<pdfrwt beam="2">  1       21 0.16407306E-01 0.45588927E+03</pdfrwt>
<totfact> 0.59678528E+04</totfact>
</mgrwt>
</event>
<event>
 6    0  0.1572624E-007  0.4470174E+03  0.7546771E-02  0.1028615E+00
         21   -1    0    0  502  501  0.00000000000E+00  0.00000000000E+00  0.35204683796E+03  0.35204683796E+03  0.00000000000E+00 0. -1.
         21   -1    0    0  501  502 -0.00000000000E+00 -0.00000000000E+00 -0.14190198227E+03  0.14190198227E+03  0.00000000000E+00 0. -1.
      99926    2    1    2    0    0 -0.71054273576E-14  0.00000000000E+00  0.21014485569E+03  0.49394882023E+03  0.44701742319E+03 0.  0.
         25    1    3    3    0    0 -0.53361879124E+02  0.60672711255E+02  0.74645101070E+02  0.16657751123E+03  0.12509000000E+03 0.  0.
         25    1    3    3    0    0  0.45411954014E+02 -0.23970884622E+02 -0.53002034366E+01  0.13532349808E+03  0.12509000000E+03 0.  0.
         25    1    3    3    0    0  0.79499251102E+01 -0.36701826633E+02  0.14079995806E+03  0.19204781092E+03  0.12509000000E+03 0.  0.
<mgrwt>
<rscale>  2 0.44701742E+03</rscale>
<asrwt>0</asrwt>
<pdfrwt beam="1">  1       21 0.51771594E-01 0.44701742E+03</pdfrwt>
<pdfrwt beam="2">  1       21 0.20867939E-01 0.44701742E+03</pdfrwt>
<totfact> 0.70031504E+04</totfact>
</mgrwt>
</event>
<event>
 6    0  0.1572624E-007  0.4685121E+03  0.7546771E-02  0.1022341E+00
         21   -1    0    0  502  501  0.00000000000E+00  0.00000000000E+00  0.13393349952E+04  0.13393349952E+04  0.00000000000E+00 0. -1.
         21   -1    0    0  501  502 -0.00000000000E+00 -0.00000000000E+00 -0.40972491544E+02  0.40972491544E+02  0.00000000000E+00 0. -1.
      99926    2    1    2    0    0  0.00000000000E+00  0.00000000000E+00  0.12983625036E+04  0.13803074867E+04  0.46851207781E+03 0.  0.
         25    1    3    3    0    0 -0.99360571641E+02  0.33792655055E+02  0.27550926144E+03  0.32026134323E+03  0.12509000000E+03 0.  0.
         25    1    3    3    0    0  0.57592893559E+02 -0.46524857934E+02  0.56618359841E+03  0.58454501880E+03  0.12509000000E+03 0.  0.
         25    1    3    3    0    0  0.41767678081E+02  0.12732202880E+02  0.45666964378E+03  0.47550112468E+03  0.12509000000E+03 0.  0.
<mgrwt>
<rscale>  2 0.46851208E+03</rscale>
<asrwt>0</asrwt>
<pdfrwt beam="1">  1       21 0.19696100E+00 0.46851208E+03</pdfrwt>
<pdfrwt beam="2">  1       21 0.60253673E-02 0.46851208E+03</pdfrwt>
<totfact> 0.24216819E+04</totfact>
</mgrwt>
</event>
<event>
 6    0  0.1572624E-007  0.4312884E+03  0.7546771E-02  0.1033454E+00
         21   -1    0    0  502  501  0.00000000000E+00  0.00000000000E+00  0.57688669629E+03  0.57688669629E+03  0.00000000000E+00 0. -1.
         21   -1    0    0  501  502 -0.00000000000E+00 -0.00000000000E+00 -0.80609297289E+02  0.80609297289E+02  0.00000000000E+00 0. -1.
      99926    2    1    2    0    0  0.00000000000E+00 -0.71054273576E-14  0.49627739900E+03  0.65749599358E+03  0.43128844735E+03 0.  0.
         25    1    3    3    0    0 -0.31360339513E+02 -0.54215058707E+02  0.25474851912E+03  0.29063217231E+03  0.12509000000E+03 0.  0.
         25    1    3    3    0    0 -0.80134816085E+00  0.37257033434E+02  0.60565544113E+02  0.14389031216E+03  0.12509000000E+03 0.  0.
         25    1    3    3    0    0  0.32161687674E+02  0.16958025273E+02  0.18096333577E+03  0.22297350912E+03  0.12509000000E+03 0.  0.
<mgrwt>
<rscale>  2 0.43128845E+03</rscale>
<asrwt>0</asrwt>
<pdfrwt beam="1">  1       21 0.84836277E-01 0.43128845E+03</pdfrwt>
<pdfrwt beam="2">  1       21 0.11854309E-01 0.43128845E+03</pdfrwt>
<totfact> 0.66928601E+04</totfact>
</mgrwt>
</event>
<event>
 6    0  0.1572624E-007  0.4503384E+03  0.7546771E-02  0.1027621E+00
         21   -1    0    0  502  501  0.00000000000E+00  0.00000000000E+00  0.45909657723E+03  0.45909657723E+03  0.00000000000E+00 0.  1.
         21   -1    0    0  501  502 -0.00000000000E+00 -0.00000000000E+00 -0.11043680749E+03  0.11043680749E+03  0.00000000000E+00 0.  1.
      99926    2    1    2    0    0 -0.14210854715E-13  0.00000000000E+00  0.34865976974E+03  0.56953338473E+03  0.45033836311E+03 0.  0.
         25    1    3    3    0    0  0.73786198190E+02 -0.16104271336E+02  0.67793674749E+02  0.16108147328E+03  0.12509000000E+03 0.  0.
         25    1    3    3    0    0  0.10190456444E+02  0.32270929503E+02  0.19545019361E+03  0.23450702457E+03  0.12509000000E+03 0.  0.
         25    1    3    3    0    0 -0.83976654633E+02 -0.16166658168E+02  0.85415901382E+02  0.17394488687E+03  0.12509000000E+03 0.  0.
<mgrwt>
<rscale>  2 0.45033836E+03</rscale>
<asrwt>0</asrwt>
<pdfrwt beam="1">  1       21 0.67514202E-01 0.45033836E+03</pdfrwt>
<pdfrwt beam="2">  1       21 0.16240707E-01 0.45033836E+03</pdfrwt>
<totfact> 0.62879997E+04</totfact>
</mgrwt>
</event>
<event>
 6    0  0.1572624E-007  0.4491074E+03  0.7546771E-02  0.1027989E+00
         21   -1    0    0  502  501  0.00000000000E+00  0.00000000000E+00  0.42265775842E+02  0.42265775842E+02  0.00000000000E+00 0.  1.
         21   -1    0    0  501  502 -0.00000000000E+00 -0.00000000000E+00 -0.11930307929E+04  0.11930307929E+04  0.00000000000E+00 0.  1.
      99926    2    1    2    0    0 -0.22204460493E-14  0.00000000000E+00 -0.11507650170E+04  0.12352965687E+04  0.44910743510E+03 0.  0.
         25    1    3    3    0    0 -0.22861268086E+02 -0.28049527133E+02 -0.54749508982E+03  0.56276797619E+03  0.12509000000E+03 0.  0.
         25    1    3    3    0    0 -0.38043443441E+01  0.89318134347E+02 -0.34938948230E+03  0.38172335612E+03  0.12509000000E+03 0.  0.
         25    1    3    3    0    0  0.26665612430E+02 -0.61268607214E+02 -0.25388044491E+03  0.29080523641E+03  0.12509000000E+03 0.  0.
<mgrwt>
<rscale>  2 0.44910744E+03</rscale>
<asrwt>0</asrwt>
<pdfrwt beam="1">  1       21 0.62155557E-02 0.44910744E+03</pdfrwt>
<pdfrwt beam="2">  1       21 0.17544569E+00 0.44910744E+03</pdfrwt>
<totfact> 0.32519693E+04</totfact>
</mgrwt>
</event>
<event>
 6    0  0.1572624E-007  0.4557658E+03  0.7546771E-02  0.1026016E+00
         21   -1    0    0  502  501  0.00000000000E+00  0.00000000000E+00  0.52851435790E+03  0.52851435790E+03  0.00000000000E+00 0. -1.
         21   -1    0    0  501  502 -0.00000000000E+00 -0.00000000000E+00 -0.98257715790E+02  0.98257715790E+02  0.00000000000E+00 0. -1.
      99926    2    1    2    0    0  0.00000000000E+00  0.71054273576E-14  0.43025664211E+03  0.62677207369E+03  0.45576578884E+03 0.  0.
         25    1    3    3    0    0 -0.98673288897E+01  0.26793755681E+02  0.21321210340E+03  0.24884167388E+03  0.12509000000E+03 0.  0.
         25    1    3    3    0    0 -0.56756743401E+02  0.94812542935E+01  0.30790536487E+02  0.14109141484E+03  0.12509000000E+03 0.  0.
         25    1    3    3    0    0  0.66624072291E+02 -0.36275009974E+02  0.18625400222E+03  0.23683898497E+03  0.12509000000E+03 0.  0.
<mgrwt>
<rscale>  2 0.45576579E+03</rscale>
<asrwt>0</asrwt>
<pdfrwt beam="1">  1       21 0.77722698E-01 0.45576579E+03</pdfrwt>
<pdfrwt beam="2">  1       21 0.14449664E-01 0.45576579E+03</pdfrwt>
<totfact> 0.56716234E+04</totfact>
</mgrwt>
</event>
<event>
 6    0  0.1572624E-007  0.4469099E+03  0.7546771E-02  0.1028648E+00
         21   -1    0    0  502  501  0.00000000000E+00  0.00000000000E+00  0.27840152186E+03  0.27840152186E+03  0.00000000000E+00 0.  1.
         21   -1    0    0  501  502 -0.00000000000E+00 -0.00000000000E+00 -0.17935289156E+03  0.17935289156E+03  0.00000000000E+00 0.  1.
      99926    2    1    2    0    0  0.14210854715E-13  0.00000000000E+00  0.99048630302E+02  0.45775441341E+03  0.44690991468E+03 0.  0.
         25    1    3    3    0    0 -0.88826095955E+02  0.15124970200E+02  0.70023657919E+01  0.15432232915E+03  0.12509000000E+03 0.  0.
         25    1    3    3    0    0  0.65047034752E+02  0.44461424615E+02  0.57838447732E+02  0.15874737524E+03  0.12509000000E+03 0.  0.
         25    1    3    3    0    0  0.23779061202E+02 -0.59586394815E+02  0.34207816779E+02  0.14468470903E+03  0.12509000000E+03 0.  0.
<mgrwt>
<rscale>  2 0.44690991E+03</rscale>
<asrwt>0</asrwt>
<pdfrwt beam="1">  1       21 0.40941400E-01 0.44690991E+03</pdfrwt>
<pdfrwt beam="2">  1       21 0.26375425E-01 0.44690991E+03</pdfrwt>
<totfact> 0.72926316E+04</totfact>
</mgrwt>
</event>
<event>
 6    0  0.1572624E-007  0.4588264E+03  0.7546771E-02  0.1025122E+00
         21   -1    0    0  502  501  0.00000000000E+00  0.00000000000E+00  0.17730907333E+03  0.17730907333E+03  0.00000000000E+00 0. -1.
         21   -1    0    0  501  502 -0.00000000000E+00 -0.00000000000E+00 -0.29682862724E+03  0.29682862724E+03  0.00000000000E+00 0. -1.
      99926    2    1    2    0    0  0.00000000000E+00  0.71054273576E-14 -0.11951955391E+03  0.47413770058E+03  0.45882636731E+03 0.  0.
         25    1    3    3    0    0 -0.11530600738E+02 -0.10135067405E+02 -0.10051270438E+03  0.16120169412E+03  0.12509000000E+03 0.  0.
         25    1    3    3    0    0  0.39402433085E+02  0.61236298248E+02 -0.76209200877E+02  0.16357807419E+03  0.12509000000E+03 0.  0.
         25    1    3    3    0    0 -0.27871832347E+02 -0.51101230843E+02  0.57202351351E+02  0.14935793227E+03  0.12509000000E+03 0.  0.
<mgrwt>
<rscale>  2 0.45882637E+03</rscale>
<asrwt>0</asrwt>
<pdfrwt beam="1">  1       21 0.26074864E-01 0.45882637E+03</pdfrwt>
<pdfrwt beam="2">  1       21 0.43651268E-01 0.45882637E+03</pdfrwt>
<totfact> 0.65129555E+04</totfact>
</mgrwt>
</event>
<event>
 6    0  0.1572624E-007  0.4554173E+03  0.7546771E-02  0.1026119E+00
         21   -1    0    0  502  501  0.00000000000E+00  0.00000000000E+00  0.11991836350E+03  0.11991836350E+03  0.00000000000E+00 0.  1.
         21   -1    0    0  501  502 -0.00000000000E+00 -0.00000000000E+00 -0.43238774442E+03  0.43238774442E+03  0.00000000000E+00 0.  1.
      99926    2    1    2    0    0 -0.71054273576E-14  0.00000000000E+00 -0.31246938091E+03  0.55230610792E+03  0.45541730625E+03 0.  0.
         25    1    3    3    0    0  0.33759723716E+02  0.55780154660E+01 -0.86553878834E+02  0.15591637259E+03  0.12509000000E+03 0.  0.
         25    1    3    3    0    0  0.25251189877E+02 -0.52120633068E+02 -0.13266511299E+02  0.13848354200E+03  0.12509000000E+03 0.  0.
         25    1    3    3    0    0 -0.59010913592E+02  0.46542617602E+02 -0.21264899078E+03  0.25790619333E+03  0.12509000000E+03 0.  0.
<mgrwt>
<rscale>  2 0.45541731E+03</rscale>
<asrwt>0</asrwt>
<pdfrwt beam="1">  1       21 0.17635053E-01 0.45541731E+03</pdfrwt>
<pdfrwt beam="2">  1       21 0.63586434E-01 0.45541731E+03</pdfrwt>
<totfact> 0.61511049E+04</totfact>
</mgrwt>
</event>
<event>
 6    0  0.1572624E-007  0.4565175E+03  0.7546771E-02  0.1025796E+00
         21   -1    0    0  502  501  0.00000000000E+00  0.00000000000E+00  0.16234614982E+03  0.16234614982E+03  0.00000000000E+00 0. -1.
         21   -1    0    0  501  502 -0.00000000000E+00 -0.00000000000E+00 -0.32093188692E+03  0.32093188692E+03  0.00000000000E+00 0. -1.
      99926    2    1    2    0    0  0.00000000000E+00  0.35527136788E-14 -0.15858573710E+03  0.48327803674E+03  0.45651749669E+03 0.  0.
         25    1    3    3    0    0 -0.51560998141E+02  0.14394001147E+02 -0.11221961607E+03  0.17637027564E+03  0.12509000000E+03 0.  0.
         25    1    3    3    0    0  0.15705479783E+02  0.17987746333E+02 -0.10056955100E+03  0.16227126610E+03  0.12509000000E+03 0.  0.
         25    1    3    3    0    0  0.35855518358E+02 -0.32381747480E+02  0.54203429968E+02  0.14463649500E+03  0.12509000000E+03 0.  0.
<mgrwt>
<rscale>  2 0.45651750E+03</rscale>
<asrwt>0</asrwt>
<pdfrwt beam="1">  1       21 0.23874434E-01 0.45651750E+03</pdfrwt>
<pdfrwt beam="2">  1       21 0.47195866E-01 0.45651750E+03</pdfrwt>
<totfact> 0.65667655E+04</totfact>
</mgrwt>
</event>
<event>
 6    0  0.1572624E-007  0.4509225E+03  0.7546771E-02  0.1027447E+00
         21   -1    0    0  502  501  0.00000000000E+00  0.00000000000E+00  0.39304614160E+03  0.39304614160E+03  0.00000000000E+00 0.  1.
         21   -1    0    0  501  502 -0.00000000000E+00 -0.00000000000E+00 -0.12933027368E+03  0.12933027368E+03  0.00000000000E+00 0.  1.
      99926    2    1    2    0    0  0.00000000000E+00 -0.35527136788E-14  0.26371586792E+03  0.52237641527E+03  0.45092245480E+03 0.  0.
         25    1    3    3    0    0 -0.89948550007E+02 -0.65269739836E+02  0.98982097939E+02  0.19441153361E+03  0.12509000000E+03 0.  0.
         25    1    3    3    0    0  0.67390619159E+02  0.28729254868E+02  0.12050551303E+03  0.18850982045E+03  0.12509000000E+03 0.  0.
         25    1    3    3    0    0  0.22557930848E+02  0.36540484968E+02  0.44228256954E+02  0.13945506122E+03  0.12509000000E+03 0.  0.
<mgrwt>
<rscale>  2 0.45092245E+03</rscale>
<asrwt>0</asrwt>
<pdfrwt beam="1">  1       21 0.57800903E-01 0.45092245E+03</pdfrwt>
<pdfrwt beam="2">  1       21 0.19019158E-01 0.45092245E+03</pdfrwt>
<totfact> 0.65827749E+04</totfact>
</mgrwt>
</event>
<event>
 6    0  0.1572624E-007  0.4520569E+03  0.7546771E-02  0.1027110E+00
         21   -1    0    0  502  501  0.00000000000E+00  0.00000000000E+00  0.78971777318E+03  0.78971777318E+03  0.00000000000E+00 0.  1.
         21   -1    0    0  501  502 -0.00000000000E+00 -0.00000000000E+00 -0.64692541882E+02  0.64692541882E+02  0.00000000000E+00 0.  1.
      99926    2    1    2    0    0  0.00000000000E+00  0.00000000000E+00  0.72502523130E+03  0.85441031506E+03  0.45205685535E+03 0.  0.
         25    1    3    3    0    0  0.25910248771E+02 -0.10077874182E+02  0.34860377196E+03  0.37140948085E+03  0.12509000000E+03 0.  0.
         25    1    3    3    0    0 -0.51160133537E+02  0.84387711641E+01  0.31183267003E+03  0.33996425447E+03  0.12509000000E+03 0.  0.
         25    1    3    3    0    0  0.25249884766E+02  0.16391030179E+01  0.64588789309E+02  0.14303657974E+03  0.12509000000E+03 0.  0.
<mgrwt>
<rscale>  2 0.45205686E+03</rscale>
<asrwt>0</asrwt>
<pdfrwt beam="1">  1       21 0.11613496E+00 0.45205686E+03</pdfrwt>
<pdfrwt beam="2">  1       21 0.95136096E-02 0.45205686E+03</pdfrwt>
<totfact> 0.46302451E+04</totfact>
</mgrwt>
</event>
<event>
 6    0  0.1572624E-007  0.4296736E+03  0.7546771E-02  0.1033963E+00
         21   -1    0    0  502  501  0.00000000000E+00  0.00000000000E+00  0.12803276480E+03  0.12803276480E+03  0.00000000000E+00 0.  1.
         21   -1    0    0  501  502 -0.00000000000E+00 -0.00000000000E+00 -0.36049247512E+03  0.36049247512E+03  0.00000000000E+00 0.  1.
      99926    2    1    2    0    0  0.00000000000E+00  0.00000000000E+00 -0.23245971032E+03  0.48852523991E+03  0.42967358903E+03 0.  0.
         25    1    3    3    0    0  0.51099684755E+02  0.18431428775E+02 -0.28133760568E+02  0.13924766401E+03  0.12509000000E+03 0.  0.
         25    1    3    3    0    0 -0.48601035999E+01 -0.39948405190E+02 -0.41695865009E+02  0.13786061418E+03  0.12509000000E+03 0.  0.
         25    1    3    3    0    0 -0.46239581155E+02  0.21516976414E+02 -0.16263008474E+03  0.21141696172E+03  0.12509000000E+03 0.  0.
<mgrwt>
<rscale>  2 0.42967359E+03</rscale>
<asrwt>0</asrwt>
<pdfrwt beam="1">  1       21 0.18828348E-01 0.42967359E+03</pdfrwt>
<pdfrwt beam="2">  1       21 0.53013599E-01 0.42967359E+03</pdfrwt>
<totfact> 0.81225406E+04</totfact>
</mgrwt>
</event>
<event>
 6    0  0.1572624E-007  0.4610549E+03  0.7546771E-02  0.1024476E+00
         21   -1    0    0  502  501  0.00000000000E+00  0.00000000000E+00  0.36482145289E+02  0.36482145289E+02  0.00000000000E+00 0. -1.
         21   -1    0    0  501  502 -0.00000000000E+00 -0.00000000000E+00 -0.14566822732E+04  0.14566822732E+04  0.00000000000E+00 0. -1.
      99926    2    1    2    0    0  0.00000000000E+00 -0.35527136788E-14 -0.14202001279E+04  0.14931644185E+04  0.46105485284E+03 0.  0.
         25    1    3    3    0    0  0.30273366395E+02 -0.23067356115E+02 -0.27765031537E+03  0.30689702728E+03  0.12509000000E+03 0.  0.
         25    1    3    3    0    0  0.72183844711E+02 -0.31922310544E+02 -0.55919913272E+03  0.57842952853E+03  0.12509000000E+03 0.  0.
         25    1    3    3    0    0 -0.10245721111E+03  0.54989666659E+02 -0.58335067984E+03  0.60783786269E+03  0.12509000000E+03 0.  0.
<mgrwt>
<rscale>  2 0.46105485E+03</rscale>
<asrwt>0</asrwt>
<pdfrwt beam="1">  1       21 0.53650226E-02 0.46105485E+03</pdfrwt>
<pdfrwt beam="2">  1       21 0.21421793E+00 0.46105485E+03</pdfrwt>
<totfact> 0.22853313E+04</totfact>
</mgrwt>
</event>
<event>
 6    0  0.1572624E-007  0.4550989E+03  0.7546771E-02  0.1026212E+00
         21   -1    0    0  502  501  0.00000000000E+00  0.00000000000E+00  0.37136277554E+03  0.37136277554E+03  0.00000000000E+00 0. -1.
         21   -1    0    0  501  502 -0.00000000000E+00 -0.00000000000E+00 -0.13942906163E+03  0.13942906163E+03  0.00000000000E+00 0. -1.
      99926    2    1    2    0    0  0.14210854715E-13 -0.14210854715E-13  0.23193371391E+03  0.51079183717E+03  0.45509894888E+03 0.  0.
         25    1    3    3    0    0  0.81233665447E+02 -0.74413587618E+02  0.85401102786E+02  0.18728893956E+03  0.12509000000E+03 0.  0.
         25    1    3    3    0    0 -0.35163195725E+02 -0.10442370556E+02  0.63710810345E+02  0.14509331098E+03  0.12509000000E+03 0.  0.
         25    1    3    3    0    0 -0.46070469722E+02  0.84855958174E+02  0.82821800775E+02  0.17840958663E+03  0.12509000000E+03 0.  0.
<mgrwt>
<rscale>  2 0.45509895E+03</rscale>
<asrwt>0</asrwt>
<pdfrwt beam="1">  1       21 0.54612173E-01 0.45509895E+03</pdfrwt>
<pdfrwt beam="2">  1       21 0.20504274E-01 0.45509895E+03</pdfrwt>
<totfact> 0.64468318E+04</totfact>
</mgrwt>
</event>
<event>
 6    0  0.1572624E-007  0.4552986E+03  0.7546771E-02  0.1026154E+00
         21   -1    0    0  502  501  0.00000000000E+00  0.00000000000E+00  0.15996234072E+03  0.15996234072E+03  0.00000000000E+00 0.  1.
         21   -1    0    0  501  502 -0.00000000000E+00 -0.00000000000E+00 -0.32397750429E+03  0.32397750429E+03  0.00000000000E+00 0.  1.
      99926    2    1    2    0    0 -0.53290705182E-14  0.00000000000E+00 -0.16401516357E+03  0.48393984502E+03  0.45529858304E+03 0.  0.
         25    1    3    3    0    0  0.74759685573E+01 -0.84313543994E+02 -0.57540140245E+02  0.16162623440E+03  0.12509000000E+03 0.  0.
         25    1    3    3    0    0 -0.50399701611E+02  0.35524328525E+02 -0.11547587420E+03  0.18106433514E+03  0.12509000000E+03 0.  0.
         25    1    3    3    0    0  0.42923733054E+02  0.48789215469E+02  0.90008508738E+01  0.14124927547E+03  0.12509000000E+03 0.  0.
<mgrwt>
<rscale>  2 0.45529858E+03</rscale>
<asrwt>0</asrwt>
<pdfrwt beam="1">  1       21 0.23523874E-01 0.45529858E+03</pdfrwt>
<pdfrwt beam="2">  1       21 0.47643750E-01 0.45529858E+03</pdfrwt>
<totfact> 0.66257229E+04</totfact>
</mgrwt>
</event>
<event>
 6    0  0.1572624E-007  0.4523575E+03  0.7546771E-02  0.1027021E+00
         21   -1    0    0  502  501  0.00000000000E+00  0.00000000000E+00  0.12560761250E+04  0.12560761250E+04  0.00000000000E+00 0.  1.
         21   -1    0    0  501  502 -0.00000000000E+00 -0.00000000000E+00 -0.40727489636E+02  0.40727489636E+02  0.00000000000E+00 0.  1.
      99926    2    1    2    0    0 -0.35527136788E-14  0.00000000000E+00  0.12153486354E+04  0.12968036147E+04  0.45235750182E+03 0.  0.
         25    1    3    3    0    0 -0.17639573806E+02  0.42692149157E+02  0.53574899838E+03  0.55209444077E+03  0.12509000000E+03 0.  0.
         25    1    3    3    0    0 -0.61935996839E+02 -0.37857984935E+02  0.23418572549E+03  0.27524490340E+03  0.12509000000E+03 0.  0.
         25    1    3    3    0    0  0.79575570646E+02 -0.48341642224E+01  0.44541391153E+03  0.46946427050E+03  0.12509000000E+03 0.  0.
<mgrwt>
<rscale>  2 0.45235750E+03</rscale>
<asrwt>0</asrwt>
<pdfrwt beam="1">  1       21 0.18471705E+00 0.45235750E+03</pdfrwt>
<pdfrwt beam="2">  1       21 0.59893375E-02 0.45235750E+03</pdfrwt>
<totfact> 0.29815733E+04</totfact>
</mgrwt>
</event>
<event>
 6    0  0.1572624E-007  0.4651531E+03  0.7546771E-02  0.1023297E+00
         21   -1    0    0  502  501  0.00000000000E+00  0.00000000000E+00  0.32551229864E+02  0.32551229864E+02  0.00000000000E+00 0. -1.
         21   -1    0    0  501  502 -0.00000000000E+00 -0.00000000000E+00 -0.16617449916E+04  0.16617449916E+04  0.00000000000E+00 0. -1.
      99926    2    1    2    0    0 -0.88817841970E-15  0.71054273576E-14 -0.16291937617E+04  0.16942962215E+04  0.46515306383E+03 0.  0.
         25    1    3    3    0    0  0.11925067058E+02 -0.10588534851E+03 -0.35558914880E+03  0.39172064676E+03  0.12509000000E+03 0.  0.
         25    1    3    3    0    0 -0.16617500927E+02  0.45371814915E+02 -0.63866559673E+03  0.65259175253E+03  0.12509000000E+03 0.  0.
         25    1    3    3    0    0  0.46924338687E+01  0.60513533599E+02 -0.63493901622E+03  0.64998382218E+03  0.12509000000E+03 0.  0.
<mgrwt>
<rscale>  2 0.46515306E+03</rscale>
<asrwt>0</asrwt>
<pdfrwt beam="1">  1       21 0.47869447E-02 0.46515306E+03</pdfrwt>
<pdfrwt beam="2">  1       21 0.24437431E+00 0.46515306E+03</pdfrwt>
<totfact> 0.17925311E+04</totfact>
</mgrwt>
</event>
<event>
 6    0  0.1572624E-007  0.4386547E+03  0.7546771E-02  0.1031160E+00
         21   -1    0    0  502  501  0.00000000000E+00  0.00000000000E+00  0.19763854119E+03  0.19763854119E+03  0.00000000000E+00 0.  1.
         21   -1    0    0  501  502 -0.00000000000E+00 -0.00000000000E+00 -0.24339627639E+03  0.24339627639E+03  0.00000000000E+00 0.  1.
      99926    2    1    2    0    0  0.00000000000E+00  0.00000000000E+00 -0.45757735201E+02  0.44103481758E+03  0.43865469334E+03 0.  0.
         25    1    3    3    0    0 -0.15153438022E+02 -0.57050509527E+02 -0.63919734669E+02  0.15237331755E+03  0.12509000000E+03 0.  0.
         25    1    3    3    0    0  0.25322245600E+02  0.68952281048E+02 -0.39041588575E+02  0.15022445514E+03  0.12509000000E+03 0.  0.
         25    1    3    3    0    0 -0.10168807579E+02 -0.11901771521E+02  0.57203588043E+02  0.13843704489E+03  0.12509000000E+03 0.  0.
<mgrwt>
<rscale>  2 0.43865469E+03</rscale>
<asrwt>0</asrwt>
<pdfrwt beam="1">  1       21 0.29064492E-01 0.43865469E+03</pdfrwt>
<pdfrwt beam="2">  1       21 0.35793570E-01 0.43865469E+03</pdfrwt>
<totfact> 0.79447401E+04</totfact>
</mgrwt>
</event>
<event>
 6    0  0.1572624E-007  0.4383095E+03  0.7546771E-02  0.1031267E+00
         21   -1    0    0  502  501  0.00000000000E+00  0.00000000000E+00  0.84962193310E+02  0.84962193310E+02  0.00000000000E+00 0. -1.
         21   -1    0    0  501  502 -0.00000000000E+00 -0.00000000000E+00 -0.56529611093E+03  0.56529611093E+03  0.00000000000E+00 0. -1.
      99926    2    1    2    0    0  0.00000000000E+00  0.00000000000E+00 -0.48033391762E+03  0.65025830424E+03  0.43830946809E+03 0.  0.
         25    1    3    3    0    0  0.46304261332E+01  0.75688763997E+02 -0.16210499125E+03  0.21834780999E+03  0.12509000000E+03 0.  0.
         25    1    3    3    0    0  0.40809696793E+02 -0.15176242089E+02 -0.21649747208E+03  0.25379994719E+03  0.12509000000E+03 0.  0.
         25    1    3    3    0    0 -0.45440122926E+02 -0.60512521908E+02 -0.10173145428E+03  0.17811054705E+03  0.12509000000E+03 0.  0.
<mgrwt>
<rscale>  2 0.43830947E+03</rscale>
<asrwt>0</asrwt>
<pdfrwt beam="1">  1       21 0.12494440E-01 0.43830947E+03</pdfrwt>
<pdfrwt beam="2">  1       21 0.83131783E-01 0.43830947E+03</pdfrwt>
<totfact> 0.63660377E+04</totfact>
</mgrwt>
</event>
<event>
 6    0  0.1572624E-007  0.4603643E+03  0.7546771E-02  0.1024676E+00
         21   -1    0    0  502  501  0.00000000000E+00  0.00000000000E+00  0.10177124459E+04  0.10177124459E+04  0.00000000000E+00 0. -1.
         21   -1    0    0  501  502 -0.00000000000E+00 -0.00000000000E+00 -0.52061689497E+02  0.52061689497E+02  0.00000000000E+00 0. -1.
      99926    2    1    2    0    0  0.00000000000E+00  0.00000000000E+00  0.96565075641E+03  0.10697741354E+04  0.46036433118E+03 0.  0.
         25    1    3    3    0    0  0.72942969519E+02  0.15071883142E+02  0.15376610358E+03  0.21175306650E+03  0.12509000000E+03 0.  0.
         25    1    3    3    0    0 -0.66031357062E+02  0.87593696573E+01  0.53019358620E+03  0.54880744676E+03  0.12509000000E+03 0.  0.
         25    1    3    3    0    0 -0.69116124573E+01 -0.23831252800E+02  0.28169106663E+03  0.30921362214E+03  0.12509000000E+03 0.  0.
<mgrwt>
<rscale>  2 0.46036433E+03</rscale>
<asrwt>0</asrwt>
<pdfrwt beam="1">  1       21 0.14966358E+00 0.46036433E+03</pdfrwt>
<pdfrwt beam="2">  1       21 0.76561314E-02 0.46036433E+03</pdfrwt>
<totfact> 0.35068890E+04</totfact>
</mgrwt>
</event>
<event>
 6    0  0.1572624E-007  0.4686720E+03  0.7546771E-02  0.1022296E+00
         21   -1    0    0  502  501  0.00000000000E+00  0.00000000000E+00  0.24651638690E+03  0.24651638690E+03  0.00000000000E+00 0.  1.
         21   -1    0    0  501  502 -0.00000000000E+00 -0.00000000000E+00 -0.22275744567E+03  0.22275744567E+03  0.00000000000E+00 0.  1.
      99926    2    1    2    0    0  0.00000000000E+00  0.00000000000E+00  0.23758941224E+02  0.46927383257E+03  0.46867199900E+03 0.  0.
         25    1    3    3    0    0  0.94432672923E+01  0.11954134319E+03 -0.12078389132E+02  0.17370291769E+03  0.12509000000E+03 0.  0.
         25    1    3    3    0    0 -0.35963233451E+02 -0.56303841519E+02 -0.18303867229E+02  0.14298956740E+03  0.12509000000E+03 0.  0.
         25    1    3    3    0    0  0.26519966159E+02 -0.63237501675E+02  0.54141197584E+02  0.15258134748E+03  0.12509000000E+03 0.  0.
<mgrwt>
<rscale>  2 0.46867200E+03</rscale>
<asrwt>0</asrwt>
<pdfrwt beam="1">  1       21 0.36252410E-01 0.46867200E+03</pdfrwt>
<pdfrwt beam="2">  1       21 0.32758448E-01 0.46867200E+03</pdfrwt>
<totfact> 0.60624351E+04</totfact>
</mgrwt>
</event>
<event>
 6    0  0.1572624E-007  0.4551875E+03  0.7546771E-02  0.1026186E+00
         21   -1    0    0  502  501  0.00000000000E+00  0.00000000000E+00  0.69757016347E+03  0.69757016347E+03  0.00000000000E+00 0.  1.
         21   -1    0    0  501  502 -0.00000000000E+00 -0.00000000000E+00 -0.74256200022E+02  0.74256200022E+02  0.00000000000E+00 0.  1.
      99926    2    1    2    0    0 -0.13322676296E-14  0.00000000000E+00  0.62331396344E+03  0.77182636349E+03  0.45518747605E+03 0.  0.
         25    1    3    3    0    0  0.45734090598E+02 -0.32826357616E+02  0.28097009132E+03  0.31266735857E+03  0.12509000000E+03 0.  0.
         25    1    3    3    0    0 -0.11590872428E+01  0.90239504086E+02  0.22542913117E+03  0.27314888405E+03  0.12509000000E+03 0.  0.
         25    1    3    3    0    0 -0.44575003355E+02 -0.57413146470E+02  0.11691474096E+03  0.18601012087E+03  0.12509000000E+03 0.  0.
<mgrwt>
<rscale>  2 0.45518748E+03</rscale>
<asrwt>0</asrwt>
<pdfrwt beam="1">  1       21 0.10258384E+00 0.45518748E+03</pdfrwt>
<pdfrwt beam="2">  1       21 0.10920030E-01 0.45518748E+03</pdfrwt>
<totfact> 0.49085426E+04</totfact>
</mgrwt>
</event>
<event>
 6    0  0.1572624E-007  0.4757732E+03  0.7546771E-02  0.1020303E+00
         21   -1    0    0  502  501  0.00000000000E+00  0.00000000000E+00  0.97217162433E+02  0.97217162433E+02  0.00000000000E+00 0.  1.
         21   -1    0    0  501  502 -0.00000000000E+00 -0.00000000000E+00 -0.58209915314E+03  0.58209915314E+03  0.00000000000E+00 0.  1.
      99926    2    1    2    0    0  0.00000000000E+00  0.00000000000E+00 -0.48488199070E+03  0.67931631557E+03  0.47577317252E+03 0.  0.
         25    1    3    3    0    0  0.28327314883E+02  0.89258977373E+02 -0.24691830758E+03  0.29220841967E+03  0.12509000000E+03 0.  0.
         25    1    3    3    0    0 -0.87546852181E+02 -0.55291081713E+02 -0.13703937029E+03  0.21248259259E+03  0.12509000000E+03 0.  0.
         25    1    3    3    0    0  0.59219537298E+02 -0.33967895660E+02 -0.10092431283E+03  0.17462530330E+03  0.12509000000E+03 0.  0.
<mgrwt>
<rscale>  2 0.47577317E+03</rscale>
<asrwt>0</asrwt>
<pdfrwt beam="1">  1       21 0.14296642E-01 0.47577317E+03</pdfrwt>
<pdfrwt beam="2">  1       21 0.85602814E-01 0.47577317E+03</pdfrwt>
<totfact> 0.46028646E+04</totfact>
</mgrwt>
</event>
<event>
 6    0  0.1572624E-007  0.4569278E+03  0.7546771E-02  0.1025676E+00
         21   -1    0    0  502  501  0.00000000000E+00  0.00000000000E+00  0.24471786721E+04  0.24471786721E+04  0.00000000000E+00 0.  1.
         21   -1    0    0  501  502 -0.00000000000E+00 -0.00000000000E+00 -0.21328950762E+02  0.21328950762E+02  0.00000000000E+00 0.  1.
      99926    2    1    2    0    0 -0.17763568394E-14  0.00000000000E+00  0.24258497214E+04  0.24685076229E+04  0.45692779913E+03 0.  0.
         25    1    3    3    0    0  0.15312167266E+02  0.10563436979E+03  0.83433591301E+03  0.85038638652E+03  0.12509000000E+03 0.  0.
         25    1    3    3    0    0  0.22498663509E+02 -0.99465128842E+02  0.88765585296E+03  0.90220835903E+03  0.12509000000E+03 0.  0.
         25    1    3    3    0    0 -0.37810830775E+02 -0.61692409450E+01  0.70385795539E+03  0.71591287732E+03  0.12509000000E+03 0.  0.
<mgrwt>
<rscale>  2 0.45692780E+03</rscale>
<asrwt>0</asrwt>
<pdfrwt beam="1">  1       21 0.35987902E+00 0.45692780E+03</pdfrwt>
<pdfrwt beam="2">  1       21 0.31366121E-02 0.45692780E+03</pdfrwt>
<totfact> 0.73487066E+03</totfact>
</mgrwt>
</event>
<event>
 6    0  0.1572624E-007  0.4592399E+03  0.7546771E-02  0.1025002E+00
         21   -1    0    0  502  501  0.00000000000E+00  0.00000000000E+00  0.34072059139E+03  0.34072059139E+03  0.00000000000E+00 0.  1.
         21   -1    0    0  501  502 -0.00000000000E+00 -0.00000000000E+00 -0.15474652719E+03  0.15474652719E+03  0.00000000000E+00 0.  1.
      99926    2    1    2    0    0  0.71054273576E-14  0.88817841970E-15  0.18597406420E+03  0.49546711859E+03  0.45923992972E+03 0.  0.
         25    1    3    3    0    0 -0.26481022264E+02  0.76763056027E+01 -0.13507316519E+02  0.12880266266E+03  0.12509000000E+03 0.  0.
         25    1    3    3    0    0  0.73019255032E+02 -0.17705581496E+01  0.18095137937E+03  0.23178838684E+03  0.12509000000E+03 0.  0.
         25    1    3    3    0    0 -0.46538232768E+02 -0.59057474531E+01  0.18530001353E+02  0.13487606909E+03  0.12509000000E+03 0.  0.
<mgrwt>
<rscale>  2 0.45923993E+03</rscale>
<asrwt>0</asrwt>
<pdfrwt beam="1">  1       21 0.50105969E-01 0.45923993E+03</pdfrwt>
<pdfrwt beam="2">  1       21 0.22756842E-01 0.45923993E+03</pdfrwt>
<totfact> 0.63428311E+04</totfact>
</mgrwt>
</event>
<event>
 6    0  0.1572624E-007  0.4464477E+03  0.7546771E-02  0.1028787E+00
         21   -1    0    0  502  501  0.00000000000E+00  0.00000000000E+00  0.17543838917E+03  0.17543838917E+03  0.00000000000E+00 0.  1.
         21   -1    0    0  501  502 -0.00000000000E+00 -0.00000000000E+00 -0.28402495567E+03  0.28402495567E+03  0.00000000000E+00 0.  1.
      99926    2    1    2    0    0  0.14210854715E-13  0.71054273576E-14 -0.10858656650E+03  0.45946334484E+03  0.44644767088E+03 0.  0.
         25    1    3    3    0    0  0.90591141286E+02  0.37596988279E+02 -0.78783887523E+02  0.17741109729E+03  0.12509000000E+03 0.  0.
         25    1    3    3    0    0 -0.12925034195E+02  0.21048483025E+01 -0.31046496768E+02  0.12954875513E+03  0.12509000000E+03 0.  0.
         25    1    3    3    0    0 -0.77666107091E+02 -0.39701836582E+02  0.12438177870E+01  0.15250349242E+03  0.12509000000E+03 0.  0.
<mgrwt>
<rscale>  2 0.44644767E+03</rscale>
<asrwt>0</asrwt>
<pdfrwt beam="1">  1       21 0.25799763E-01 0.44644767E+03</pdfrwt>
<pdfrwt beam="2">  1       21 0.41768376E-01 0.44644767E+03</pdfrwt>
<totfact> 0.73059450E+04</totfact>
</mgrwt>
</event>
<event>
 6    0  0.1572624E-007  0.4564489E+03  0.7546771E-02  0.1025816E+00
         21   -1    0    0  502  501  0.00000000000E+00  0.00000000000E+00  0.20218573412E+03  0.20218573412E+03  0.00000000000E+00 0.  1.
         21   -1    0    0  501  502 -0.00000000000E+00 -0.00000000000E+00 -0.25761664258E+03  0.25761664258E+03  0.00000000000E+00 0.  1.
      99926    2    1    2    0    0 -0.71054273576E-14  0.00000000000E+00 -0.55430908460E+02  0.45980237670E+03  0.45644894567E+03 0.  0.
         25    1    3    3    0    0 -0.40485862632E+02  0.42549552071E+02  0.27629363846E+02  0.14092714182E+03  0.12509000000E+03 0.  0.
         25    1    3    3    0    0 -0.44395294330E+02 -0.33831791597E+02 -0.95440642122E+02  0.16694896391E+03  0.12509000000E+03 0.  0.
         25    1    3    3    0    0  0.84881156962E+02 -0.87177604734E+01  0.12380369815E+02  0.15192627097E+03  0.12509000000E+03 0.  0.
<mgrwt>
<rscale>  2 0.45644895E+03</rscale>
<asrwt>0</asrwt>
<pdfrwt beam="1">  1       21 0.29733196E-01 0.45644895E+03</pdfrwt>
<pdfrwt beam="2">  1       21 0.37884800E-01 0.45644895E+03</pdfrwt>
<totfact> 0.67412583E+04</totfact>
</mgrwt>
</event>
<event>
 6    0  0.1572624E-007  0.4563071E+03  0.7546771E-02  0.1025858E+00
         21   -1    0    0  502  501  0.00000000000E+00  0.00000000000E+00  0.40360976286E+03  0.40360976286E+03  0.00000000000E+00 0. -1.
         21   -1    0    0  501  502 -0.00000000000E+00 -0.00000000000E+00 -0.12897122291E+03  0.12897122291E+03  0.00000000000E+00 0. -1.
      99926    2    1    2    0    0 -0.35527136788E-14  0.17763568394E-14  0.27463853995E+03  0.53258098577E+03  0.45630711015E+03 0.  0.
         25    1    3    3    0    0  0.50055774180E+02 -0.85144824881E+02  0.85441314942E+02  0.18083956462E+03  0.12509000000E+03 0.  0.
         25    1    3    3    0    0 -0.26999110966E+02  0.90769799607E+02  0.15353678879E+03  0.21952030003E+03  0.12509000000E+03 0.  0.
         25    1    3    3    0    0 -0.23056663214E+02 -0.56249747257E+01  0.35660436220E+02  0.13222112112E+03  0.12509000000E+03 0.  0.
<mgrwt>
<rscale>  2 0.45630711E+03</rscale>
<asrwt>0</asrwt>
<pdfrwt beam="1">  1       21 0.59354377E-01 0.45630711E+03</pdfrwt>
<pdfrwt beam="2">  1       21 0.18966356E-01 0.45630711E+03</pdfrwt>
<totfact> 0.62383348E+04</totfact>
</mgrwt>
</event>
<event>
 6    0  0.1572624E-007  0.4574518E+03  0.7546771E-02  0.1025523E+00
         21   -1    0    0  502  501  0.00000000000E+00  0.00000000000E+00  0.40140598621E+03  0.40140598621E+03  0.00000000000E+00 0. -1.
         21   -1    0    0  501  502 -0.00000000000E+00 -0.00000000000E+00 -0.13033076025E+03  0.13033076025E+03  0.00000000000E+00 0. -1.
      99926    2    1    2    0    0  0.00000000000E+00  0.00000000000E+00  0.27107522596E+03  0.53173674646E+03  0.45745184381E+03 0.  0.
         25    1    3    3    0    0  0.13342138818E+02 -0.37907592484E+02  0.17846391833E+03  0.22161199535E+03  0.12509000000E+03 0.  0.
         25    1    3    3    0    0 -0.30161919746E+02  0.83155629829E+02  0.86423106222E+02  0.17590071508E+03  0.12509000000E+03 0.  0.
         25    1    3    3    0    0  0.16819780928E+02 -0.45248037346E+02  0.61882014137E+01  0.13422403604E+03  0.12509000000E+03 0.  0.
<mgrwt>
<rscale>  2 0.45745184E+03</rscale>
<asrwt>0</asrwt>
<pdfrwt beam="1">  1       21 0.59030292E-01 0.45745184E+03</pdfrwt>
<pdfrwt beam="2">  1       21 0.19166288E-01 0.45745184E+03</pdfrwt>
<totfact> 0.61877858E+04</totfact>
</mgrwt>
</event>
<event>
 6    0  0.1572624E-007  0.4527659E+03  0.7546771E-02  0.1026900E+00
         21   -1    0    0  502  501  0.00000000000E+00  0.00000000000E+00  0.16800571775E+03  0.16800571775E+03  0.00000000000E+00 0.  1.
         21   -1    0    0  501  502 -0.00000000000E+00 -0.00000000000E+00 -0.30504462787E+03  0.30504462787E+03  0.00000000000E+00 0.  1.
      99926    2    1    2    0    0  0.00000000000E+00  0.35527136788E-14 -0.13703891011E+03  0.47305034562E+03  0.45276590707E+03 0.  0.
         25    1    3    3    0    0  0.18238945080E+02  0.18543870964E+02  0.25747390695E+02  0.13033407266E+03  0.12509000000E+03 0.  0.
         25    1    3    3    0    0 -0.10592154528E+02 -0.32940760869E+02  0.84137733420E+01  0.13005993674E+03  0.12509000000E+03 0.  0.
         25    1    3    3    0    0 -0.76467905524E+01  0.14396889904E+02 -0.17120007415E+03  0.21265633622E+03  0.12509000000E+03 0.  0.
<mgrwt>
<rscale>  2 0.45276591E+03</rscale>
<asrwt>0</asrwt>
<pdfrwt beam="1">  1       21 0.24706723E-01 0.45276591E+03</pdfrwt>
<pdfrwt beam="2">  1       21 0.44859504E-01 0.45276591E+03</pdfrwt>
<totfact> 0.68414467E+04</totfact>
</mgrwt>
</event>
<event>
 6    0  0.1572624E-007  0.4518298E+03  0.7546771E-02  0.1027178E+00
         21   -1    0    0  502  501  0.00000000000E+00  0.00000000000E+00  0.20519638232E+03  0.20519638232E+03  0.00000000000E+00 0. -1.
         21   -1    0    0  501  502 -0.00000000000E+00 -0.00000000000E+00 -0.24872537058E+03  0.24872537058E+03  0.00000000000E+00 0. -1.
      99926    2    1    2    0    0  0.14210854715E-13  0.13322676296E-14 -0.43528988264E+02  0.45392175290E+03  0.45182981856E+03 0.  0.
         25    1    3    3    0    0  0.17790251769E+02  0.29687068572E+02 -0.12614725745E+02  0.13040112923E+03  0.12509000000E+03 0.  0.
         25    1    3    3    0    0 -0.94069685038E+02 -0.27710008893E+02 -0.67197688177E+02  0.17256879101E+03  0.12509000000E+03 0.  0.
         25    1    3    3    0    0  0.76279433269E+02 -0.19770596787E+01  0.36283425657E+02  0.15095183266E+03  0.12509000000E+03 0.  0.
<mgrwt>
<rscale>  2 0.45182982E+03</rscale>
<asrwt>0</asrwt>
<pdfrwt beam="1">  1       21 0.30175939E-01 0.45182982E+03</pdfrwt>
<pdfrwt beam="2">  1       21 0.36577260E-01 0.45182982E+03</pdfrwt>
<totfact> 0.70388456E+04</totfact>
</mgrwt>
</event>
<event>
 6    0  0.1572624E-007  0.4895787E+03  0.7546771E-02  0.1016535E+00
         21   -1    0    0  502  501  0.00000000000E+00  0.00000000000E+00  0.65025548403E+02  0.65025548403E+02  0.00000000000E+00 0. -1.
         21   -1    0    0  501  502 -0.00000000000E+00 -0.00000000000E+00 -0.92151188274E+03  0.92151188274E+03  0.00000000000E+00 0. -1.
      99926    2    1    2    0    0  0.00000000000E+00  0.00000000000E+00 -0.85648633434E+03  0.98653743115E+03  0.48957865777E+03 0.  0.
         25    1    3    3    0    0 -0.49836052389E+02 -0.13705343683E+03 -0.31493301244E+03  0.36891406464E+03  0.12509000000E+03 0.  0.
         25    1    3    3    0    0  0.35141969702E+01  0.88001844010E+02 -0.24631280037E+03  0.28995547564E+03  0.12509000000E+03 0.  0.
         25    1    3    3    0    0  0.46321855419E+02  0.49051592824E+02 -0.29524052154E+03  0.32766789087E+03  0.12509000000E+03 0.  0.
<mgrwt>
<rscale>  2 0.48957866E+03</rscale>
<asrwt>0</asrwt>
<pdfrwt beam="1">  1       21 0.95625809E-02 0.48957866E+03</pdfrwt>
<pdfrwt beam="2">  1       21 0.13551645E+00 0.48957866E+03</pdfrwt>
<totfact> 0.30557259E+04</totfact>
</mgrwt>
</event>
<event>
 6    0  0.1572624E-007  0.4490371E+03  0.7546771E-02  0.1028010E+00
         21   -1    0    0  502  501  0.00000000000E+00  0.00000000000E+00  0.94244155233E+03  0.94244155233E+03  0.00000000000E+00 0.  1.
         21   -1    0    0  501  502 -0.00000000000E+00 -0.00000000000E+00 -0.53487215148E+02  0.53487215148E+02  0.00000000000E+00 0.  1.
      99926    2    1    2    0    0  0.00000000000E+00  0.44408920985E-15  0.88895433718E+03  0.99592876748E+03  0.44903707675E+03 0.  0.
         25    1    3    3    0    0  0.26915416260E+02  0.43507379218E+01  0.54580111864E+03  0.56061549903E+03  0.12509000000E+03 0.  0.
         25    1    3    3    0    0 -0.47600164531E+02  0.19530408667E+01  0.12629468153E+03  0.18403109714E+03  0.12509000000E+03 0.  0.
         25    1    3    3    0    0  0.20684748271E+02 -0.63037787885E+01  0.21685853702E+03  0.25128217131E+03  0.12509000000E+03 0.  0.
<mgrwt>
<rscale>  2 0.44903708E+03</rscale>
<asrwt>0</asrwt>
<pdfrwt beam="1">  1       21 0.13859434E+00 0.44903708E+03</pdfrwt>
<pdfrwt beam="2">  1       21 0.78657675E-02 0.44903708E+03</pdfrwt>
<totfact> 0.41211602E+04</totfact>
</mgrwt>
</event>
<event>
 6    0  0.1572624E-007  0.4534114E+03  0.7546771E-02  0.1026710E+00
         21   -1    0    0  502  501  0.00000000000E+00  0.00000000000E+00  0.53247570380E+03  0.53247570380E+03  0.00000000000E+00 0. -1.
         21   -1    0    0  501  502 -0.00000000000E+00 -0.00000000000E+00 -0.96521712782E+02  0.96521712782E+02  0.00000000000E+00 0. -1.
      99926    2    1    2    0    0  0.17763568394E-14  0.71054273576E-14  0.43595399102E+03  0.62899741658E+03  0.45341136706E+03 0.  0.
         25    1    3    3    0    0  0.26987310890E+02 -0.10245990404E+03  0.12088714789E+03  0.20368494669E+03  0.12509000000E+03 0.  0.
         25    1    3    3    0    0 -0.19837549926E+02  0.44171052468E+02  0.21969991002E+03  0.25741050644E+03  0.12509000000E+03 0.  0.
         25    1    3    3    0    0 -0.71497609647E+01  0.58288851568E+02  0.95366933106E+02  0.16790196345E+03  0.12509000000E+03 0.  0.
<mgrwt>
<rscale>  2 0.45341137E+03</rscale>
<asrwt>0</asrwt>
<pdfrwt beam="1">  1       21 0.78305249E-01 0.45341137E+03</pdfrwt>
<pdfrwt beam="2">  1       21 0.14194370E-01 0.45341137E+03</pdfrwt>
<totfact> 0.57647541E+04</totfact>
</mgrwt>
</event>
<event>
 6    0  0.1572624E-007  0.4476157E+03  0.7546771E-02  0.1028435E+00
         21   -1    0    0  502  501  0.00000000000E+00  0.00000000000E+00  0.16598099418E+03  0.16598099418E+03  0.00000000000E+00 0.  1.
         21   -1    0    0  501  502 -0.00000000000E+00 -0.00000000000E+00 -0.30178121023E+03  0.30178121023E+03  0.00000000000E+00 0.  1.
      99926    2    1    2    0    0  0.00000000000E+00  0.14210854715E-13 -0.13580021605E+03  0.46776220441E+03  0.44761566236E+03 0.  0.
         25    1    3    3    0    0  0.14867192023E+02  0.85814386596E+02 -0.63020771368E+02  0.16493716400E+03  0.12509000000E+03 0.  0.
         25    1    3    3    0    0  0.20752940214E+02  0.17234085194E+02 -0.34345545031E+02  0.13249461417E+03  0.12509000000E+03 0.  0.
         25    1    3    3    0    0 -0.35620132238E+02 -0.10304847179E+03 -0.38433899655E+02  0.17033042624E+03  0.12509000000E+03 0.  0.
<mgrwt>
<rscale>  2 0.44761566E+03</rscale>
<asrwt>0</asrwt>
<pdfrwt beam="1">  1       21 0.24408970E-01 0.44761566E+03</pdfrwt>
<pdfrwt beam="2">  1       21 0.44379589E-01 0.44761566E+03</pdfrwt>
<totfact> 0.71712897E+04</totfact>
</mgrwt>
</event>
<event>
 6    0  0.1572624E-007  0.4514013E+03  0.7546771E-02  0.1027305E+00
         21   -1    0    0  502  501  0.00000000000E+00  0.00000000000E+00  0.17074391266E+03  0.17074391266E+03  0.00000000000E+00 0.  1.
         21   -1    0    0  501  502 -0.00000000000E+00 -0.00000000000E+00 -0.29834615282E+03  0.29834615282E+03  0.00000000000E+00 0.  1.
      99926    2    1    2    0    0  0.00000000000E+00  0.00000000000E+00 -0.12760224017E+03  0.46909006548E+03  0.45140132680E+03 0.  0.
         25    1    3    3    0    0 -0.11622647372E+01 -0.16453805455E+02 -0.13193793682E+02  0.12686080114E+03  0.12509000000E+03 0.  0.
         25    1    3    3    0    0  0.73305289582E+02 -0.23222388834E+02 -0.12397124756E+03  0.19217003707E+03  0.12509000000E+03 0.  0.
         25    1    3    3    0    0 -0.72143024845E+02  0.39676194289E+02  0.95628010769E+01  0.15005922728E+03  0.12509000000E+03 0.  0.
<mgrwt>
<rscale>  2 0.45140133E+03</rscale>
<asrwt>0</asrwt>
<pdfrwt beam="1">  1       21 0.25109399E-01 0.45140133E+03</pdfrwt>
<pdfrwt beam="2">  1       21 0.43874434E-01 0.45140133E+03</pdfrwt>
<totfact> 0.69465657E+04</totfact>
</mgrwt>
</event>
<event>
 6    0  0.1572624E-007  0.4595931E+03  0.7546771E-02  0.1024899E+00
         21   -1    0    0  502  501  0.00000000000E+00  0.00000000000E+00  0.31085882585E+03  0.31085882585E+03  0.00000000000E+00 0. -1.
         21   -1    0    0  501  502 -0.00000000000E+00 -0.00000000000E+00 -0.16987279563E+03  0.16987279563E+03  0.00000000000E+00 0. -1.
      99926    2    1    2    0    0  0.35527136788E-14  0.71054273576E-14  0.14098603021E+03  0.48073162148E+03  0.45959311480E+03 0.  0.
         25    1    3    3    0    0 -0.64030634441E+02 -0.71328085822E+02  0.32802304209E+02  0.16096930526E+03  0.12509000000E+03 0.  0.
         25    1    3    3    0    0  0.40916792149E+02  0.10496947789E+03  0.73470370971E+02  0.18367955433E+03  0.12509000000E+03 0.  0.
         25    1    3    3    0    0  0.23113842292E+02 -0.33641392070E+02  0.34713355032E+02  0.13608276189E+03  0.12509000000E+03 0.  0.
<mgrwt>
<rscale>  2 0.45959311E+03</rscale>
<asrwt>0</asrwt>
<pdfrwt beam="1">  1       21 0.45714533E-01 0.45959311E+03</pdfrwt>
<pdfrwt beam="2">  1       21 0.24981293E-01 0.45959311E+03</pdfrwt>
<totfact> 0.64271699E+04</totfact>
</mgrwt>
</event>
<event>
 6    0  0.1572624E-007  0.4582635E+03  0.7546771E-02  0.1025286E+00
         21   -1    0    0  502  501  0.00000000000E+00  0.00000000000E+00  0.46269224245E+03  0.46269224245E+03  0.00000000000E+00 0. -1.
         21   -1    0    0  501  502 -0.00000000000E+00 -0.00000000000E+00 -0.11346929994E+03  0.11346929994E+03  0.00000000000E+00 0. -1.
      99926    2    1    2    0    0 -0.35527136788E-14  0.00000000000E+00  0.34922294251E+03  0.57616154239E+03  0.45826352610E+03 0.  0.
         25    1    3    3    0    0 -0.19944504529E+02 -0.54640004757E+02  0.19591970424E+03  0.23961500785E+03  0.12509000000E+03 0.  0.
         25    1    3    3    0    0 -0.37823023980E+02 -0.24914019701E+02  0.32964435055E+02  0.13706002918E+03  0.12509000000E+03 0.  0.
         25    1    3    3    0    0  0.57767528509E+02  0.79554024457E+02  0.12033880322E+03  0.19948650535E+03  0.12509000000E+03 0.  0.
<mgrwt>
<rscale>  2 0.45826353E+03</rscale>
<asrwt>0</asrwt>
<pdfrwt beam="1">  1       21 0.68042977E-01 0.45826353E+03</pdfrwt>
<pdfrwt beam="2">  1       21 0.16686662E-01 0.45826353E+03</pdfrwt>
<totfact> 0.58642233E+04</totfact>
</mgrwt>
</event>
<event>
 6    0  0.1572624E-007  0.4504413E+03  0.7546771E-02  0.1027591E+00
         21   -1    0    0  502  501  0.00000000000E+00  0.00000000000E+00  0.49604963900E+03  0.49604963900E+03  0.00000000000E+00 0. -1.
         21   -1    0    0  501  502 -0.00000000000E+00 -0.00000000000E+00 -0.10225656857E+03  0.10225656857E+03  0.00000000000E+00 0. -1.
      99926    2    1    2    0    0 -0.35527136788E-14  0.00000000000E+00  0.39379307043E+03  0.59830620758E+03  0.45044126776E+03 0.  0.
         25    1    3    3    0    0 -0.64320967501E+01 -0.83254745608E+02  0.78234037407E+02  0.16953110996E+03  0.12509000000E+03 0.  0.
         25    1    3    3    0    0 -0.22531351639E+02  0.97136455418E+02  0.19363014714E+03  0.25116388029E+03  0.12509000000E+03 0.  0.
         25    1    3    3    0    0  0.28963448389E+02 -0.13881709809E+02  0.12192888588E+03  0.17761121733E+03  0.12509000000E+03 0.  0.
<mgrwt>
<rscale>  2 0.45044127E+03</rscale>
<asrwt>0</asrwt>
<pdfrwt beam="1">  1       21 0.72948475E-01 0.45044127E+03</pdfrwt>
<pdfrwt beam="2">  1       21 0.15037731E-01 0.45044127E+03</pdfrwt>
<totfact> 0.60948566E+04</totfact>
</mgrwt>
</event>
<event>
 6    0  0.1572624E-007  0.4508252E+03  0.7546771E-02  0.1027476E+00
         21   -1    0    0  502  501  0.00000000000E+00  0.00000000000E+00  0.57108777123E+03  0.57108777123E+03  0.00000000000E+00 0. -1.
         21   -1    0    0  501  502 -0.00000000000E+00 -0.00000000000E+00 -0.88972045095E+02  0.88972045095E+02  0.00000000000E+00 0. -1.
      99926    2    1    2    0    0  0.00000000000E+00 -0.29143354396E-15  0.48211572613E+03  0.66005981632E+03  0.45082522970E+03 0.  0.
         25    1    3    3    0    0 -0.18977253489E+02  0.30650093915E-01  0.11491598036E+03  0.17091906778E+03  0.12509000000E+03 0.  0.
         25    1    3    3    0    0  0.63678709653E+00  0.67977433671E+02  0.69051165535E+02  0.15823055504E+03  0.12509000000E+03 0.  0.
         25    1    3    3    0    0  0.18340466393E+02 -0.68008083764E+02  0.29814858023E+03  0.33091019350E+03  0.12509000000E+03 0.  0.
<mgrwt>
<rscale>  2 0.45082523E+03</rscale>
<asrwt>0</asrwt>
<pdfrwt beam="1">  1       21 0.83983494E-01 0.45082523E+03</pdfrwt>
<pdfrwt beam="2">  1       21 0.13084125E-01 0.45082523E+03</pdfrwt>
<totfact> 0.56977824E+04</totfact>
</mgrwt>
</event>
<event>
 6    0  0.1572624E-007  0.4594148E+03  0.7546771E-02  0.1024951E+00
         21   -1    0    0  502  501  0.00000000000E+00  0.00000000000E+00  0.12677294241E+04  0.12677294241E+04  0.00000000000E+00 0. -1.
         21   -1    0    0  501  502 -0.00000000000E+00 -0.00000000000E+00 -0.41622035780E+02  0.41622035780E+02  0.00000000000E+00 0. -1.
      99926    2    1    2    0    0 -0.53290705182E-14  0.00000000000E+00  0.12261073883E+04  0.13093514598E+04  0.45941475574E+03 0.  0.
         25    1    3    3    0    0  0.54936677793E+02 -0.10540422795E+02  0.60227194396E+03  0.61766345340E+03  0.12509000000E+03 0.  0.
         25    1    3    3    0    0  0.82833613290E+01  0.70385614232E+02  0.34845588763E+03  0.37695061015E+03  0.12509000000E+03 0.  0.
         25    1    3    3    0    0 -0.63220039122E+02 -0.59845191438E+02  0.27537955668E+03  0.31473739629E+03  0.12509000000E+03 0.  0.
<mgrwt>
<rscale>  2 0.45941476E+03</rscale>
<asrwt>0</asrwt>
<pdfrwt beam="1">  1       21 0.18643077E+00 0.45941476E+03</pdfrwt>
<pdfrwt beam="2">  1       21 0.61208884E-02 0.45941476E+03</pdfrwt>
<totfact> 0.27874955E+04</totfact>
</mgrwt>
</event>
<event>
 6    0  0.1572624E-007  0.4650434E+03  0.7546771E-02  0.1023329E+00
         21   -1    0    0  502  501  0.00000000000E+00  0.00000000000E+00  0.92606698571E+02  0.92606698571E+02  0.00000000000E+00 0. -1.
         21   -1    0    0  501  502 -0.00000000000E+00 -0.00000000000E+00 -0.58382752249E+03  0.58382752249E+03  0.00000000000E+00 0. -1.
      99926    2    1    2    0    0  0.71054273576E-14  0.00000000000E+00 -0.49122082392E+03  0.67643422106E+03  0.46504339321E+03 0.  0.
         25    1    3    3    0    0 -0.58404496738E+02 -0.35311940133E+02 -0.24753982760E+03  0.28562474106E+03  0.12509000000E+03 0.  0.
         25    1    3    3    0    0  0.10003785843E+03 -0.18822104892E+02 -0.10847452715E+03  0.19436068505E+03  0.12509000000E+03 0.  0.
         25    1    3    3    0    0 -0.41633361689E+02  0.54134045024E+02 -0.13520646917E+03  0.19644879496E+03  0.12509000000E+03 0.  0.
<mgrwt>
<rscale>  2 0.46504339E+03</rscale>
<asrwt>0</asrwt>
<pdfrwt beam="1">  1       21 0.13618632E-01 0.46504339E+03</pdfrwt>
<pdfrwt beam="2">  1       21 0.85856988E-01 0.46504339E+03</pdfrwt>
<totfact> 0.50115036E+04</totfact>
</mgrwt>
</event>
<event>
 6    0  0.1572624E-007  0.4565767E+03  0.7546771E-02  0.1025779E+00
         21   -1    0    0  502  501  0.00000000000E+00  0.00000000000E+00  0.11796844739E+03  0.11796844739E+03  0.00000000000E+00 0.  1.
         21   -1    0    0  501  502 -0.00000000000E+00 -0.00000000000E+00 -0.44177551360E+03  0.44177551360E+03  0.00000000000E+00 0.  1.
      99926    2    1    2    0    0  0.00000000000E+00  0.00000000000E+00 -0.32380706621E+03  0.55974396099E+03  0.45657670302E+03 0.  0.
         25    1    3    3    0    0  0.48356760909E+02 -0.12165340355E+02 -0.16350975049E+03  0.21182379101E+03  0.12509000000E+03 0.  0.
         25    1    3    3    0    0  0.36007926368E+02 -0.44935473652E+02 -0.30944613924E+02  0.14114122284E+03  0.12509000000E+03 0.  0.
         25    1    3    3    0    0 -0.84364687276E+02  0.57100814007E+02 -0.12935270179E+03  0.20677894714E+03  0.12509000000E+03 0.  0.
<mgrwt>
<rscale>  2 0.45657670E+03</rscale>
<asrwt>0</asrwt>
<pdfrwt beam="1">  1       21 0.17348301E-01 0.45657670E+03</pdfrwt>
<pdfrwt beam="2">  1       21 0.64966988E-01 0.45657670E+03</pdfrwt>
<totfact> 0.60469488E+04</totfact>
</mgrwt>
</event>
<event>
 6    0  0.1572624E-007  0.4588601E+03  0.7546771E-02  0.1025112E+00
         21   -1    0    0  502  501  0.00000000000E+00  0.00000000000E+00  0.46176495582E+02  0.46176495582E+02  0.00000000000E+00 0.  1.
         21   -1    0    0  501  502 -0.00000000000E+00 -0.00000000000E+00 -0.11399336911E+04  0.11399336911E+04  0.00000000000E+00 0.  1.
      99926    2    1    2    0    0  0.00000000000E+00  0.00000000000E+00 -0.10937571956E+04  0.11861101867E+04  0.45886007912E+03 0.  0.
         25    1    3    3    0    0 -0.79204637055E+02  0.32967081403E+02 -0.28393243143E+03  0.32190889503E+03  0.12509000000E+03 0.  0.
         25    1    3    3    0    0  0.20018287109E+02  0.48691989731E+02 -0.45242243420E+03  0.47234014095E+03  0.12509000000E+03 0.  0.
         25    1    3    3    0    0  0.59186349946E+02 -0.81659071134E+02 -0.35740232993E+03  0.39186115074E+03  0.12509000000E+03 0.  0.
<mgrwt>
<rscale>  2 0.45886008E+03</rscale>
<asrwt>0</asrwt>
<pdfrwt beam="1">  1       21 0.67906619E-02 0.45886008E+03</pdfrwt>
<pdfrwt beam="2">  1       21 0.16763729E+00 0.45886008E+03</pdfrwt>
<totfact> 0.31637095E+04</totfact>
</mgrwt>
</event>
<event>
 6    0  0.1572624E-007  0.4547099E+03  0.7546771E-02  0.1026327E+00
         21   -1    0    0  502  501  0.00000000000E+00  0.00000000000E+00  0.69348567477E+03  0.69348567477E+03  0.00000000000E+00 0. -1.
         21   -1    0    0  501  502 -0.00000000000E+00 -0.00000000000E+00 -0.74536904662E+02  0.74536904662E+02  0.00000000000E+00 0. -1.
      99926    2    1    2    0    0  0.71054273576E-14  0.00000000000E+00  0.61894877011E+03  0.76802257944E+03  0.45470991027E+03 0.  0.
         25    1    3    3    0    0 -0.63461719289E+02 -0.36812246145E+02  0.29344486990E+03  0.32732236564E+03  0.12509000000E+03 0.  0.
         25    1    3    3    0    0  0.40491580667E+02 -0.47431417262E+02  0.19513934988E+03  0.24003370892E+03  0.12509000000E+03 0.  0.
         25    1    3    3    0    0  0.22970138622E+02  0.84243663406E+02  0.13036455034E+03  0.20066650487E+03  0.12509000000E+03 0.  0.
<mgrwt>
<rscale>  2 0.45470991E+03</rscale>
<asrwt>0</asrwt>
<pdfrwt beam="1">  1       21 0.10198318E+00 0.45470991E+03</pdfrwt>
<pdfrwt beam="2">  1       21 0.10961310E-01 0.45470991E+03</pdfrwt>
<totfact> 0.49462856E+04</totfact>
</mgrwt>
</event>
<event>
 6    0  0.1572624E-007  0.4744286E+03  0.7546771E-02  0.1020678E+00
         21   -1    0    0  502  501  0.00000000000E+00  0.00000000000E+00  0.11628658969E+04  0.11628658969E+04  0.00000000000E+00 0. -1.
         21   -1    0    0  501  502 -0.00000000000E+00 -0.00000000000E+00 -0.48389597433E+02  0.48389597433E+02  0.00000000000E+00 0. -1.
      99926    2    1    2    0    0  0.71054273576E-14 -0.14210854715E-13  0.11144762995E+04  0.12112554943E+04  0.47442855150E+03 0.  0.
         25    1    3    3    0    0  0.32218921419E+02 -0.89132691997E+01  0.56297146538E+03  0.57766935543E+03  0.12509000000E+03 0.  0.
         25    1    3    3    0    0 -0.40662475136E+02  0.83323762992E+02  0.36526878393E+03  0.39707062216E+03  0.12509000000E+03 0.  0.
         25    1    3    3    0    0  0.84435537177E+01 -0.74410493792E+02  0.18623605014E+03  0.23651551674E+03  0.12509000000E+03 0.  0.
<mgrwt>
<rscale>  2 0.47442855E+03</rscale>
<asrwt>0</asrwt>
<pdfrwt beam="1">  1       21 0.17100967E+00 0.47442855E+03</pdfrwt>
<pdfrwt beam="2">  1       21 0.71161180E-02 0.47442855E+03</pdfrwt>
<totfact> 0.27411912E+04</totfact>
</mgrwt>
</event>
<event>
 6    0  0.1572624E-007  0.4582658E+03  0.7546771E-02  0.1025285E+00
         21   -1    0    0  502  501  0.00000000000E+00  0.00000000000E+00  0.99157885654E+03  0.99157885654E+03  0.00000000000E+00 0. -1.
         21   -1    0    0  501  502 -0.00000000000E+00 -0.00000000000E+00 -0.52947759564E+02  0.52947759564E+02  0.00000000000E+00 0. -1.
      99926    2    1    2    0    0  0.00000000000E+00  0.00000000000E+00  0.93863109697E+03  0.10445266161E+04  0.45826576955E+03 0.  0.
         25    1    3    3    0    0  0.76362514563E+01 -0.21688796436E+02  0.22783757631E+03  0.26093329704E+03  0.12509000000E+03 0.  0.
         25    1    3    3    0    0 -0.10096596343E+03  0.48813930608E+02  0.42190467282E+03  0.45412331655E+03  0.12509000000E+03 0.  0.
         25    1    3    3    0    0  0.93329711970E+02 -0.27125134172E+02  0.28888884784E+03  0.32947000250E+03  0.12509000000E+03 0.  0.
<mgrwt>
<rscale>  2 0.45826577E+03</rscale>
<asrwt>0</asrwt>
<pdfrwt beam="1">  1       21 0.14582041E+00 0.45826577E+03</pdfrwt>
<pdfrwt beam="2">  1       21 0.77864358E-02 0.45826577E+03</pdfrwt>
<totfact> 0.36538516E+04</totfact>
</mgrwt>
</event>
<event>
 6    0  0.1572624E-007  0.4635223E+03  0.7546771E-02  0.1023765E+00
         21   -1    0    0  502  501  0.00000000000E+00  0.00000000000E+00  0.81661757921E+03  0.81661757921E+03  0.00000000000E+00 0.  1.
         21   -1    0    0  501  502 -0.00000000000E+00 -0.00000000000E+00 -0.65775248593E+02  0.65775248593E+02  0.00000000000E+00 0.  1.
      99926    2    1    2    0    0 -0.14210854715E-13 -0.77715611724E-15  0.75084233061E+03  0.88239282780E+03  0.46352227251E+03 0.  0.
         25    1    3    3    0    0 -0.29265035281E+02  0.57202657604E+02  0.22960035173E+03  0.26924415674E+03  0.12509000000E+03 0.  0.
         25    1    3    3    0    0  0.10061685616E+03  0.76996465311E+00  0.20081011245E+03  0.25709250077E+03  0.12509000000E+03 0.  0.
         25    1    3    3    0    0 -0.71351820874E+02 -0.57972622257E+02  0.32043186643E+03  0.35605617029E+03  0.12509000000E+03 0.  0.
<mgrwt>
<rscale>  2 0.46352227E+03</rscale>
<asrwt>0</asrwt>
<pdfrwt beam="1">  1       21 0.12009081E+00 0.46352227E+03</pdfrwt>
<pdfrwt beam="2">  1       21 0.96728312E-02 0.46352227E+03</pdfrwt>
<totfact> 0.41185308E+04</totfact>
</mgrwt>
</event>
<event>
 6    0  0.1572624E-007  0.4671498E+03  0.7546771E-02  0.1022728E+00
         21   -1    0    0  502  501  0.00000000000E+00  0.00000000000E+00  0.57467771089E+03  0.57467771089E+03  0.00000000000E+00 0. -1.
         21   -1    0    0  501  502 -0.00000000000E+00 -0.00000000000E+00 -0.94935367964E+02  0.94935367964E+02  0.00000000000E+00 0. -1.
      99926    2    1    2    0    0  0.71054273576E-14 -0.71054273576E-14  0.47974234292E+03  0.66961307885E+03  0.46714982583E+03 0.  0.
         25    1    3    3    0    0  0.49175632868E+02 -0.31501530197E+02  0.51199027734E+02  0.14723938948E+03  0.12509000000E+03 0.  0.
         25    1    3    3    0    0 -0.42039417205E+02  0.47956738224E+02  0.10590692123E+03  0.17587195741E+03  0.12509000000E+03 0.  0.
         25    1    3    3    0    0 -0.71362156633E+01 -0.16455208027E+02  0.32263639396E+03  0.34650173196E+03  0.12509000000E+03 0.  0.
<mgrwt>
<rscale>  2 0.46714983E+03</rscale>
<asrwt>0</asrwt>
<pdfrwt beam="1">  1       21 0.84511427E-01 0.46714983E+03</pdfrwt>
<pdfrwt beam="2">  1       21 0.13961084E-01 0.46714983E+03</pdfrwt>
<totfact> 0.49654072E+04</totfact>
</mgrwt>
</event>
<event>
 6    0  0.1572624E-007  0.4573425E+03  0.7546771E-02  0.1025555E+00
         21   -1    0    0  502  501  0.00000000000E+00  0.00000000000E+00  0.24787915217E+03  0.24787915217E+03  0.00000000000E+00 0. -1.
         21   -1    0    0  501  502 -0.00000000000E+00 -0.00000000000E+00 -0.21095175064E+03  0.21095175064E+03  0.00000000000E+00 0. -1.
      99926    2    1    2    0    0  0.00000000000E+00 -0.17763568394E-14  0.36927401532E+02  0.45883090281E+03  0.45734250228E+03 0.  0.
         25    1    3    3    0    0 -0.47818804692E+01 -0.71482023475E+02  0.81566214578E+02  0.16562941019E+03  0.12509000000E+03 0.  0.
         25    1    3    3    0    0 -0.56862731162E+01  0.83544013756E+02 -0.67616946319E+02  0.16501968206E+03  0.12509000000E+03 0.  0.
         25    1    3    3    0    0  0.10468153585E+02 -0.12061990282E+02  0.22978133273E+02  0.12818181056E+03  0.12509000000E+03 0.  0.
<mgrwt>
<rscale>  2 0.45734250E+03</rscale>
<asrwt>0</asrwt>
<pdfrwt beam="1">  1       21 0.36452816E-01 0.45734250E+03</pdfrwt>
<pdfrwt beam="2">  1       21 0.31022316E-01 0.45734250E+03</pdfrwt>
<totfact> 0.67004966E+04</totfact>
</mgrwt>
</event>
<event>
 6    0  0.1572624E-007  0.4591377E+03  0.7546771E-02  0.1025032E+00
         21   -1    0    0  502  501  0.00000000000E+00  0.00000000000E+00  0.75151147750E+02  0.75151147750E+02  0.00000000000E+00 0. -1.
         21   -1    0    0  501  502 -0.00000000000E+00 -0.00000000000E+00 -0.70127821671E+03  0.70127821671E+03  0.00000000000E+00 0. -1.
      99926    2    1    2    0    0  0.00000000000E+00  0.00000000000E+00 -0.62612706896E+03  0.77642936446E+03  0.45913772608E+03 0.  0.
         25    1    3    3    0    0  0.23256230279E+02  0.55281507319E+02 -0.91052035159E+02  0.16593636884E+03  0.12509000000E+03 0.  0.
         25    1    3    3    0    0 -0.53706959041E+02 -0.70629355326E+02 -0.37045590184E+03  0.40094641361E+03  0.12509000000E+03 0.  0.
         25    1    3    3    0    0  0.30450728762E+02  0.15347848006E+02 -0.16461913196E+03  0.20954658200E+03  0.12509000000E+03 0.  0.
<mgrwt>
<rscale>  2 0.45913773E+03</rscale>
<asrwt>0</asrwt>
<pdfrwt beam="1">  1       21 0.11051640E-01 0.45913773E+03</pdfrwt>
<pdfrwt beam="2">  1       21 0.10312914E+00 0.45913773E+03</pdfrwt>
<totfact> 0.47368727E+04</totfact>
</mgrwt>
</event>
<event>
 6    0  0.1572624E-007  0.4570483E+03  0.7546771E-02  0.1025641E+00
         21   -1    0    0  502  501  0.00000000000E+00  0.00000000000E+00  0.19697847913E+03  0.19697847913E+03  0.00000000000E+00 0. -1.
         21   -1    0    0  501  502 -0.00000000000E+00 -0.00000000000E+00 -0.26512174336E+03  0.26512174336E+03  0.00000000000E+00 0. -1.
      99926    2    1    2    0    0  0.00000000000E+00 -0.35527136788E-14 -0.68143264238E+02  0.46210022249E+03  0.45704825912E+03 0.  0.
         25    1    3    3    0    0 -0.20354776203E+02  0.24380926695E+02  0.45985943527E+01  0.12914101467E+03  0.12509000000E+03 0.  0.
         25    1    3    3    0    0  0.83501703338E+01  0.34810694074E+01 -0.13980849258E+03  0.18781843862E+03  0.12509000000E+03 0.  0.
         25    1    3    3    0    0  0.12004605869E+02 -0.27861996102E+02  0.67066633988E+02  0.14514076920E+03  0.12509000000E+03 0.  0.
<mgrwt>
<rscale>  2 0.45704826E+03</rscale>
<asrwt>0</asrwt>
<pdfrwt beam="1">  1       21 0.28967424E-01 0.45704826E+03</pdfrwt>
<pdfrwt beam="2">  1       21 0.38988491E-01 0.45704826E+03</pdfrwt>
<totfact> 0.66927870E+04</totfact>
</mgrwt>
</event>
<event>
 6    0  0.1572624E-007  0.4647346E+03  0.7546771E-02  0.1023417E+00
         21   -1    0    0  502  501  0.00000000000E+00  0.00000000000E+00  0.44443877217E+02  0.44443877217E+02  0.00000000000E+00 0. -1.
         21   -1    0    0  501  502 -0.00000000000E+00 -0.00000000000E+00 -0.12148933563E+04  0.12148933563E+04  0.00000000000E+00 0. -1.
      99926    2    1    2    0    0  0.00000000000E+00 -0.71054273576E-14 -0.11704494791E+04  0.12593372335E+04  0.46473463895E+03 0.  0.
         25    1    3    3    0    0 -0.20358993843E+02  0.17728889567E+02 -0.50174681650E+03  0.51780901704E+03  0.12509000000E+03 0.  0.
         25    1    3    3    0    0  0.69634306385E+02  0.38505354031E+02 -0.48434700945E+03  0.50652851112E+03  0.12509000000E+03 0.  0.
         25    1    3    3    0    0 -0.49275312542E+02 -0.56234243598E+02 -0.18435565315E+03  0.23499970537E+03  0.12509000000E+03 0.  0.
<mgrwt>
<rscale>  2 0.46473464E+03</rscale>
<asrwt>0</asrwt>
<pdfrwt beam="1">  1       21 0.65358652E-02 0.46473464E+03</pdfrwt>
<pdfrwt beam="2">  1       21 0.17866076E+00 0.46473464E+03</pdfrwt>
<totfact> 0.28126452E+04</totfact>
</mgrwt>
</event>
<event>
 6    0  0.1572624E-007  0.4567773E+03  0.7546771E-02  0.1025720E+00
         21   -1    0    0  502  501  0.00000000000E+00  0.00000000000E+00  0.25368695188E+03  0.25368695188E+03  0.00000000000E+00 0.  1.
         21   -1    0    0  501  502 -0.00000000000E+00 -0.00000000000E+00 -0.20561318888E+03  0.20561318888E+03  0.00000000000E+00 0.  1.
      99926    2    1    2    0    0  0.00000000000E+00  0.00000000000E+00  0.48073762997E+02  0.45930014076E+03  0.45677733374E+03 0.  0.
         25    1    3    3    0    0  0.55858951262E+02  0.50668425641E+02 -0.53429464708E+02  0.15553047159E+03  0.12509000000E+03 0.  0.
         25    1    3    3    0    0 -0.52003318616E+02 -0.23857247620E+02 -0.44344125369E+01  0.13762516313E+03  0.12509000000E+03 0.  0.
         25    1    3    3    0    0 -0.38556326461E+01 -0.26811178021E+02  0.10593764024E+03  0.16614450605E+03  0.12509000000E+03 0.  0.
<mgrwt>
<rscale>  2 0.45677733E+03</rscale>
<asrwt>0</asrwt>
<pdfrwt beam="1">  1       21 0.37306905E-01 0.45677733E+03</pdfrwt>
<pdfrwt beam="2">  1       21 0.30237234E-01 0.45677733E+03</pdfrwt>
<totfact> 0.67272843E+04</totfact>
</mgrwt>
</event>
<event>
 6    0  0.1572624E-007  0.4569025E+03  0.7546771E-02  0.1025683E+00
         21   -1    0    0  502  501  0.00000000000E+00  0.00000000000E+00  0.11387120129E+03  0.11387120129E+03  0.00000000000E+00 0. -1.
         21   -1    0    0  501  502 -0.00000000000E+00 -0.00000000000E+00 -0.45832453342E+03  0.45832453342E+03  0.00000000000E+00 0. -1.
      99926    2    1    2    0    0  0.66613381478E-15  0.00000000000E+00 -0.34445333212E+03  0.57219573471E+03  0.45690246312E+03 0.  0.
         25    1    3    3    0    0  0.99686440636E+00 -0.34704076562E+02 -0.91945511052E+02  0.15908127411E+03  0.12509000000E+03 0.  0.
         25    1    3    3    0    0  0.66356561178E+02 -0.59829257966E+02 -0.14569276185E+03  0.21179382020E+03  0.12509000000E+03 0.  0.
         25    1    3    3    0    0 -0.67353425584E+02  0.94533334528E+02 -0.10681505922E+03  0.20132064040E+03  0.12509000000E+03 0.  0.
<mgrwt>
<rscale>  2 0.45690246E+03</rscale>
<asrwt>0</asrwt>
<pdfrwt beam="1">  1       21 0.16745765E-01 0.45690246E+03</pdfrwt>
<pdfrwt beam="2">  1       21 0.67400665E-01 0.45690246E+03</pdfrwt>
<totfact> 0.59522689E+04</totfact>
</mgrwt>
</event>
<event>
 6    0  0.1572624E-007  0.4454196E+03  0.7546771E-02  0.1029097E+00
         21   -1    0    0  502  501  0.00000000000E+00  0.00000000000E+00  0.10722762101E+04  0.10722762101E+04  0.00000000000E+00 0. -1.
         21   -1    0    0  501  502 -0.00000000000E+00 -0.00000000000E+00 -0.46256423519E+02  0.46256423519E+02  0.00000000000E+00 0. -1.
      99926    2    1    2    0    0  0.00000000000E+00  0.00000000000E+00  0.10260197866E+04  0.11185326337E+04  0.44541963363E+03 0.  0.
         25    1    3    3    0    0 -0.54164389357E+02 -0.72006493340E+01  0.17918323818E+03  0.22525490310E+03  0.12509000000E+03 0.  0.
         25    1    3    3    0    0  0.48104570564E+02  0.11386436085E+02  0.25476032690E+03  0.28808684957E+03  0.12509000000E+03 0.  0.
         25    1    3    3    0    0  0.60598187930E+01 -0.41857867513E+01  0.59207622154E+03  0.60519088099E+03  0.12509000000E+03 0.  0.
<mgrwt>
<rscale>  2 0.44541963E+03</rscale>
<asrwt>0</asrwt>
<pdfrwt beam="1">  1       21 0.15768766E+00 0.44541963E+03</pdfrwt>
<pdfrwt beam="2">  1       21 0.68024159E-02 0.44541963E+03</pdfrwt>
<totfact> 0.37579919E+04</totfact>
</mgrwt>
</event>
<event>
 6    0  0.1572624E-007  0.4565969E+03  0.7546771E-02  0.1025773E+00
         21   -1    0    0  502  501  0.00000000000E+00  0.00000000000E+00  0.45297075728E+03  0.45297075728E+03  0.00000000000E+00 0.  1.
         21   -1    0    0  501  502 -0.00000000000E+00 -0.00000000000E+00 -0.11506304164E+03  0.11506304164E+03  0.00000000000E+00 0.  1.
      99926    2    1    2    0    0 -0.11102230246E-14  0.35527136788E-14  0.33790771564E+03  0.56803379892E+03  0.45659694745E+03 0.  0.
         25    1    3    3    0    0 -0.22789582972E+02 -0.81472667866E+02  0.67545548089E+02  0.16542995457E+03  0.12509000000E+03 0.  0.
         25    1    3    3    0    0  0.22157055518E+02  0.10528227361E+03  0.11209214464E+03  0.19946791530E+03  0.12509000000E+03 0.  0.
         25    1    3    3    0    0  0.63252745438E+00 -0.23809605742E+02  0.15827002291E+03  0.20313592905E+03  0.12509000000E+03 0.  0.
<mgrwt>
<rscale>  2 0.45659695E+03</rscale>
<asrwt>0</asrwt>
<pdfrwt beam="1">  1       21 0.66613346E-01 0.45659695E+03</pdfrwt>
<pdfrwt beam="2">  1       21 0.16921036E-01 0.45659695E+03</pdfrwt>
<totfact> 0.59929866E+04</totfact>
</mgrwt>
</event>
<event>
 6    0  0.1572624E-007  0.4555085E+03  0.7546771E-02  0.1026092E+00
         21   -1    0    0  502  501  0.00000000000E+00  0.00000000000E+00  0.72815538780E+03  0.72815538780E+03  0.00000000000E+00 0.  1.
         21   -1    0    0  501  502 -0.00000000000E+00 -0.00000000000E+00 -0.71237543201E+02  0.71237543201E+02  0.00000000000E+00 0.  1.
      99926    2    1    2    0    0  0.00000000000E+00 -0.71054273576E-14  0.65691784460E+03  0.79939293100E+03  0.45550851099E+03 0.  0.
         25    1    3    3    0    0 -0.79538393041E+02 -0.35329427877E+02  0.13551478641E+03  0.20392716807E+03  0.12509000000E+03 0.  0.
         25    1    3    3    0    0  0.34561887317E+02  0.71751277464E+02  0.30035568958E+03  0.33496838393E+03  0.12509000000E+03 0.  0.
         25    1    3    3    0    0  0.44976505723E+02 -0.36421849587E+02  0.22104736862E+03  0.26049737900E+03  0.12509000000E+03 0.  0.
<mgrwt>
<rscale>  2 0.45550851E+03</rscale>
<asrwt>0</asrwt>
<pdfrwt beam="1">  1       21 0.10708167E+00 0.45550851E+03</pdfrwt>
<pdfrwt beam="2">  1       21 0.10476110E-01 0.45550851E+03</pdfrwt>
<totfact> 0.47603928E+04</totfact>
</mgrwt>
</event>
<event>
 6    0  0.1572624E-007  0.4648842E+03  0.7546771E-02  0.1023374E+00
         21   -1    0    0  502  501  0.00000000000E+00  0.00000000000E+00  0.82537519752E+03  0.82537519752E+03  0.00000000000E+00 0. -1.
         21   -1    0    0  501  502 -0.00000000000E+00 -0.00000000000E+00 -0.65460337027E+02  0.65460337027E+02  0.00000000000E+00 0. -1.
      99926    2    1    2    0    0  0.35527136788E-14  0.00000000000E+00  0.75991486049E+03  0.89083553455E+03  0.46488423765E+03 0.  0.
         25    1    3    3    0    0 -0.59608967949E+02 -0.34041097379E+01  0.26110890750E+03  0.29561831252E+03  0.12509000000E+03 0.  0.
         25    1    3    3    0    0 -0.90422016217E+01 -0.75350075125E+02  0.32787616964E+03  0.35903995036E+03  0.12509000000E+03 0.  0.
         25    1    3    3    0    0  0.68651169571E+02  0.78754184863E+02  0.17092978335E+03  0.23617727167E+03  0.12509000000E+03 0.  0.
<mgrwt>
<rscale>  2 0.46488424E+03</rscale>
<asrwt>0</asrwt>
<pdfrwt beam="1">  1       21 0.12137870E+00 0.46488424E+03</pdfrwt>
<pdfrwt beam="2">  1       21 0.96265206E-02 0.46488424E+03</pdfrwt>
<totfact> 0.40412405E+04</totfact>
</mgrwt>
</event>
<event>
 6    0  0.1572624E-007  0.4556594E+03  0.7546771E-02  0.1026048E+00
         21   -1    0    0  502  501  0.00000000000E+00  0.00000000000E+00  0.16020716126E+03  0.16020716126E+03  0.00000000000E+00 0.  1.
         21   -1    0    0  501  502 -0.00000000000E+00 -0.00000000000E+00 -0.32399526247E+03  0.32399526247E+03  0.00000000000E+00 0.  1.
      99926    2    1    2    0    0 -0.71054273576E-14  0.00000000000E+00 -0.16378810121E+03  0.48420242374E+03  0.45565935199E+03 0.  0.
         25    1    3    3    0    0  0.33380009835E+02 -0.38763949312E+02 -0.16019969807E+03  0.20959083994E+03  0.12509000000E+03 0.  0.
         25    1    3    3    0    0  0.13041638395E+02  0.82524110928E+01  0.37862134445E+02  0.13160256816E+03  0.12509000000E+03 0.  0.
         25    1    3    3    0    0 -0.46421648230E+02  0.30511538219E+02 -0.41450537583E+02  0.14300901564E+03  0.12509000000E+03 0.  0.
<mgrwt>
<rscale>  2 0.45565935E+03</rscale>
<asrwt>0</asrwt>
<pdfrwt beam="1">  1       21 0.23559877E-01 0.45565935E+03</pdfrwt>
<pdfrwt beam="2">  1       21 0.47646362E-01 0.45565935E+03</pdfrwt>
<totfact> 0.66049065E+04</totfact>
</mgrwt>
</event>
<event>
 6    0  0.1572624E-007  0.4552541E+03  0.7546771E-02  0.1026167E+00
         21   -1    0    0  502  501  0.00000000000E+00  0.00000000000E+00  0.89352612259E+02  0.89352612259E+02  0.00000000000E+00 0.  1.
         21   -1    0    0  501  502 -0.00000000000E+00 -0.00000000000E+00 -0.57988327301E+03  0.57988327301E+03  0.00000000000E+00 0.  1.
      99926    2    1    2    0    0  0.00000000000E+00 -0.17763568394E-14 -0.49053066075E+03  0.66923588527E+03  0.45525414989E+03 0.  0.
         25    1    3    3    0    0 -0.15082845980E+02 -0.32444905849E+02 -0.24417654004E+02  0.13237784590E+03  0.12509000000E+03 0.  0.
         25    1    3    3    0    0 -0.21126102392E+02 -0.14492915998E+02 -0.23555411193E+03  0.26793582172E+03  0.12509000000E+03 0.  0.
         25    1    3    3    0    0  0.36208948372E+02  0.46937821847E+02 -0.23055889482E+03  0.26892221764E+03  0.12509000000E+03 0.  0.
<mgrwt>
<rscale>  2 0.45525415E+03</rscale>
<asrwt>0</asrwt>
<pdfrwt beam="1">  1       21 0.13140090E-01 0.45525415E+03</pdfrwt>
<pdfrwt beam="2">  1       21 0.85276953E-01 0.45525415E+03</pdfrwt>
<totfact> 0.54496051E+04</totfact>
</mgrwt>
</event>
<event>
 6    0  0.1572624E-007  0.4462361E+03  0.7546771E-02  0.1028850E+00
         21   -1    0    0  502  501  0.00000000000E+00  0.00000000000E+00  0.67001922356E+03  0.67001922356E+03  0.00000000000E+00 0. -1.
         21   -1    0    0  501  502 -0.00000000000E+00 -0.00000000000E+00 -0.74298876057E+02  0.74298876057E+02  0.00000000000E+00 0. -1.
      99926    2    1    2    0    0 -0.35527136788E-14  0.00000000000E+00  0.59572034751E+03  0.74431809962E+03  0.44623614935E+03 0.  0.
         25    1    3    3    0    0  0.24121722246E+02  0.20666336161E+02  0.11434103622E+03  0.17242486943E+03  0.12509000000E+03 0.  0.
         25    1    3    3    0    0 -0.69316520749E+02  0.56412700588E+02  0.21443967922E+03  0.26385423430E+03  0.12509000000E+03 0.  0.
         25    1    3    3    0    0  0.45194798503E+02 -0.77079036749E+02  0.26693963207E+03  0.30803899589E+03  0.12509000000E+03 0.  0.
<mgrwt>
<rscale>  2 0.44623615E+03</rscale>
<asrwt>0</asrwt>
<pdfrwt beam="1">  1       21 0.98532236E-01 0.44623615E+03</pdfrwt>
<pdfrwt beam="2">  1       21 0.10926306E-01 0.44623615E+03</pdfrwt>
<totfact> 0.54200329E+04</totfact>
</mgrwt>
</event>
<event>
 6    0  0.1572624E-007  0.4755307E+03  0.7546771E-02  0.1020371E+00
         21   -1    0    0  502  501  0.00000000000E+00  0.00000000000E+00  0.74664230433E+02  0.74664230433E+02  0.00000000000E+00 0.  1.
         21   -1    0    0  501  502 -0.00000000000E+00 -0.00000000000E+00 -0.75715463479E+03  0.75715463479E+03  0.00000000000E+00 0.  1.
      99926    2    1    2    0    0  0.35527136788E-14 -0.71054273576E-14 -0.68249040435E+03  0.83181886522E+03  0.47553072719E+03 0.  0.
         25    1    3    3    0    0 -0.13724757434E+01 -0.76352040984E+02 -0.16792560379E+03  0.22288569797E+03  0.12509000000E+03 0.  0.
         25    1    3    3    0    0  0.19991357150E+02 -0.49663843425E+02 -0.30270508471E+03  0.33187953856E+03  0.12509000000E+03 0.  0.
         25    1    3    3    0    0 -0.18618881406E+02  0.12601588441E+03 -0.21185971585E+03  0.27705362869E+03  0.12509000000E+03 0.  0.
<mgrwt>
<rscale>  2 0.47553073E+03</rscale>
<asrwt>0</asrwt>
<pdfrwt beam="1">  1       21 0.10980033E-01 0.47553073E+03</pdfrwt>
<pdfrwt beam="2">  1       21 0.11134628E+00 0.47553073E+03</pdfrwt>
<totfact> 0.39505184E+04</totfact>
</mgrwt>
</event>
<event>
 6    0  0.1572624E-007  0.4569536E+03  0.7546771E-02  0.1025668E+00
         21   -1    0    0  502  501  0.00000000000E+00  0.00000000000E+00  0.80835836398E+03  0.80835836398E+03  0.00000000000E+00 0.  1.
         21   -1    0    0  501  502 -0.00000000000E+00 -0.00000000000E+00 -0.64577352070E+02  0.64577352070E+02  0.00000000000E+00 0.  1.
      99926    2    1    2    0    0  0.17763568394E-14  0.00000000000E+00  0.74378101191E+03  0.87293571605E+03  0.45695357606E+03 0.  0.
         25    1    3    3    0    0  0.15331319170E+02  0.42170111853E+02  0.11128832920E+03  0.17333772814E+03  0.12509000000E+03 0.  0.
         25    1    3    3    0    0  0.70202093376E+02 -0.32793708890E+02  0.30820573600E+03  0.34152898129E+03  0.12509000000E+03 0.  0.
         25    1    3    3    0    0 -0.85533412546E+02 -0.93764029622E+01  0.32428694671E+03  0.35806900662E+03  0.12509000000E+03 0.  0.
<mgrwt>
<rscale>  2 0.45695358E+03</rscale>
<asrwt>0</asrwt>
<pdfrwt beam="1">  1       21 0.11887622E+00 0.45695358E+03</pdfrwt>
<pdfrwt beam="2">  1       21 0.94966699E-02 0.45695358E+03</pdfrwt>
<totfact> 0.43751230E+04</totfact>
</mgrwt>
</event>
<event>
 6    0  0.1572624E-007  0.4551882E+03  0.7546771E-02  0.1026186E+00
         21   -1    0    0  502  501  0.00000000000E+00  0.00000000000E+00  0.89497200390E+02  0.89497200390E+02  0.00000000000E+00 0. -1.
         21   -1    0    0  501  502 -0.00000000000E+00 -0.00000000000E+00 -0.57877864664E+03  0.57877864664E+03  0.00000000000E+00 0. -1.
      99926    2    1    2    0    0  0.00000000000E+00 -0.17763568394E-14 -0.48928144625E+03  0.66827584703E+03  0.45518817436E+03 0.  0.
         25    1    3    3    0    0  0.29954512323E+02 -0.40642706977E+02 -0.28752966227E+03  0.31760024752E+03  0.12509000000E+03 0.  0.
         25    1    3    3    0    0 -0.71211430091E+02  0.54265096374E+02 -0.97300467054E+02  0.18201828878E+03  0.12509000000E+03 0.  0.
         25    1    3    3    0    0  0.41256917768E+02 -0.13622389397E+02 -0.10445131692E+03  0.16865731073E+03  0.12509000000E+03 0.  0.
<mgrwt>
<rscale>  2 0.45518817E+03</rscale>
<asrwt>0</asrwt>
<pdfrwt beam="1">  1       21 0.13161353E-01 0.45518817E+03</pdfrwt>
<pdfrwt beam="2">  1       21 0.85114507E-01 0.45518817E+03</pdfrwt>
<totfact> 0.54578415E+04</totfact>
</mgrwt>
</event>
<event>
 6    0  0.1572624E-007  0.4461047E+03  0.7546771E-02  0.1028890E+00
         21   -1    0    0  502  501  0.00000000000E+00  0.00000000000E+00  0.13479575344E+02  0.13479575344E+02  0.00000000000E+00 0.  1.
         21   -1    0    0  501  502 -0.00000000000E+00 -0.00000000000E+00 -0.36909432486E+04  0.36909432486E+04  0.00000000000E+00 0.  1.
      99926    2    1    2    0    0  0.35388358910E-14 -0.71054273576E-14 -0.36774636733E+04  0.37044228240E+04  0.44610468551E+03 0.  0.
         25    1    3    3    0    0  0.76601327937E+02 -0.59243438894E+02 -0.13024124518E+04  0.13119844707E+04  0.12509000000E+03 0.  0.
         25    1    3    3    0    0  0.83034673086E-01  0.45652509173E+02 -0.13996087135E+04  0.14059289518E+04  0.12509000000E+03 0.  0.
         25    1    3    3    0    0 -0.76684362610E+02  0.13590929721E+02 -0.97544250792E+03  0.98650940148E+03  0.12509000000E+03 0.  0.
<mgrwt>
<rscale>  2 0.44610469E+03</rscale>
<asrwt>0</asrwt>
<pdfrwt beam="1">  1       21 0.19822903E-02 0.44610469E+03</pdfrwt>
<pdfrwt beam="2">  1       21 0.54278582E+00 0.44610469E+03</pdfrwt>
<totfact> 0.91212225E+02</totfact>
</mgrwt>
</event>
<event>
 6    0  0.1572624E-007  0.4534987E+03  0.7546771E-02  0.1026684E+00
         21   -1    0    0  502  501  0.00000000000E+00  0.00000000000E+00  0.42306807875E+02  0.42306807875E+02  0.00000000000E+00 0.  1.
         21   -1    0    0  501  502 -0.00000000000E+00 -0.00000000000E+00 -0.12152952545E+04  0.12152952545E+04  0.00000000000E+00 0.  1.
      99926    2    1    2    0    0  0.71054273576E-14  0.71054273576E-14 -0.11729884466E+04  0.12576020623E+04  0.45349867846E+03 0.  0.
         25    1    3    3    0    0  0.77694688571E+02 -0.14089126537E+02 -0.50248819123E+03  0.52380994506E+03  0.12509000000E+03 0.  0.
         25    1    3    3    0    0 -0.18978200182E+02  0.57741168685E+02 -0.21737113830E+03  0.25805413096E+03  0.12509000000E+03 0.  0.
         25    1    3    3    0    0 -0.58716488388E+02 -0.43652042148E+02 -0.45312911706E+03  0.47573798631E+03  0.12509000000E+03 0.  0.
<mgrwt>
<rscale>  2 0.45349868E+03</rscale>
<asrwt>0</asrwt>
<pdfrwt beam="1">  1       21 0.62215895E-02 0.45349868E+03</pdfrwt>
<pdfrwt beam="2">  1       21 0.17871989E+00 0.45349868E+03</pdfrwt>
<totfact> 0.30728821E+04</totfact>
</mgrwt>
</event>
<event>
 6    0  0.1572624E-007  0.4533852E+03  0.7546771E-02  0.1026717E+00
         21   -1    0    0  502  501  0.00000000000E+00  0.00000000000E+00  0.22216672996E+03  0.22216672996E+03  0.00000000000E+00 0.  1.
         21   -1    0    0  501  502 -0.00000000000E+00 -0.00000000000E+00 -0.23131071682E+03  0.23131071682E+03  0.00000000000E+00 0.  1.
      99926    2    1    2    0    0  0.35527136788E-14  0.00000000000E+00 -0.91439868570E+01  0.45347744677E+03  0.45338524704E+03 0.  0.
         25    1    3    3    0    0  0.54703353541E+02 -0.10795194990E+02 -0.95842101790E+02  0.16715923456E+03  0.12509000000E+03 0.  0.
         25    1    3    3    0    0 -0.37793501786E+02  0.51026797081E+02  0.48620738223E+02  0.14847076171E+03  0.12509000000E+03 0.  0.
         25    1    3    3    0    0 -0.16909851755E+02 -0.40231602091E+02  0.38077376709E+02  0.13784745050E+03  0.12509000000E+03 0.  0.
<mgrwt>
<rscale>  2 0.45338525E+03</rscale>
<asrwt>0</asrwt>
<pdfrwt beam="1">  1       21 0.32671578E-01 0.45338525E+03</pdfrwt>
<pdfrwt beam="2">  1       21 0.34016282E-01 0.45338525E+03</pdfrwt>
<totfact> 0.69549245E+04</totfact>
</mgrwt>
</event>
<event>
 6    0  0.1572624E-007  0.4551544E+03  0.7546771E-02  0.1026196E+00
         21   -1    0    0  502  501  0.00000000000E+00  0.00000000000E+00  0.21266356950E+03  0.21266356950E+03  0.00000000000E+00 0.  1.
         21   -1    0    0  501  502 -0.00000000000E+00 -0.00000000000E+00 -0.24353671857E+03  0.24353671857E+03  0.00000000000E+00 0.  1.
      99926    2    1    2    0    0  0.35527136788E-14 -0.35527136788E-14 -0.30873149072E+02  0.45620028807E+03  0.45515442599E+03 0.  0.
         25    1    3    3    0    0 -0.31895429513E+02 -0.17579953379E+02  0.44303438564E+02  0.13761059535E+03  0.12509000000E+03 0.  0.
         25    1    3    3    0    0 -0.48301249953E+02 -0.53638970115E+02 -0.43149082601E+02  0.15072989515E+03  0.12509000000E+03 0.  0.
         25    1    3    3    0    0  0.80196679466E+02  0.71218923495E+02 -0.32027505035E+02  0.16785979757E+03  0.12509000000E+03 0.  0.
<mgrwt>
<rscale>  2 0.45515443E+03</rscale>
<asrwt>0</asrwt>
<pdfrwt beam="1">  1       21 0.31274054E-01 0.45515443E+03</pdfrwt>
<pdfrwt beam="2">  1       21 0.35814223E-01 0.45515443E+03</pdfrwt>
<totfact> 0.68373702E+04</totfact>
</mgrwt>
</event>
<event>
 6    0  0.1572624E-007  0.4530520E+03  0.7546771E-02  0.1026816E+00
         21   -1    0    0  502  501  0.00000000000E+00  0.00000000000E+00  0.13563257120E+03  0.13563257120E+03  0.00000000000E+00 0. -1.
         21   -1    0    0  501  502 -0.00000000000E+00 -0.00000000000E+00 -0.37833112979E+03  0.37833112979E+03  0.00000000000E+00 0. -1.
      99926    2    1    2    0    0 -0.44408920985E-15 -0.35527136788E-14 -0.24269855859E+03  0.51396370099E+03  0.45305197891E+03 0.  0.
         25    1    3    3    0    0 -0.51659109409E+02  0.72964535660E+02 -0.27532835873E+02  0.15619875864E+03  0.12509000000E+03 0.  0.
         25    1    3    3    0    0  0.35210224393E+01 -0.17269322736E+02 -0.15672392988E+03  0.20129710729E+03  0.12509000000E+03 0.  0.
         25    1    3    3    0    0  0.48138086970E+02 -0.55695212925E+02 -0.58441792840E+02  0.15646783507E+03  0.12509000000E+03 0.  0.
<mgrwt>
<rscale>  2 0.45305198E+03</rscale>
<asrwt>0</asrwt>
<pdfrwt beam="1">  1       21 0.19945967E-01 0.45305198E+03</pdfrwt>
<pdfrwt beam="2">  1       21 0.55636930E-01 0.45305198E+03</pdfrwt>
<totfact> 0.65304014E+04</totfact>
</mgrwt>
</event>
<event>
 6    0  0.1572624E-007  0.4504525E+03  0.7546771E-02  0.1027587E+00
         21   -1    0    0  502  501  0.00000000000E+00  0.00000000000E+00  0.45668549433E+03  0.45668549433E+03  0.00000000000E+00 0.  1.
         21   -1    0    0  501  502 -0.00000000000E+00 -0.00000000000E+00 -0.11107612921E+03  0.11107612921E+03  0.00000000000E+00 0.  1.
      99926    2    1    2    0    0  0.00000000000E+00  0.00000000000E+00  0.34560936511E+03  0.56776162354E+03  0.45045247020E+03 0.  0.
         25    1    3    3    0    0 -0.17823922753E+01  0.11287631682E+03  0.10688021825E+03  0.19953728718E+03  0.12509000000E+03 0.  0.
         25    1    3    3    0    0 -0.10250558495E+01 -0.87056303382E+02  0.12310977848E+03  0.19591675874E+03  0.12509000000E+03 0.  0.
         25    1    3    3    0    0  0.28074481248E+01 -0.25820013439E+02  0.11561936839E+03  0.17230757762E+03  0.12509000000E+03 0.  0.
<mgrwt>
<rscale>  2 0.45045247E+03</rscale>
<asrwt>0</asrwt>
<pdfrwt beam="1">  1       21 0.67159631E-01 0.45045247E+03</pdfrwt>
<pdfrwt beam="2">  1       21 0.16334725E-01 0.45045247E+03</pdfrwt>
<totfact> 0.62941022E+04</totfact>
</mgrwt>
</event>
<event>
 6    0  0.1572624E-007  0.4439599E+03  0.7546771E-02  0.1029539E+00
         21   -1    0    0  502  501  0.00000000000E+00  0.00000000000E+00  0.45460504593E+02  0.45460504593E+02  0.00000000000E+00 0. -1.
         21   -1    0    0  501  502 -0.00000000000E+00 -0.00000000000E+00 -0.10839100686E+04  0.10839100686E+04  0.00000000000E+00 0. -1.
      99926    2    1    2    0    0  0.44408920985E-14  0.00000000000E+00 -0.10384495640E+04  0.11293705732E+04  0.44395990202E+03 0.  0.
         25    1    3    3    0    0 -0.79006470043E+01  0.79860397341E+02 -0.27467176451E+03  0.31230144029E+03  0.12509000000E+03 0.  0.
         25    1    3    3    0    0 -0.41067557507E+02 -0.15847074786E+02 -0.26134824806E+03  0.29306669705E+03  0.12509000000E+03 0.  0.
         25    1    3    3    0    0  0.48968204512E+02 -0.64013322555E+02 -0.50242955140E+03  0.52400243581E+03  0.12509000000E+03 0.  0.
<mgrwt>
<rscale>  2 0.44395990E+03</rscale>
<asrwt>0</asrwt>
<pdfrwt beam="1">  1       21 0.66853688E-02 0.44395990E+03</pdfrwt>
<pdfrwt beam="2">  1       21 0.15939853E+00 0.44395990E+03</pdfrwt>
<totfact> 0.37612906E+04</totfact>
</mgrwt>
</event>
<event>
 6    0  0.1572624E-007  0.4541045E+03  0.7546771E-02  0.1026505E+00
         21   -1    0    0  502  501  0.00000000000E+00  0.00000000000E+00  0.49264108537E+03  0.49264108537E+03  0.00000000000E+00 0.  1.
         21   -1    0    0  501  502 -0.00000000000E+00 -0.00000000000E+00 -0.10464562065E+03  0.10464562065E+03  0.00000000000E+00 0.  1.
      99926    2    1    2    0    0  0.14210854715E-13 -0.35527136788E-14  0.38799546472E+03  0.59728670603E+03  0.45410453483E+03 0.  0.
         25    1    3    3    0    0 -0.10734669285E+03  0.15633244328E+02  0.14485240199E+03  0.21999417551E+03  0.12509000000E+03 0.  0.
         25    1    3    3    0    0  0.31541047150E+01 -0.82532734129E+01  0.10013667919E+03  0.16047718691E+03  0.12509000000E+03 0.  0.
         25    1    3    3    0    0  0.10419258814E+03 -0.73799709150E+01  0.14300638354E+03  0.21681534361E+03  0.12509000000E+03 0.  0.
<mgrwt>
<rscale>  2 0.45410453E+03</rscale>
<asrwt>0</asrwt>
<pdfrwt beam="1">  1       21 0.72447218E-01 0.45410453E+03</pdfrwt>
<pdfrwt beam="2">  1       21 0.15389062E-01 0.45410453E+03</pdfrwt>
<totfact> 0.59263817E+04</totfact>
</mgrwt>
</event>
<event>
 6    0  0.1572624E-007  0.4471681E+03  0.7546771E-02  0.1028570E+00
         21   -1    0    0  502  501  0.00000000000E+00  0.00000000000E+00  0.88004528324E+02  0.88004528324E+02  0.00000000000E+00 0.  1.
         21   -1    0    0  501  502 -0.00000000000E+00 -0.00000000000E+00 -0.56803707146E+03  0.56803707146E+03  0.00000000000E+00 0.  1.
      99926    2    1    2    0    0 -0.35527136788E-14  0.44408920985E-15 -0.48003254313E+03  0.65604159978E+03  0.44716813189E+03 0.  0.
         25    1    3    3    0    0  0.10137746109E+03  0.16762580170E+02 -0.15875507805E+03  0.22673565361E+03  0.12509000000E+03 0.  0.
         25    1    3    3    0    0 -0.82570685649E+02 -0.19834522678E+02 -0.12698624363E+03  0.19744452535E+03  0.12509000000E+03 0.  0.
         25    1    3    3    0    0 -0.18806775440E+02  0.30719425073E+01 -0.19429122145E+03  0.23186142082E+03  0.12509000000E+03 0.  0.
<mgrwt>
<rscale>  2 0.44716813E+03</rscale>
<asrwt>0</asrwt>
<pdfrwt beam="1">  1       21 0.12941842E-01 0.44716813E+03</pdfrwt>
<pdfrwt beam="2">  1       21 0.83534865E-01 0.44716813E+03</pdfrwt>
<totfact> 0.58909750E+04</totfact>
</mgrwt>
</event>
<event>
 6    0  0.1572624E-007  0.4572264E+03  0.7546771E-02  0.1025589E+00
         21   -1    0    0  502  501  0.00000000000E+00  0.00000000000E+00  0.34111122094E+03  0.34111122094E+03  0.00000000000E+00 0.  1.
         21   -1    0    0  501  502 -0.00000000000E+00 -0.00000000000E+00 -0.15321685046E+03  0.15321685046E+03  0.00000000000E+00 0.  1.
      99926    2    1    2    0    0  0.35527136788E-14  0.00000000000E+00  0.18789437048E+03  0.49432807140E+03  0.45722636376E+03 0.  0.
         25    1    3    3    0    0 -0.22637364059E+02 -0.18811701670E+02  0.15887807627E+03  0.20434304879E+03  0.12509000000E+03 0.  0.
         25    1    3    3    0    0 -0.46875078219E+02  0.28450492056E+02 -0.20787932935E+02  0.13815335578E+03  0.12509000000E+03 0.  0.
         25    1    3    3    0    0  0.69512442277E+02 -0.96387903857E+01  0.49804227152E+02  0.15183166683E+03  0.12509000000E+03 0.  0.
<mgrwt>
<rscale>  2 0.45722636E+03</rscale>
<asrwt>0</asrwt>
<pdfrwt beam="1">  1       21 0.50163415E-01 0.45722636E+03</pdfrwt>
<pdfrwt beam="2">  1       21 0.22531890E-01 0.45722636E+03</pdfrwt>
<totfact> 0.64523030E+04</totfact>
</mgrwt>
</event>
<event>
 6    0  0.1572624E-007  0.4429837E+03  0.7546771E-02  0.1029835E+00
         21   -1    0    0  502  501  0.00000000000E+00  0.00000000000E+00  0.27320319536E+03  0.27320319536E+03  0.00000000000E+00 0. -1.
         21   -1    0    0  501  502 -0.00000000000E+00 -0.00000000000E+00 -0.17956836047E+03  0.17956836047E+03  0.00000000000E+00 0. -1.
      99926    2    1    2    0    0  0.35527136788E-14  0.14210854715E-13  0.93634834892E+02  0.45277155584E+03  0.44298374628E+03 0.  0.
         25    1    3    3    0    0  0.18878862410E+02  0.66356104977E+02  0.43394375447E+02  0.14929877439E+03  0.12509000000E+03 0.  0.
         25    1    3    3    0    0  0.21429257434E+02 -0.69041440050E+02  0.84839122264E+02  0.16754437706E+03  0.12509000000E+03 0.  0.
         25    1    3    3    0    0 -0.40308119844E+02  0.26853350731E+01 -0.34598662820E+02  0.13592840439E+03  0.12509000000E+03 0.  0.
<mgrwt>
<rscale>  2 0.44298375E+03</rscale>
<asrwt>0</asrwt>
<pdfrwt beam="1">  1       21 0.40176940E-01 0.44298375E+03</pdfrwt>
<pdfrwt beam="2">  1       21 0.26407112E-01 0.44298375E+03</pdfrwt>
<totfact> 0.75701077E+04</totfact>
</mgrwt>
</event>
<event>
 6    0  0.1572624E-007  0.4537734E+03  0.7546771E-02  0.1026603E+00
         21   -1    0    0  502  501  0.00000000000E+00  0.00000000000E+00  0.78052284564E+03  0.78052284564E+03  0.00000000000E+00 0. -1.
         21   -1    0    0  501  502 -0.00000000000E+00 -0.00000000000E+00 -0.65952689287E+02  0.65952689287E+02  0.00000000000E+00 0. -1.
      99926    2    1    2    0    0  0.00000000000E+00  0.00000000000E+00  0.71457015635E+03  0.84647553492E+03  0.45377342681E+03 0.  0.
         25    1    3    3    0    0 -0.68035260572E+02 -0.53305247591E+01  0.13140369579E+03  0.19383407993E+03  0.12509000000E+03 0.  0.
         25    1    3    3    0    0  0.85680421206E+02  0.99743775974E+01  0.21420679417E+03  0.26262650581E+03  0.12509000000E+03 0.  0.
         25    1    3    3    0    0 -0.17645160633E+02 -0.46438528383E+01  0.36895966639E+03  0.39001494918E+03  0.12509000000E+03 0.  0.
<mgrwt>
<rscale>  2 0.45377343E+03</rscale>
<asrwt>0</asrwt>
<pdfrwt beam="1">  1       21 0.11478277E+00 0.45377343E+03</pdfrwt>
<pdfrwt beam="2">  1       21 0.96989254E-02 0.45377343E+03</pdfrwt>
<totfact> 0.46038856E+04</totfact>
</mgrwt>
</event>
<event>
 6    0  0.1572624E-007  0.4538217E+03  0.7546771E-02  0.1026588E+00
         21   -1    0    0  502  501  0.00000000000E+00  0.00000000000E+00  0.88786334928E+03  0.88786334928E+03  0.00000000000E+00 0.  1.
         21   -1    0    0  501  502 -0.00000000000E+00 -0.00000000000E+00 -0.57991498624E+02  0.57991498624E+02  0.00000000000E+00 0.  1.
      99926    2    1    2    0    0  0.10658141036E-13 -0.71054273576E-14  0.82987185065E+03  0.94585484790E+03  0.45382166629E+03 0.  0.
         25    1    3    3    0    0 -0.85026843867E+02 -0.19246502705E+02  0.22358998042E+03  0.27062885930E+03  0.12509000000E+03 0.  0.
         25    1    3    3    0    0 -0.22583341414E+02  0.33531645021E+02  0.25744859299E+03  0.28907034552E+03  0.12509000000E+03 0.  0.
         25    1    3    3    0    0  0.10761018528E+03 -0.14285142316E+02  0.34883327725E+03  0.38615564308E+03  0.12509000000E+03 0.  0.
<mgrwt>
<rscale>  2 0.45382167E+03</rscale>
<asrwt>0</asrwt>
<pdfrwt beam="1">  1       21 0.13056813E+00 0.45382167E+03</pdfrwt>
<pdfrwt beam="2">  1       21 0.85281621E-02 0.45382167E+03</pdfrwt>
<totfact> 0.41691964E+04</totfact>
</mgrwt>
</event>
<event>
 6    0  0.1572624E-007  0.4537892E+03  0.7546771E-02  0.1026598E+00
         21   -1    0    0  502  501  0.00000000000E+00  0.00000000000E+00  0.16892709094E+03  0.16892709094E+03  0.00000000000E+00 0. -1.
         21   -1    0    0  501  502 -0.00000000000E+00 -0.00000000000E+00 -0.30475366291E+03  0.30475366291E+03  0.00000000000E+00 0. -1.
      99926    2    1    2    0    0  0.00000000000E+00  0.00000000000E+00 -0.13582657197E+03  0.47368075385E+03  0.45378915689E+03 0.  0.
         25    1    3    3    0    0  0.72718551182E+01  0.24987901456E+02  0.34736681886E+02  0.13240626973E+03  0.12509000000E+03 0.  0.
         25    1    3    3    0    0 -0.70331376842E+02  0.12538881900E+02 -0.12064084612E+03  0.18789744006E+03  0.12509000000E+03 0.  0.
         25    1    3    3    0    0  0.63059521723E+02 -0.37526783356E+02 -0.49922407738E+02  0.15337704406E+03  0.12509000000E+03 0.  0.
<mgrwt>
<rscale>  2 0.45378916E+03</rscale>
<asrwt>0</asrwt>
<pdfrwt beam="1">  1       21 0.24842220E-01 0.45378916E+03</pdfrwt>
<pdfrwt beam="2">  1       21 0.44816714E-01 0.45378916E+03</pdfrwt>
<totfact> 0.67812316E+04</totfact>
</mgrwt>
</event>
<event>
 6    0  0.1572624E-007  0.4550016E+03  0.7546771E-02  0.1026241E+00
         21   -1    0    0  502  501  0.00000000000E+00  0.00000000000E+00  0.84805743747E+02  0.84805743747E+02  0.00000000000E+00 0. -1.
         21   -1    0    0  501  502 -0.00000000000E+00 -0.00000000000E+00 -0.61029611531E+03  0.61029611531E+03  0.00000000000E+00 0. -1.
      99926    2    1    2    0    0  0.88817841970E-15 -0.53290705182E-14 -0.52549037156E+03  0.69510185905E+03  0.45500160863E+03 0.  0.
         25    1    3    3    0    0 -0.49895882549E+01 -0.14933497639E+02 -0.12593276946E+03  0.17819785596E+03  0.12509000000E+03 0.  0.
         25    1    3    3    0    0 -0.62268573736E+02  0.79451604903E+02 -0.26954821951E+03  0.31383703340E+03  0.12509000000E+03 0.  0.
         25    1    3    3    0    0  0.67258161991E+02 -0.64518107264E+02 -0.13000938259E+03  0.20306696969E+03  0.12509000000E+03 0.  0.
<mgrwt>
<rscale>  2 0.45500161E+03</rscale>
<asrwt>0</asrwt>
<pdfrwt beam="1">  1       21 0.12471433E-01 0.45500161E+03</pdfrwt>
<pdfrwt beam="2">  1       21 0.89749427E-01 0.45500161E+03</pdfrwt>
<totfact> 0.53169059E+04</totfact>
</mgrwt>
</event>
<event>
 6    0  0.1572624E-007  0.4557449E+03  0.7546771E-02  0.1026023E+00
         21   -1    0    0  502  501  0.00000000000E+00  0.00000000000E+00  0.93212088154E+02  0.93212088154E+02  0.00000000000E+00 0. -1.
         21   -1    0    0  501  502 -0.00000000000E+00 -0.00000000000E+00 -0.55707221441E+03  0.55707221441E+03  0.00000000000E+00 0. -1.
      99926    2    1    2    0    0  0.00000000000E+00  0.14210854715E-13 -0.46386012626E+03  0.65028430256E+03  0.45574494778E+03 0.  0.
         25    1    3    3    0    0  0.70054208464E+02  0.96056717939E+02 -0.18327219096E+03  0.25173535561E+03  0.12509000000E+03 0.  0.
         25    1    3    3    0    0 -0.41238385530E+02 -0.50660706527E+02 -0.10269796444E+03  0.17453220800E+03  0.12509000000E+03 0.  0.
         25    1    3    3    0    0 -0.28815822934E+02 -0.45396011412E+02 -0.17788997086E+03  0.22401673896E+03  0.12509000000E+03 0.  0.
<mgrwt>
<rscale>  2 0.45574495E+03</rscale>
<asrwt>0</asrwt>
<pdfrwt beam="1">  1       21 0.13707660E-01 0.45574495E+03</pdfrwt>
<pdfrwt beam="2">  1       21 0.81922384E-01 0.45574495E+03</pdfrwt>
<totfact> 0.55359060E+04</totfact>
</mgrwt>
</event>
<event>
 6    0  0.1572624E-007  0.4539283E+03  0.7546771E-02  0.1026557E+00
         21   -1    0    0  502  501  0.00000000000E+00  0.00000000000E+00  0.90620805049E+02  0.90620805049E+02  0.00000000000E+00 0.  1.
         21   -1    0    0  501  502 -0.00000000000E+00 -0.00000000000E+00 -0.56844266553E+03  0.56844266553E+03  0.00000000000E+00 0.  1.
      99926    2    1    2    0    0  0.00000000000E+00  0.00000000000E+00 -0.47782186048E+03  0.65906347058E+03  0.45392832903E+03 0.  0.
         25    1    3    3    0    0  0.56920381331E+02 -0.25124645118E+02 -0.16545059575E+03  0.21654695873E+03  0.12509000000E+03 0.  0.
         25    1    3    3    0    0  0.32067195543E+02  0.20726049222E+02 -0.53062398866E+02  0.14114177418E+03  0.12509000000E+03 0.  0.
         25    1    3    3    0    0 -0.88987576873E+02  0.43985958957E+01 -0.25930886587E+03  0.30137473767E+03  0.12509000000E+03 0.  0.
<mgrwt>
<rscale>  2 0.45392833E+03</rscale>
<asrwt>0</asrwt>
<pdfrwt beam="1">  1       21 0.13326588E-01 0.45392833E+03</pdfrwt>
<pdfrwt beam="2">  1       21 0.83594513E-01 0.45392833E+03</pdfrwt>
<totfact> 0.55650832E+04</totfact>
</mgrwt>
</event>
<event>
 6    0  0.1572624E-007  0.4564142E+03  0.7546771E-02  0.1025826E+00
         21   -1    0    0  502  501  0.00000000000E+00  0.00000000000E+00  0.98814920754E+02  0.98814920754E+02  0.00000000000E+00 0. -1.
         21   -1    0    0  501  502 -0.00000000000E+00 -0.00000000000E+00 -0.52703042663E+03  0.52703042663E+03  0.00000000000E+00 0. -1.
      99926    2    1    2    0    0 -0.35527136788E-14 -0.35527136788E-14 -0.42821550588E+03  0.62584534738E+03  0.45641415334E+03 0.  0.
         25    1    3    3    0    0  0.77406217138E+02 -0.55524940493E+02 -0.20129825144E+03  0.25542755451E+03  0.12509000000E+03 0.  0.
         25    1    3    3    0    0  0.44302283171E+01  0.25718023232E+02 -0.15781267664E+03  0.20306007153E+03  0.12509000000E+03 0.  0.
         25    1    3    3    0    0 -0.81836445455E+02  0.29806917261E+02 -0.69104577791E+02  0.16735772134E+03  0.12509000000E+03 0.  0.
<mgrwt>
<rscale>  2 0.45641415E+03</rscale>
<asrwt>0</asrwt>
<pdfrwt beam="1">  1       21 0.14531606E-01 0.45641415E+03</pdfrwt>
<pdfrwt beam="2">  1       21 0.77504475E-01 0.45641415E+03</pdfrwt>
<totfact> 0.56481702E+04</totfact>
</mgrwt>
</event>
<event>
 6    0  0.1572624E-007  0.4505510E+03  0.7546771E-02  0.1027558E+00
         21   -1    0    0  502  501  0.00000000000E+00  0.00000000000E+00  0.17495083340E+03  0.17495083340E+03  0.00000000000E+00 0.  1.
         21   -1    0    0  501  502 -0.00000000000E+00 -0.00000000000E+00 -0.29007609009E+03  0.29007609009E+03  0.00000000000E+00 0.  1.
      99926    2    1    2    0    0  0.00000000000E+00  0.35527136788E-14 -0.11512525669E+03  0.46502692348E+03  0.45055101247E+03 0.  0.
         25    1    3    3    0    0 -0.71629333425E+02 -0.20104823706E+02 -0.54795584212E+02  0.15551536738E+03  0.12509000000E+03 0.  0.
         25    1    3    3    0    0  0.57184092400E+02 -0.21839808931E+02  0.37972768511E+02  0.14434831806E+03  0.12509000000E+03 0.  0.
         25    1    3    3    0    0  0.14445241025E+02  0.41944632636E+02 -0.98302440991E+02  0.16516323804E+03  0.12509000000E+03 0.  0.
<mgrwt>
<rscale>  2 0.45055101E+03</rscale>
<asrwt>0</asrwt>
<pdfrwt beam="1">  1       21 0.25728064E-01 0.45055101E+03</pdfrwt>
<pdfrwt beam="2">  1       21 0.42658248E-01 0.45055101E+03</pdfrwt>
<totfact> 0.70254293E+04</totfact>
</mgrwt>
</event>
<event>
 6    0  0.1572624E-007  0.4513074E+03  0.7546771E-02  0.1027333E+00
         21   -1    0    0  502  501  0.00000000000E+00  0.00000000000E+00  0.55759867130E+03  0.55759867130E+03  0.00000000000E+00 0.  1.
         21   -1    0    0  501  502 -0.00000000000E+00 -0.00000000000E+00 -0.91319423153E+02  0.91319423153E+02  0.00000000000E+00 0.  1.
      99926    2    1    2    0    0 -0.71054273576E-14  0.14210854715E-13  0.46627924815E+03  0.64891809445E+03  0.45130738533E+03 0.  0.
         25    1    3    3    0    0  0.50223258133E+02 -0.60232554932E+02  0.22563328443E+03  0.26964462441E+03  0.12509000000E+03 0.  0.
         25    1    3    3    0    0 -0.10263270839E+02 -0.17246798260E+02  0.16790771820E+03  0.21034090593E+03  0.12509000000E+03 0.  0.
         25    1    3    3    0    0 -0.39959987295E+02  0.77479353192E+02  0.72738245523E+02  0.16893256411E+03  0.12509000000E+03 0.  0.
<mgrwt>
<rscale>  2 0.45130739E+03</rscale>
<asrwt>0</asrwt>
<pdfrwt beam="1">  1       21 0.81999803E-01 0.45130739E+03</pdfrwt>
<pdfrwt beam="2">  1       21 0.13429327E-01 0.45130739E+03</pdfrwt>
<totfact> 0.57418322E+04</totfact>
</mgrwt>
</event>
<event>
 6    0  0.1572624E-007  0.4559585E+03  0.7546771E-02  0.1025960E+00
         21   -1    0    0  502  501  0.00000000000E+00  0.00000000000E+00  0.22909355750E+03  0.22909355750E+03  0.00000000000E+00 0.  1.
         21   -1    0    0  501  502 -0.00000000000E+00 -0.00000000000E+00 -0.22687034284E+03  0.22687034284E+03  0.00000000000E+00 0.  1.
      99926    2    1    2    0    0  0.00000000000E+00  0.00000000000E+00  0.22232146535E+01  0.45596390034E+03  0.45595848027E+03 0.  0.
         25    1    3    3    0    0 -0.99878860696E+02  0.21833316712E+02  0.62007428479E+01  0.16167386259E+03  0.12509000000E+03 0.  0.
         25    1    3    3    0    0  0.89550500532E+02  0.17741865525E+02 -0.35683336577E+02  0.15891782325E+03  0.12509000000E+03 0.  0.
         25    1    3    3    0    0  0.10328360165E+02 -0.39575182237E+02  0.31705808383E+02  0.13537221450E+03  0.12509000000E+03 0.  0.
<mgrwt>
<rscale>  2 0.45595848E+03</rscale>
<asrwt>0</asrwt>
<pdfrwt beam="1">  1       21 0.33690229E-01 0.45595848E+03</pdfrwt>
<pdfrwt beam="2">  1       21 0.33363286E-01 0.45595848E+03</pdfrwt>
<totfact> 0.67954053E+04</totfact>
</mgrwt>
</event>
<event>
 6    0  0.1572624E-007  0.4521954E+03  0.7546771E-02  0.1027069E+00
         21   -1    0    0  502  501  0.00000000000E+00  0.00000000000E+00  0.31838388949E+02  0.31838388949E+02  0.00000000000E+00 0.  1.
         21   -1    0    0  501  502 -0.00000000000E+00 -0.00000000000E+00 -0.16056139405E+04  0.16056139405E+04  0.00000000000E+00 0.  1.
      99926    2    1    2    0    0  0.14210854715E-13 -0.17763568394E-14 -0.15737755515E+04  0.16374523294E+04  0.45219536105E+03 0.  0.
         25    1    3    3    0    0  0.78475330283E+02  0.71315181460E+02 -0.54789263961E+03  0.57190740964E+03  0.12509000000E+03 0.  0.
         25    1    3    3    0    0 -0.55736097163E+01 -0.61674233488E+02 -0.42247178406E+03  0.44493223375E+03  0.12509000000E+03 0.  0.
         25    1    3    3    0    0 -0.72901720566E+02 -0.96409479716E+01 -0.60341112784E+03  0.62061268601E+03  0.12509000000E+03 0.  0.
<mgrwt>
<rscale>  2 0.45219536E+03</rscale>
<asrwt>0</asrwt>
<pdfrwt beam="1">  1       21 0.46821163E-02 0.45219536E+03</pdfrwt>
<pdfrwt beam="2">  1       21 0.23611968E+00 0.45219536E+03</pdfrwt>
<totfact> 0.21051230E+04</totfact>
</mgrwt>
</event>
<event>
 6    0  0.1572624E-007  0.4558357E+03  0.7546771E-02  0.1025996E+00
         21   -1    0    0  502  501  0.00000000000E+00  0.00000000000E+00  0.32967666161E+03  0.32967666161E+03  0.00000000000E+00 0.  1.
         21   -1    0    0  501  502 -0.00000000000E+00 -0.00000000000E+00 -0.15756813124E+03  0.15756813124E+03  0.00000000000E+00 0.  1.
      99926    2    1    2    0    0 -0.14210854715E-13  0.88817841970E-15  0.17210853037E+03  0.48724479286E+03  0.45583565233E+03 0.  0.
         25    1    3    3    0    0 -0.32023694774E+02 -0.88023170027E+01 -0.29621781071E+02  0.13277031229E+03  0.12509000000E+03 0.  0.
         25    1    3    3    0    0  0.77715824513E+02 -0.79663982255E+01  0.15074894221E+03  0.21089325394E+03  0.12509000000E+03 0.  0.
         25    1    3    3    0    0 -0.45692129739E+02  0.16768715228E+02  0.50981369233E+02  0.14358122663E+03  0.12509000000E+03 0.  0.
<mgrwt>
<rscale>  2 0.45583565E+03</rscale>
<asrwt>0</asrwt>
<pdfrwt beam="1">  1       21 0.48481862E-01 0.45583565E+03</pdfrwt>
<pdfrwt beam="2">  1       21 0.23171784E-01 0.45583565E+03</pdfrwt>
<totfact> 0.65739209E+04</totfact>
</mgrwt>
</event>
<event>
 6    0  0.1572624E-007  0.4585301E+03  0.7546771E-02  0.1025208E+00
         21   -1    0    0  502  501  0.00000000000E+00  0.00000000000E+00  0.28341928780E+03  0.28341928780E+03  0.00000000000E+00 0. -1.
         21   -1    0    0  501  502 -0.00000000000E+00 -0.00000000000E+00 -0.18545827864E+03  0.18545827864E+03  0.00000000000E+00 0. -1.
      99926    2    1    2    0    0  0.00000000000E+00 -0.71054273576E-14  0.97961009162E+02  0.46887756644E+03  0.45853005680E+03 0.  0.
         25    1    3    3    0    0 -0.13838723301E+02  0.41565738623E+02  0.15267776074E+01  0.13254833096E+03  0.12509000000E+03 0.  0.
         25    1    3    3    0    0 -0.10321918666E+02 -0.11567899690E+03  0.24906435047E+02  0.17249930706E+03  0.12509000000E+03 0.  0.
         25    1    3    3    0    0  0.24160641967E+02  0.74113258278E+02  0.71527796507E+02  0.16382992842E+03  0.12509000000E+03 0.  0.
<mgrwt>
<rscale>  2 0.45853006E+03</rscale>
<asrwt>0</asrwt>
<pdfrwt beam="1">  1       21 0.41679307E-01 0.45853006E+03</pdfrwt>
<pdfrwt beam="2">  1       21 0.27273276E-01 0.45853006E+03</pdfrwt>
<totfact> 0.65661525E+04</totfact>
</mgrwt>
</event>
<event>
 6    0  0.1572624E-007  0.4560626E+03  0.7546771E-02  0.1025929E+00
         21   -1    0    0  502  501  0.00000000000E+00  0.00000000000E+00  0.29632035397E+03  0.29632035397E+03  0.00000000000E+00 0. -1.
         21   -1    0    0  501  502 -0.00000000000E+00 -0.00000000000E+00 -0.17547995497E+03  0.17547995497E+03  0.00000000000E+00 0. -1.
      99926    2    1    2    0    0  0.14210854715E-13  0.00000000000E+00  0.12084039900E+03  0.47180030894E+03  0.45606263768E+03 0.  0.
         25    1    3    3    0    0  0.88614044587E+02  0.45510673145E+02  0.68768945174E+02  0.17406994625E+03  0.12509000000E+03 0.  0.
         25    1    3    3    0    0 -0.79438343950E+02 -0.87441598596E+01 -0.17832791782E+02  0.14950728204E+03  0.12509000000E+03 0.  0.
         25    1    3    3    0    0 -0.91757006367E+01 -0.36766513286E+02  0.69904245611E+02  0.14822308064E+03  0.12509000000E+03 0.  0.
<mgrwt>
<rscale>  2 0.45606264E+03</rscale>
<asrwt>0</asrwt>
<pdfrwt beam="1">  1       21 0.43576523E-01 0.45606264E+03</pdfrwt>
<pdfrwt beam="2">  1       21 0.25805876E-01 0.45606264E+03</pdfrwt>
<totfact> 0.66737656E+04</totfact>
</mgrwt>
</event>
<event>
 6    0  0.1572624E-007  0.4543625E+03  0.7546771E-02  0.1026429E+00
         21   -1    0    0  502  501  0.00000000000E+00  0.00000000000E+00  0.50772076213E+03  0.50772076213E+03  0.00000000000E+00 0.  1.
         21   -1    0    0  501  502 -0.00000000000E+00 -0.00000000000E+00 -0.10165298567E+03  0.10165298567E+03  0.00000000000E+00 0.  1.
      99926    2    1    2    0    0  0.71054273576E-14  0.00000000000E+00  0.40606777646E+03  0.60937374780E+03  0.45436254844E+03 0.  0.
         25    1    3    3    0    0  0.14832535587E+02  0.83432028800E+02  0.12335019523E+03  0.19504790772E+03  0.12509000000E+03 0.  0.
         25    1    3    3    0    0  0.23249509295E+02 -0.93392060021E+02  0.91417032354E+02  0.18239297810E+03  0.12509000000E+03 0.  0.
         25    1    3    3    0    0 -0.38082044882E+02  0.99600312213E+01  0.19130054888E+03  0.23193286198E+03  0.12509000000E+03 0.  0.
<mgrwt>
<rscale>  2 0.45436255E+03</rscale>
<asrwt>0</asrwt>
<pdfrwt beam="1">  1       21 0.74664817E-01 0.45436255E+03</pdfrwt>
<pdfrwt beam="2">  1       21 0.14948969E-01 0.45436255E+03</pdfrwt>
<totfact> 0.58398466E+04</totfact>
</mgrwt>
</event>
<event>
 6    0  0.1572624E-007  0.4585259E+03  0.7546771E-02  0.1025210E+00
         21   -1    0    0  502  501  0.00000000000E+00  0.00000000000E+00  0.99159039018E+02  0.99159039018E+02  0.00000000000E+00 0. -1.
         21   -1    0    0  501  502 -0.00000000000E+00 -0.00000000000E+00 -0.53007263239E+03  0.53007263239E+03  0.00000000000E+00 0. -1.
      99926    2    1    2    0    0 -0.71054273576E-14  0.00000000000E+00 -0.43091359337E+03  0.62923167141E+03  0.45852586770E+03 0.  0.
         25    1    3    3    0    0 -0.70013138232E+02 -0.28538221533E+01 -0.35006583086E+02  0.14759049016E+03  0.12509000000E+03 0.  0.
         25    1    3    3    0    0  0.59486517432E+02  0.13633439268E+02 -0.26864759662E+03  0.30256165602E+03  0.12509000000E+03 0.  0.
         25    1    3    3    0    0  0.10526620800E+02 -0.10779617114E+02 -0.12725941366E+03  0.17907952523E+03  0.12509000000E+03 0.  0.
<mgrwt>
<rscale>  2 0.45852587E+03</rscale>
<asrwt>0</asrwt>
<pdfrwt beam="1">  1       21 0.14582212E-01 0.45852587E+03</pdfrwt>
<pdfrwt beam="2">  1       21 0.77951856E-01 0.45852587E+03</pdfrwt>
<totfact> 0.55357091E+04</totfact>
</mgrwt>
</event>
<event>
 6    0  0.1572624E-007  0.4600545E+03  0.7546771E-02  0.1024765E+00
         21   -1    0    0  502  501  0.00000000000E+00  0.00000000000E+00  0.17787083317E+03  0.17787083317E+03  0.00000000000E+00 0.  1.
         21   -1    0    0  501  502 -0.00000000000E+00 -0.00000000000E+00 -0.29747735629E+03  0.29747735629E+03  0.00000000000E+00 0.  1.
      99926    2    1    2    0    0  0.00000000000E+00 -0.17763568394E-14 -0.11960652312E+03  0.47534818945E+03  0.46005454116E+03 0.  0.
         25    1    3    3    0    0 -0.12231883442E+02  0.53407930357E+02 -0.10108441325E+03  0.16990465767E+03  0.12509000000E+03 0.  0.
         25    1    3    3    0    0  0.80352959054E+02  0.80546964866E+00 -0.33185970754E+02  0.15233536544E+03  0.12509000000E+03 0.  0.
         25    1    3    3    0    0 -0.68121075612E+02 -0.54213400006E+02  0.14663860883E+02  0.15310816634E+03  0.12509000000E+03 0.  0.
<mgrwt>
<rscale>  2 0.46005454E+03</rscale>
<asrwt>0</asrwt>
<pdfrwt beam="1">  1       21 0.26157475E-01 0.46005454E+03</pdfrwt>
<pdfrwt beam="2">  1       21 0.43746670E-01 0.46005454E+03</pdfrwt>
<totfact> 0.64417819E+04</totfact>
</mgrwt>
</event>
<event>
 6    0  0.1572624E-007  0.4597324E+03  0.7546771E-02  0.1024859E+00
         21   -1    0    0  502  501  0.00000000000E+00  0.00000000000E+00  0.10565368102E+04  0.10565368102E+04  0.00000000000E+00 0.  1.
         21   -1    0    0  501  502 -0.00000000000E+00 -0.00000000000E+00 -0.50011012546E+02  0.50011012546E+02  0.00000000000E+00 0.  1.
      99926    2    1    2    0    0 -0.14210854715E-13  0.71054273576E-14  0.10065257976E+04  0.11065478227E+04  0.45973242509E+03 0.  0.
         25    1    3    3    0    0  0.93626639422E+01  0.47077972677E+02  0.51332276368E+03  0.53052027558E+03  0.12509000000E+03 0.  0.
         25    1    3    3    0    0  0.69144613969E+02 -0.40412694951E+02  0.27323542782E+03  0.31099721971E+03  0.12509000000E+03 0.  0.
         25    1    3    3    0    0 -0.78507277911E+02 -0.66652777260E+01  0.21996760615E+03  0.26503032745E+03  0.12509000000E+03 0.  0.
<mgrwt>
<rscale>  2 0.45973243E+03</rscale>
<asrwt>0</asrwt>
<pdfrwt beam="1">  1       21 0.15537305E+00 0.45973243E+03</pdfrwt>
<pdfrwt beam="2">  1       21 0.73545613E-02 0.45973243E+03</pdfrwt>
<totfact> 0.33994704E+04</totfact>
</mgrwt>
</event>
<event>
 6    0  0.1572624E-007  0.4544841E+03  0.7546771E-02  0.1026393E+00
         21   -1    0    0  502  501  0.00000000000E+00  0.00000000000E+00  0.66167413411E+02  0.66167413411E+02  0.00000000000E+00 0. -1.
         21   -1    0    0  501  502 -0.00000000000E+00 -0.00000000000E+00 -0.78042870373E+03  0.78042870373E+03  0.00000000000E+00 0. -1.
      99926    2    1    2    0    0  0.00000000000E+00  0.00000000000E+00 -0.71426129032E+03  0.84659611714E+03  0.45448409731E+03 0.  0.
         25    1    3    3    0    0 -0.18668360869E+02 -0.33703827096E+02 -0.14237425480E+03  0.19339698082E+03  0.12509000000E+03 0.  0.
         25    1    3    3    0    0  0.14949037966E+01  0.11109746134E+03 -0.29136909024E+03  0.33598859430E+03  0.12509000000E+03 0.  0.
         25    1    3    3    0    0  0.17173457073E+02 -0.77393634240E+02 -0.28051794527E+03  0.31721054202E+03  0.12509000000E+03 0.  0.
<mgrwt>
<rscale>  2 0.45448410E+03</rscale>
<asrwt>0</asrwt>
<pdfrwt beam="1">  1       21 0.97305015E-02 0.45448410E+03</pdfrwt>
<pdfrwt beam="2">  1       21 0.11476893E+00 0.45448410E+03</pdfrwt>
<totfact> 0.45777015E+04</totfact>
</mgrwt>
</event>
<event>
 6    0  0.1572624E-007  0.4524511E+03  0.7546771E-02  0.1026994E+00
         21   -1    0    0  502  501  0.00000000000E+00  0.00000000000E+00  0.50263205082E+03  0.50263205082E+03  0.00000000000E+00 0. -1.
         21   -1    0    0  501  502 -0.00000000000E+00 -0.00000000000E+00 -0.10182002002E+03  0.10182002002E+03  0.00000000000E+00 0. -1.
      99926    2    1    2    0    0  0.71054273576E-14 -0.35527136788E-14  0.40081203080E+03  0.60445207084E+03  0.45245112654E+03 0.  0.
         25    1    3    3    0    0 -0.25221824583E+02 -0.16627787773E+02  0.15430772845E+03  0.20092537650E+03  0.12509000000E+03 0.  0.
         25    1    3    3    0    0 -0.70835619264E+02  0.29073023553E+02  0.17928353352E+03  0.23163121367E+03  0.12509000000E+03 0.  0.
         25    1    3    3    0    0  0.96057443848E+02 -0.12445235780E+02  0.67220768819E+02  0.17189548066E+03  0.12509000000E+03 0.  0.
<mgrwt>
<rscale>  2 0.45245113E+03</rscale>
<asrwt>0</asrwt>
<pdfrwt beam="1">  1       21 0.73916477E-01 0.45245113E+03</pdfrwt>
<pdfrwt beam="2">  1       21 0.14973533E-01 0.45245113E+03</pdfrwt>
<totfact> 0.59596082E+04</totfact>
</mgrwt>
</event>
<event>
 6    0  0.1572624E-007  0.4551100E+03  0.7546771E-02  0.1026209E+00
         21   -1    0    0  502  501  0.00000000000E+00  0.00000000000E+00  0.38724498076E+03  0.38724498076E+03  0.00000000000E+00 0.  1.
         21   -1    0    0  501  502 -0.00000000000E+00 -0.00000000000E+00 -0.13371708603E+03  0.13371708603E+03  0.00000000000E+00 0.  1.
      99926    2    1    2    0    0  0.71054273576E-14  0.26645352591E-14  0.25352789473E+03  0.52096206679E+03  0.45510996652E+03 0.  0.
         25    1    3    3    0    0  0.62545727990E+02  0.51828271591E+02  0.81179395945E+02  0.16981089556E+03  0.12509000000E+03 0.  0.
         25    1    3    3    0    0 -0.15098946088E+02 -0.56957189251E+02  0.16747148799E+03  0.21717805361E+03  0.12509000000E+03 0.  0.
         25    1    3    3    0    0 -0.47446781902E+02  0.51289176595E+01  0.48770107974E+01  0.13397311762E+03  0.12509000000E+03 0.  0.
<mgrwt>
<rscale>  2 0.45510997E+03</rscale>
<asrwt>0</asrwt>
<pdfrwt beam="1">  1       21 0.56947791E-01 0.45510997E+03</pdfrwt>
<pdfrwt beam="2">  1       21 0.19664277E-01 0.45510997E+03</pdfrwt>
<totfact> 0.63766110E+04</totfact>
</mgrwt>
</event>
<event>
 6    0  0.1572624E-007  0.4545652E+03  0.7546771E-02  0.1026369E+00
         21   -1    0    0  502  501  0.00000000000E+00  0.00000000000E+00  0.22052980348E+02  0.22052980348E+02  0.00000000000E+00 0.  1.
         21   -1    0    0  501  502 -0.00000000000E+00 -0.00000000000E+00 -0.23424218011E+04  0.23424218011E+04  0.00000000000E+00 0.  1.
      99926    2    1    2    0    0  0.35527136788E-14  0.00000000000E+00 -0.23203688208E+04  0.23644747815E+04  0.45456520741E+03 0.  0.
         25    1    3    3    0    0 -0.33053655345E+02 -0.46197816369E+02 -0.92994609827E+03  0.94003938011E+03  0.12509000000E+03 0.  0.
         25    1    3    3    0    0 -0.30736478183E+02 -0.32439989406E+02 -0.85798093950E+03  0.86820267487E+03  0.12509000000E+03 0.  0.
         25    1    3    3    0    0  0.63790133528E+02  0.78637805775E+02 -0.53244178301E+03  0.55623272650E+03  0.12509000000E+03 0.  0.
<mgrwt>
<rscale>  2 0.45456521E+03</rscale>
<asrwt>0</asrwt>
<pdfrwt beam="1">  1       21 0.32430851E-02 0.45456521E+03</pdfrwt>
<pdfrwt beam="2">  1       21 0.34447382E+00 0.45456521E+03</pdfrwt>
<totfact> 0.86488934E+03</totfact>
</mgrwt>
</event>
<event>
 6    0  0.1572624E-007  0.4454954E+03  0.7546771E-02  0.1029074E+00
         21   -1    0    0  502  501  0.00000000000E+00  0.00000000000E+00  0.11058732876E+04  0.11058732876E+04  0.00000000000E+00 0. -1.
         21   -1    0    0  501  502 -0.00000000000E+00 -0.00000000000E+00 -0.44866392780E+02  0.44866392780E+02  0.00000000000E+00 0. -1.
      99926    2    1    2    0    0  0.00000000000E+00 -0.14210854715E-13  0.10610068948E+04  0.11507396804E+04  0.44549543337E+03 0.  0.
         25    1    3    3    0    0  0.55509722229E+02  0.67022753372E+02  0.49399549691E+03  0.51696463883E+03  0.12509000000E+03 0.  0.
         25    1    3    3    0    0 -0.43069245707E+02 -0.73348529192E+02  0.37305985331E+03  0.40256195661E+03  0.12509000000E+03 0.  0.
         25    1    3    3    0    0 -0.12440476522E+02  0.63257758204E+01  0.19395154462E+03  0.23121308496E+03  0.12509000000E+03 0.  0.
<mgrwt>
<rscale>  2 0.44549543E+03</rscale>
<asrwt>0</asrwt>
<pdfrwt beam="1">  1       21 0.16262841E+00 0.44549543E+03</pdfrwt>
<pdfrwt beam="2">  1       21 0.65979996E-02 0.44549543E+03</pdfrwt>
<totfact> 0.36378636E+04</totfact>
</mgrwt>
</event>
<event>
 6    0  0.1572624E-007  0.4727772E+03  0.7546771E-02  0.1021139E+00
         21   -1    0    0  502  501  0.00000000000E+00  0.00000000000E+00  0.71903702757E+02  0.71903702757E+02  0.00000000000E+00 0. -1.
         21   -1    0    0  501  502 -0.00000000000E+00 -0.00000000000E+00 -0.77714448948E+03  0.77714448948E+03  0.00000000000E+00 0. -1.
      99926    2    1    2    0    0 -0.35527136788E-14 -0.53290705182E-14 -0.70524078672E+03  0.84904819223E+03  0.47277718376E+03 0.  0.
         25    1    3    3    0    0  0.21489168023E+02  0.10912782818E+02 -0.24225991630E+03  0.27371198059E+03  0.12509000000E+03 0.  0.
         25    1    3    3    0    0 -0.67476758753E+02 -0.10571249544E+03 -0.26119285315E+03  0.31559065148E+03  0.12509000000E+03 0.  0.
         25    1    3    3    0    0  0.45987590731E+02  0.94799712619E+02 -0.20178801727E+03  0.25974556017E+03  0.12509000000E+03 0.  0.
<mgrwt>
<rscale>  2 0.47277718E+03</rscale>
<asrwt>0</asrwt>
<pdfrwt beam="1">  1       21 0.10574074E-01 0.47277718E+03</pdfrwt>
<pdfrwt beam="2">  1       21 0.11428595E+00 0.47277718E+03</pdfrwt>
<totfact> 0.39655437E+04</totfact>
</mgrwt>
</event>
<event>
 6    0  0.1572624E-007  0.4598125E+03  0.7546771E-02  0.1024836E+00
         21   -1    0    0  502  501  0.00000000000E+00  0.00000000000E+00  0.61963888489E+03  0.61963888489E+03  0.00000000000E+00 0.  1.
         21   -1    0    0  501  502 -0.00000000000E+00 -0.00000000000E+00 -0.85302718562E+02  0.85302718562E+02  0.00000000000E+00 0.  1.
      99926    2    1    2    0    0  0.00000000000E+00  0.00000000000E+00  0.53433616633E+03  0.70494160345E+03  0.45981248964E+03 0.  0.
         25    1    3    3    0    0  0.87785063695E+02  0.68338698182E+02  0.20442461543E+03  0.26422211598E+03  0.12509000000E+03 0.  0.
         25    1    3    3    0    0 -0.92442702486E+02 -0.60125021987E+02  0.19051731028E+03  0.25318970186E+03  0.12509000000E+03 0.  0.
         25    1    3    3    0    0  0.46576387913E+01 -0.82136761945E+01  0.13939424061E+03  0.18752978561E+03  0.12509000000E+03 0.  0.
<mgrwt>
<rscale>  2 0.45981249E+03</rscale>
<asrwt>0</asrwt>
<pdfrwt beam="1">  1       21 0.91123364E-01 0.45981249E+03</pdfrwt>
<pdfrwt beam="2">  1       21 0.12544518E-01 0.45981249E+03</pdfrwt>
<totfact> 0.50688520E+04</totfact>
</mgrwt>
</event>
<event>
 6    0  0.1572624E-007  0.4632540E+03  0.7546771E-02  0.1023842E+00
         21   -1    0    0  502  501  0.00000000000E+00  0.00000000000E+00  0.15329101057E+03  0.15329101057E+03  0.00000000000E+00 0.  1.
         21   -1    0    0  501  502 -0.00000000000E+00 -0.00000000000E+00 -0.34999493774E+03  0.34999493774E+03  0.00000000000E+00 0.  1.
      99926    2    1    2    0    0  0.10658141036E-13  0.00000000000E+00 -0.19670392716E+03  0.50328594831E+03  0.46325404564E+03 0.  0.
         25    1    3    3    0    0  0.25021799278E+02 -0.15844590592E+01 -0.40274028427E+01  0.12764140795E+03  0.12509000000E+03 0.  0.
         25    1    3    3    0    0 -0.89598007312E+02 -0.56643938964E+02 -0.13626011312E+03  0.21319161631E+03  0.12509000000E+03 0.  0.
         25    1    3    3    0    0  0.64576208034E+02  0.58228398023E+02 -0.56416411196E+02  0.16245292405E+03  0.12509000000E+03 0.  0.
<mgrwt>
<rscale>  2 0.46325405E+03</rscale>
<asrwt>0</asrwt>
<pdfrwt beam="1">  1       21 0.22542796E-01 0.46325405E+03</pdfrwt>
<pdfrwt beam="2">  1       21 0.51469844E-01 0.46325405E+03</pdfrwt>
<totfact> 0.60948012E+04</totfact>
</mgrwt>
</event>
<event>
 6    0  0.1572624E-007  0.4546332E+03  0.7546771E-02  0.1026349E+00
         21   -1    0    0  502  501  0.00000000000E+00  0.00000000000E+00  0.81248179571E+03  0.81248179571E+03  0.00000000000E+00 0. -1.
         21   -1    0    0  501  502 -0.00000000000E+00 -0.00000000000E+00 -0.63598773009E+02  0.63598773009E+02  0.00000000000E+00 0. -1.
      99926    2    1    2    0    0 -0.17763568394E-14  0.00000000000E+00  0.74888302270E+03  0.87608056872E+03  0.45463323811E+03 0.  0.
         25    1    3    3    0    0 -0.60158620217E+01  0.51216243283E+02  0.27423120978E+03  0.30579332676E+03  0.12509000000E+03 0.  0.
         25    1    3    3    0    0 -0.86117716676E+02  0.12083457679E+01  0.21616047076E+03  0.26417906511E+03  0.12509000000E+03 0.  0.
         25    1    3    3    0    0  0.92133578697E+02 -0.52424589051E+02  0.25849134216E+03  0.30610817684E+03  0.12509000000E+03 0.  0.
<mgrwt>
<rscale>  2 0.45463324E+03</rscale>
<asrwt>0</asrwt>
<pdfrwt beam="1">  1       21 0.11948261E+00 0.45463324E+03</pdfrwt>
<pdfrwt beam="2">  1       21 0.93527612E-02 0.45463324E+03</pdfrwt>
<totfact> 0.44411515E+04</totfact>
</mgrwt>
</event>
<event>
 6    0  0.1572624E-007  0.4457937E+03  0.7546771E-02  0.1028984E+00
         21   -1    0    0  502  501  0.00000000000E+00  0.00000000000E+00  0.26503844800E+03  0.26503844800E+03  0.00000000000E+00 0.  1.
         21   -1    0    0  501  502 -0.00000000000E+00 -0.00000000000E+00 -0.18745586400E+03  0.18745586400E+03  0.00000000000E+00 0.  1.
      99926    2    1    2    0    0  0.00000000000E+00  0.00000000000E+00  0.77582584002E+02  0.45249431199E+03  0.44579372477E+03 0.  0.
         25    1    3    3    0    0  0.23739950043E+02 -0.28312107875E+02  0.10568547770E+03  0.16787521847E+03  0.12509000000E+03 0.  0.
         25    1    3    3    0    0  0.23110417179E+02  0.58831925550E+02 -0.43476691479E+02  0.14674132904E+03  0.12509000000E+03 0.  0.
         25    1    3    3    0    0 -0.46850367222E+02 -0.30519817676E+02  0.15373797778E+02  0.13787776448E+03  0.12509000000E+03 0.  0.
<mgrwt>
<rscale>  2 0.44579372E+03</rscale>
<asrwt>0</asrwt>
<pdfrwt beam="1">  1       21 0.38976242E-01 0.44579372E+03</pdfrwt>
<pdfrwt beam="2">  1       21 0.27567039E-01 0.44579372E+03</pdfrwt>
<totfact> 0.74017387E+04</totfact>
</mgrwt>
</event>
<event>
 6    0  0.1572624E-007  0.4553690E+03  0.7546771E-02  0.1026133E+00
         21   -1    0    0  502  501  0.00000000000E+00  0.00000000000E+00  0.10794413059E+03  0.10794413059E+03  0.00000000000E+00 0. -1.
         21   -1    0    0  501  502 -0.00000000000E+00 -0.00000000000E+00 -0.48025061131E+03  0.48025061131E+03  0.00000000000E+00 0. -1.
      99926    2    1    2    0    0  0.00000000000E+00  0.00000000000E+00 -0.37230648072E+03  0.58819474190E+03  0.45536901390E+03 0.  0.
         25    1    3    3    0    0 -0.33874473609E+02  0.61082871528E+02 -0.10808881974E+03  0.17946949102E+03  0.12509000000E+03 0.  0.
         25    1    3    3    0    0  0.35136278496E+02 -0.11693168220E+03 -0.14468650344E+03  0.22691246935E+03  0.12509000000E+03 0.  0.
         25    1    3    3    0    0 -0.12618048873E+01  0.55848810672E+02 -0.11953115754E+03  0.18181278153E+03  0.12509000000E+03 0.  0.
<mgrwt>
<rscale>  2 0.45536901E+03</rscale>
<asrwt>0</asrwt>
<pdfrwt beam="1">  1       21 0.15874137E-01 0.45536901E+03</pdfrwt>
<pdfrwt beam="2">  1       21 0.70625089E-01 0.45536901E+03</pdfrwt>
<totfact> 0.59237892E+04</totfact>
</mgrwt>
</event>
<event>
 6    0  0.1572624E-007  0.4595115E+03  0.7546771E-02  0.1024923E+00
         21   -1    0    0  502  501  0.00000000000E+00  0.00000000000E+00  0.91006624174E+03  0.91006624174E+03  0.00000000000E+00 0.  1.
         21   -1    0    0  501  502 -0.00000000000E+00 -0.00000000000E+00 -0.58004253419E+02  0.58004253419E+02  0.00000000000E+00 0.  1.
      99926    2    1    2    0    0  0.00000000000E+00  0.00000000000E+00  0.85206198832E+03  0.96807049516E+03  0.45951153593E+03 0.  0.
         25    1    3    3    0    0  0.18986292078E+02  0.97777740637E+02  0.35123535896E+03  0.38592065420E+03  0.12509000000E+03 0.  0.
         25    1    3    3    0    0  0.37972817083E+02 -0.11224474482E+02  0.18241156596E+03  0.22469848945E+03  0.12509000000E+03 0.  0.
         25    1    3    3    0    0 -0.56959109161E+02 -0.86553266155E+02  0.31841506339E+03  0.35745135151E+03  0.12509000000E+03 0.  0.
<mgrwt>
<rscale>  2 0.45951154E+03</rscale>
<asrwt>0</asrwt>
<pdfrwt beam="1">  1       21 0.13383326E+00 0.45951154E+03</pdfrwt>
<pdfrwt beam="2">  1       21 0.85300378E-02 0.45951154E+03</pdfrwt>
<totfact> 0.39022925E+04</totfact>
</mgrwt>
</event>
<event>
 6    0  0.1572624E-007  0.4410896E+03  0.7546771E-02  0.1030413E+00
         21   -1    0    0  502  501  0.00000000000E+00  0.00000000000E+00  0.18967411430E+03  0.18967411430E+03  0.00000000000E+00 0. -1.
         21   -1    0    0  501  502 -0.00000000000E+00 -0.00000000000E+00 -0.25643984872E+03  0.25643984872E+03  0.00000000000E+00 0. -1.
      99926    2    1    2    0    0  0.00000000000E+00  0.00000000000E+00 -0.66765734422E+02  0.44611396301E+03  0.44108956540E+03 0.  0.
         25    1    3    3    0    0 -0.14638189905E+02  0.74346408518E+02 -0.80066572385E+02  0.16673280774E+03  0.12509000000E+03 0.  0.
         25    1    3    3    0    0 -0.41403377581E+02 -0.34224852189E+02  0.10355151337E+02  0.13652954787E+03  0.12509000000E+03 0.  0.
         25    1    3    3    0    0  0.56041567486E+02 -0.40121556328E+02  0.29456866268E+01  0.14285160741E+03  0.12509000000E+03 0.  0.
<mgrwt>
<rscale>  2 0.44108957E+03</rscale>
<asrwt>0</asrwt>
<pdfrwt beam="1">  1       21 0.27893252E-01 0.44108957E+03</pdfrwt>
<pdfrwt beam="2">  1       21 0.37711742E-01 0.44108957E+03</pdfrwt>
<totfact> 0.77445672E+04</totfact>
</mgrwt>
</event>
<event>
 6    0  0.1572624E-007  0.4736692E+03  0.7546771E-02  0.1020890E+00
         21   -1    0    0  502  501  0.00000000000E+00  0.00000000000E+00  0.22319263837E+03  0.22319263837E+03  0.00000000000E+00 0.  1.
         21   -1    0    0  501  502 -0.00000000000E+00 -0.00000000000E+00 -0.25131041467E+03  0.25131041467E+03  0.00000000000E+00 0.  1.
      99926    2    1    2    0    0  0.00000000000E+00  0.66613381478E-15 -0.28117776300E+02  0.47450305303E+03  0.47366922846E+03 0.  0.
         25    1    3    3    0    0  0.11192845968E+03  0.35143388607E+02 -0.77760898981E+02  0.18830109761E+03  0.12509000000E+03 0.  0.
         25    1    3    3    0    0 -0.47766204041E+02 -0.36847907943E+02  0.60740712409E+01  0.13901000327E+03  0.12509000000E+03 0.  0.
         25    1    3    3    0    0 -0.64162255640E+02  0.17045193360E+01  0.43569051440E+02  0.14719195215E+03  0.12509000000E+03 0.  0.
<mgrwt>
<rscale>  2 0.47366923E+03</rscale>
<asrwt>0</asrwt>
<pdfrwt beam="1">  1       21 0.32822447E-01 0.47366923E+03</pdfrwt>
<pdfrwt beam="2">  1       21 0.36957414E-01 0.47366923E+03</pdfrwt>
<totfact> 0.58005938E+04</totfact>
</mgrwt>
</event>
<event>
 6    0  0.1572624E-007  0.4559216E+03  0.7546771E-02  0.1025971E+00
         21   -1    0    0  502  501  0.00000000000E+00  0.00000000000E+00  0.75819843277E+03  0.75819843277E+03  0.00000000000E+00 0.  1.
         21   -1    0    0  501  502 -0.00000000000E+00 -0.00000000000E+00 -0.68538957639E+02  0.68538957639E+02  0.00000000000E+00 0.  1.
      99926    2    1    2    0    0  0.00000000000E+00  0.17763568394E-14  0.68965947513E+03  0.82673739041E+03  0.45592161724E+03 0.  0.
         25    1    3    3    0    0 -0.22792362418E+02 -0.22723574413E+01  0.71913462338E+02  0.14609486493E+03  0.12509000000E+03 0.  0.
         25    1    3    3    0    0 -0.35883355816E+02 -0.10336041895E+02  0.41438539523E+03  0.43446198092E+03  0.12509000000E+03 0.  0.
         25    1    3    3    0    0  0.58675718234E+02  0.12608399336E+02  0.20336061757E+03  0.24618054456E+03  0.12509000000E+03 0.  0.
<mgrwt>
<rscale>  2 0.45592162E+03</rscale>
<asrwt>0</asrwt>
<pdfrwt beam="1">  1       21 0.11149976E+00 0.45592162E+03</pdfrwt>
<pdfrwt beam="2">  1       21 0.10079259E-01 0.45592162E+03</pdfrwt>
<totfact> 0.46163866E+04</totfact>
</mgrwt>
</event>
<event>
 6    0  0.1572624E-007  0.4568661E+03  0.7546771E-02  0.1025694E+00
         21   -1    0    0  502  501  0.00000000000E+00  0.00000000000E+00  0.13603825344E+04  0.13603825344E+04  0.00000000000E+00 0. -1.
         21   -1    0    0  501  502 -0.00000000000E+00 -0.00000000000E+00 -0.38358073722E+02  0.38358073722E+02  0.00000000000E+00 0. -1.
      99926    2    1    2    0    0  0.00000000000E+00 -0.62172489379E-14  0.13220244607E+04  0.13987406082E+04  0.45686607905E+03 0.  0.
         25    1    3    3    0    0 -0.33197269563E+02  0.67772948919E+02  0.56305141024E+03  0.58169547874E+03  0.12509000000E+03 0.  0.
         25    1    3    3    0    0  0.69828476678E+02  0.51888751014E+01  0.26907162514E+03  0.30487700493E+03  0.12509000000E+03 0.  0.
         25    1    3    3    0    0 -0.36631207115E+02 -0.72961824020E+02  0.48990142533E+03  0.51216812449E+03  0.12509000000E+03 0.  0.
<mgrwt>
<rscale>  2 0.45686608E+03</rscale>
<asrwt>0</asrwt>
<pdfrwt beam="1">  1       21 0.20005622E+00 0.45686608E+03</pdfrwt>
<pdfrwt beam="2">  1       21 0.56408941E-02 0.45686608E+03</pdfrwt>
<totfact> 0.25986684E+04</totfact>
</mgrwt>
</event>
<event>
 6    0  0.1572624E-007  0.4569604E+03  0.7546771E-02  0.1025666E+00
         21   -1    0    0  502  501  0.00000000000E+00  0.00000000000E+00  0.83480627531E+02  0.83480627531E+02  0.00000000000E+00 0.  1.
         21   -1    0    0  501  502 -0.00000000000E+00 -0.00000000000E+00 -0.62533307311E+03  0.62533307311E+03  0.00000000000E+00 0.  1.
      99926    2    1    2    0    0  0.00000000000E+00  0.00000000000E+00 -0.54185244558E+03  0.70881370064E+03  0.45696038060E+03 0.  0.
         25    1    3    3    0    0 -0.18498464080E+02  0.26996374677E+02 -0.31397674290E+03  0.33955839056E+03  0.12509000000E+03 0.  0.
         25    1    3    3    0    0  0.26943121508E+02 -0.37389691578E+02 -0.33055909626E+02  0.13734672218E+03  0.12509000000E+03 0.  0.
         25    1    3    3    0    0 -0.84446574279E+01  0.10393316901E+02 -0.19481979305E+03  0.23190858790E+03  0.12509000000E+03 0.  0.
<mgrwt>
<rscale>  2 0.45696038E+03</rscale>
<asrwt>0</asrwt>
<pdfrwt beam="1">  1       21 0.12276563E-01 0.45696038E+03</pdfrwt>
<pdfrwt beam="2">  1       21 0.91960746E-01 0.45696038E+03</pdfrwt>
<totfact> 0.51626137E+04</totfact>
</mgrwt>
</event>
<event>
 6    0  0.1572624E-007  0.4591585E+03  0.7546771E-02  0.1025026E+00
         21   -1    0    0  502  501  0.00000000000E+00  0.00000000000E+00  0.22873912266E+03  0.22873912266E+03  0.00000000000E+00 0.  1.
         21   -1    0    0  501  502 -0.00000000000E+00 -0.00000000000E+00 -0.23042248188E+03  0.23042248188E+03  0.00000000000E+00 0.  1.
      99926    2    1    2    0    0  0.00000000000E+00 -0.71054273576E-14 -0.16833592238E+01  0.45916160454E+03  0.45915851880E+03 0.  0.
         25    1    3    3    0    0  0.82344994833E+02 -0.41370404342E+02  0.54984501827E+02  0.16481205074E+03  0.12509000000E+03 0.  0.
         25    1    3    3    0    0  0.36122809968E+01 -0.55413702269E+01  0.12180981120E+01  0.12527069578E+03  0.12509000000E+03 0.  0.
         25    1    3    3    0    0 -0.85957275830E+02  0.46911774568E+02 -0.57885959163E+02  0.16907885802E+03  0.12509000000E+03 0.  0.
<mgrwt>
<rscale>  2 0.45915852E+03</rscale>
<asrwt>0</asrwt>
<pdfrwt beam="1">  1       21 0.33638106E-01 0.45915852E+03</pdfrwt>
<pdfrwt beam="2">  1       21 0.33885659E-01 0.45915852E+03</pdfrwt>
<totfact> 0.66023920E+04</totfact>
</mgrwt>
</event>
<event>
 6    0  0.1572624E-007  0.4550753E+03  0.7546771E-02  0.1026219E+00
         21   -1    0    0  502  501  0.00000000000E+00  0.00000000000E+00  0.95398983956E+03  0.95398983956E+03  0.00000000000E+00 0. -1.
         21   -1    0    0  501  502 -0.00000000000E+00 -0.00000000000E+00 -0.54270366738E+02  0.54270366738E+02  0.00000000000E+00 0. -1.
      99926    2    1    2    0    0 -0.17763568394E-14  0.00000000000E+00  0.89971947282E+03  0.10082602063E+04  0.45507528370E+03 0.  0.
         25    1    3    3    0    0 -0.13966991088E+02 -0.88967686388E+02  0.22706358890E+03  0.27443707396E+03  0.12509000000E+03 0.  0.
         25    1    3    3    0    0 -0.81120088982E+01  0.38510298788E+02  0.48012211741E+03  0.49770835188E+03  0.12509000000E+03 0.  0.
         25    1    3    3    0    0  0.22078999987E+02  0.50457387600E+02  0.19253376651E+03  0.23611478046E+03  0.12509000000E+03 0.  0.
<mgrwt>
<rscale>  2 0.45507528E+03</rscale>
<asrwt>0</asrwt>
<pdfrwt beam="1">  1       21 0.14029261E+00 0.45507528E+03</pdfrwt>
<pdfrwt beam="2">  1       21 0.79809369E-02 0.45507528E+03</pdfrwt>
<totfact> 0.38824204E+04</totfact>
</mgrwt>
</event>
<event>
 6    0  0.1572624E-007  0.4565643E+03  0.7546771E-02  0.1025782E+00
         21   -1    0    0  502  501  0.00000000000E+00  0.00000000000E+00  0.21984881124E+03  0.21984881124E+03  0.00000000000E+00 0. -1.
         21   -1    0    0  501  502 -0.00000000000E+00 -0.00000000000E+00 -0.23703902884E+03  0.23703902884E+03  0.00000000000E+00 0. -1.
      99926    2    1    2    0    0  0.00000000000E+00  0.35527136788E-14 -0.17190217598E+02  0.45688784008E+03  0.45656433810E+03 0.  0.
         25    1    3    3    0    0  0.19948566392E+01  0.10939596343E+03 -0.35775481426E+02  0.16999661597E+03  0.12509000000E+03 0.  0.
         25    1    3    3    0    0  0.81979095744E+01 -0.92072797626E+01  0.87561005863E+01  0.12600062349E+03  0.12509000000E+03 0.  0.
         25    1    3    3    0    0 -0.10192766214E+02 -0.10018868367E+03  0.98291632415E+01  0.16089060062E+03  0.12509000000E+03 0.  0.
<mgrwt>
<rscale>  2 0.45656434E+03</rscale>
<asrwt>0</asrwt>
<pdfrwt beam="1">  1       21 0.32330708E-01 0.45656434E+03</pdfrwt>
<pdfrwt beam="2">  1       21 0.34858681E-01 0.45656434E+03</pdfrwt>
<totfact> 0.67560512E+04</totfact>
</mgrwt>
</event>
<event>
 6    0  0.1572624E-007  0.4486243E+03  0.7546771E-02  0.1028133E+00
         21   -1    0    0  502  501  0.00000000000E+00  0.00000000000E+00  0.23626475645E+03  0.23626475645E+03  0.00000000000E+00 0.  1.
         21   -1    0    0  501  502 -0.00000000000E+00 -0.00000000000E+00 -0.21296422852E+03  0.21296422852E+03  0.00000000000E+00 0.  1.
      99926    2    1    2    0    0  0.35527136788E-14  0.00000000000E+00  0.23300527930E+02  0.44922898497E+03  0.44862430422E+03 0.  0.
         25    1    3    3    0    0 -0.80680624977E+01 -0.80215646791E+02 -0.33261942734E+02  0.15249101140E+03  0.12509000000E+03 0.  0.
         25    1    3    3    0    0  0.58410286877E+02  0.72323714006E+02  0.22799465713E+02  0.15751128518E+03  0.12509000000E+03 0.  0.
         25    1    3    3    0    0 -0.50342224379E+02  0.78919327849E+01  0.33763004950E+02  0.13922668840E+03  0.12509000000E+03 0.  0.
<mgrwt>
<rscale>  2 0.44862430E+03</rscale>
<asrwt>0</asrwt>
<pdfrwt beam="1">  1       21 0.34744817E-01 0.44862430E+03</pdfrwt>
<pdfrwt beam="2">  1       21 0.31318269E-01 0.44862430E+03</pdfrwt>
<totfact> 0.72593899E+04</totfact>
</mgrwt>
</event>
<event>
 6    0  0.1572624E-007  0.4485668E+03  0.7546771E-02  0.1028150E+00
         21   -1    0    0  502  501  0.00000000000E+00  0.00000000000E+00  0.94283302398E+03  0.94283302398E+03  0.00000000000E+00 0. -1.
         21   -1    0    0  501  502 -0.00000000000E+00 -0.00000000000E+00 -0.53353075436E+02  0.53353075436E+02  0.00000000000E+00 0. -1.
      99926    2    1    2    0    0  0.00000000000E+00  0.71054273576E-14  0.88947994854E+03  0.99618609941E+03  0.44856679080E+03 0.  0.
         25    1    3    3    0    0 -0.67675054210E+01 -0.31570281482E+02  0.46680734506E+03  0.48435429935E+03  0.12509000000E+03 0.  0.
         25    1    3    3    0    0 -0.38635278204E+02  0.72022174243E+02  0.22688301475E+03  0.27166760717E+03  0.12509000000E+03 0.  0.
         25    1    3    3    0    0  0.45402783625E+02 -0.40451892761E+02  0.19578958873E+03  0.24016419289E+03  0.12509000000E+03 0.  0.
<mgrwt>
<rscale>  2 0.44856679E+03</rscale>
<asrwt>0</asrwt>
<pdfrwt beam="1">  1       21 0.13865190E+00 0.44856679E+03</pdfrwt>
<pdfrwt beam="2">  1       21 0.78460411E-02 0.44856679E+03</pdfrwt>
<totfact> 0.41354540E+04</totfact>
</mgrwt>
</event>
<event>
 6    0  0.1572624E-007  0.4493918E+03  0.7546771E-02  0.1027904E+00
         21   -1    0    0  502  501  0.00000000000E+00  0.00000000000E+00  0.12314030627E+03  0.12314030627E+03  0.00000000000E+00 0.  1.
         21   -1    0    0  501  502 -0.00000000000E+00 -0.00000000000E+00 -0.41000584933E+03  0.41000584933E+03  0.00000000000E+00 0.  1.
      99926    2    1    2    0    0  0.00000000000E+00 -0.26645352591E-14 -0.28686554305E+03  0.53314615560E+03  0.44939179281E+03 0.  0.
         25    1    3    3    0    0  0.40106967574E+01  0.69986779354E+02 -0.95417993274E+02  0.17223918402E+03  0.12509000000E+03 0.  0.
         25    1    3    3    0    0  0.38139229912E+01 -0.64582917711E+02 -0.11165108092E+02  0.14127160722E+03  0.12509000000E+03 0.  0.
         25    1    3    3    0    0 -0.78246197486E+01 -0.54038616427E+01 -0.18028244168E+03  0.21963536435E+03  0.12509000000E+03 0.  0.
<mgrwt>
<rscale>  2 0.44939179E+03</rscale>
<asrwt>0</asrwt>
<pdfrwt beam="1">  1       21 0.18108868E-01 0.44939179E+03</pdfrwt>
<pdfrwt beam="2">  1       21 0.60294978E-01 0.44939179E+03</pdfrwt>
<totfact> 0.65869793E+04</totfact>
</mgrwt>
</event>
<event>
 6    0  0.1572624E-007  0.4543197E+03  0.7546771E-02  0.1026442E+00
         21   -1    0    0  502  501  0.00000000000E+00  0.00000000000E+00  0.15313024296E+03  0.15313024296E+03  0.00000000000E+00 0.  1.
         21   -1    0    0  501  502 -0.00000000000E+00 -0.00000000000E+00 -0.33697847208E+03  0.33697847208E+03  0.00000000000E+00 0.  1.
      99926    2    1    2    0    0 -0.66613381478E-14 -0.71054273576E-14 -0.18384822912E+03  0.49010871505E+03  0.45431969054E+03 0.  0.
         25    1    3    3    0    0 -0.13592267777E+01  0.56998989418E+02 -0.10326535370E+03  0.17193595804E+03  0.12509000000E+03 0.  0.
         25    1    3    3    0    0 -0.65973531092E+02 -0.54468345462E+01 -0.88364818154E+02  0.16684730744E+03  0.12509000000E+03 0.  0.
         25    1    3    3    0    0  0.67332757870E+02 -0.51552154872E+02  0.77819427348E+01  0.15132544957E+03  0.12509000000E+03 0.  0.
<mgrwt>
<rscale>  2 0.45431969E+03</rscale>
<asrwt>0</asrwt>
<pdfrwt beam="1">  1       21 0.22519153E-01 0.45431969E+03</pdfrwt>
<pdfrwt beam="2">  1       21 0.49555658E-01 0.45431969E+03</pdfrwt>
<totfact> 0.66328797E+04</totfact>
</mgrwt>
</event>
<event>
 6    0  0.1572624E-007  0.4731628E+03  0.7546771E-02  0.1021031E+00
         21   -1    0    0  502  501  0.00000000000E+00  0.00000000000E+00  0.83714198621E+03  0.83714198621E+03  0.00000000000E+00 0. -1.
         21   -1    0    0  501  502 -0.00000000000E+00 -0.00000000000E+00 -0.66859327473E+02  0.66859327473E+02  0.00000000000E+00 0. -1.
      99926    2    1    2    0    0  0.00000000000E+00 -0.17763568394E-14  0.77028265873E+03  0.90400131368E+03  0.47316276353E+03 0.  0.
         25    1    3    3    0    0  0.11078603995E+03 -0.19863278478E+02  0.32318063863E+03  0.36436428168E+03  0.12509000000E+03 0.  0.
         25    1    3    3    0    0 -0.11522064116E+03 -0.15937115428E+02  0.22997819914E+03  0.28647385217E+03  0.12509000000E+03 0.  0.
         25    1    3    3    0    0  0.44346012053E+01  0.35800393906E+02  0.21712382096E+03  0.25316317983E+03  0.12509000000E+03 0.  0.
<mgrwt>
<rscale>  2 0.47316276E+03</rscale>
<asrwt>0</asrwt>
<pdfrwt beam="1">  1       21 0.12310911E+00 0.47316276E+03</pdfrwt>
<pdfrwt beam="2">  1       21 0.98322545E-02 0.47316276E+03</pdfrwt>
<totfact> 0.37445532E+04</totfact>
</mgrwt>
</event>
<event>
 6    0  0.1572624E-007  0.4457041E+03  0.7546771E-02  0.1029011E+00
         21   -1    0    0  502  501  0.00000000000E+00  0.00000000000E+00  0.10037284867E+03  0.10037284867E+03  0.00000000000E+00 0. -1.
         21   -1    0    0  501  502 -0.00000000000E+00 -0.00000000000E+00 -0.49478545810E+03  0.49478545810E+03  0.00000000000E+00 0. -1.
      99926    2    1    2    0    0  0.00000000000E+00  0.00000000000E+00 -0.39441260943E+03  0.59515830678E+03  0.44570405388E+03 0.  0.
         25    1    3    3    0    0  0.55849545809E+02 -0.41170397658E+02 -0.62179407966E+02  0.15597422956E+03  0.12509000000E+03 0.  0.
         25    1    3    3    0    0 -0.11452456229E+02  0.42801676429E+02 -0.82208846365E+02  0.15610555653E+03  0.12509000000E+03 0.  0.
         25    1    3    3    0    0 -0.44397089580E+02 -0.16312787704E+01 -0.25002435510E+03  0.28307852069E+03  0.12509000000E+03 0.  0.
<mgrwt>
<rscale>  2 0.44570405E+03</rscale>
<asrwt>0</asrwt>
<pdfrwt beam="1">  1       21 0.14760713E-01 0.44570405E+03</pdfrwt>
<pdfrwt beam="2">  1       21 0.72762567E-01 0.44570405E+03</pdfrwt>
<totfact> 0.63515957E+04</totfact>
</mgrwt>
</event>
<event>
 6    0  0.1572624E-007  0.4437441E+03  0.7546771E-02  0.1029604E+00
         21   -1    0    0  502  501  0.00000000000E+00  0.00000000000E+00  0.18347121149E+03  0.18347121149E+03  0.00000000000E+00 0.  1.
         21   -1    0    0  501  502 -0.00000000000E+00 -0.00000000000E+00 -0.26831024820E+03  0.26831024820E+03  0.00000000000E+00 0.  1.
      99926    2    1    2    0    0  0.26645352591E-14  0.00000000000E+00 -0.84839036715E+02  0.45178145969E+03  0.44374409875E+03 0.  0.
         25    1    3    3    0    0  0.37440561437E+02  0.48287817607E+02  0.14376071319E+02  0.13995602344E+03  0.12509000000E+03 0.  0.
         25    1    3    3    0    0 -0.51047624653E+01  0.42806049476E+02 -0.74429895131E+02  0.15180821408E+03  0.12509000000E+03 0.  0.
         25    1    3    3    0    0 -0.32335798971E+02 -0.91093867083E+02 -0.24785212903E+02  0.16001722218E+03  0.12509000000E+03 0.  0.
<mgrwt>
<rscale>  2 0.44374410E+03</rscale>
<asrwt>0</asrwt>
<pdfrwt beam="1">  1       21 0.26981061E-01 0.44374410E+03</pdfrwt>
<pdfrwt beam="2">  1       21 0.39457389E-01 0.44374410E+03</pdfrwt>
<totfact> 0.75319015E+04</totfact>
</mgrwt>
</event>
<event>
 6    0  0.1572624E-007  0.4517795E+03  0.7546771E-02  0.1027193E+00
         21   -1    0    0  502  501  0.00000000000E+00  0.00000000000E+00  0.11555625404E+04  0.11555625404E+04  0.00000000000E+00 0. -1.
         21   -1    0    0  501  502 -0.00000000000E+00 -0.00000000000E+00 -0.44156996771E+02  0.44156996771E+02  0.00000000000E+00 0. -1.
      99926    2    1    2    0    0 -0.71054273576E-14  0.35527136788E-14  0.11114055437E+04  0.11997195372E+04  0.45177946552E+03 0.  0.
         25    1    3    3    0    0  0.40242385266E+02  0.44625320392E+02  0.27317294264E+03  0.30640142539E+03  0.12509000000E+03 0.  0.
         25    1    3    3    0    0  0.19485196344E+02 -0.71362131687E+02  0.25756159416E+03  0.29573249670E+03  0.12509000000E+03 0.  0.
         25    1    3    3    0    0 -0.59727581609E+02  0.26736811294E+02  0.58067100686E+03  0.59758561512E+03  0.12509000000E+03 0.  0.
<mgrwt>
<rscale>  2 0.45177947E+03</rscale>
<asrwt>0</asrwt>
<pdfrwt beam="1">  1       21 0.16993565E+00 0.45177947E+03</pdfrwt>
<pdfrwt beam="2">  1       21 0.64936768E-02 0.45177947E+03</pdfrwt>
<totfact> 0.32984612E+04</totfact>
</mgrwt>
</event>
<event>
 6    0  0.1572624E-007  0.4528288E+03  0.7546771E-02  0.1026882E+00
         21   -1    0    0  502  501  0.00000000000E+00  0.00000000000E+00  0.96724268075E+02  0.96724268075E+02  0.00000000000E+00 0.  1.
         21   -1    0    0  501  502 -0.00000000000E+00 -0.00000000000E+00 -0.52999616164E+03  0.52999616164E+03  0.00000000000E+00 0.  1.
      99926    2    1    2    0    0  0.00000000000E+00  0.00000000000E+00 -0.43327189356E+03  0.62672042971E+03  0.45282884545E+03 0.  0.
         25    1    3    3    0    0  0.25456150682E+01  0.13113764702E+02 -0.11496461611E+03  0.17041954712E+03  0.12509000000E+03 0.  0.
         25    1    3    3    0    0 -0.82169509597E+02 -0.59304973868E+02 -0.21956613529E+03  0.27226036087E+03  0.12509000000E+03 0.  0.
         25    1    3    3    0    0  0.79623894529E+02  0.46191209166E+02 -0.98741142160E+02  0.18404052173E+03  0.12509000000E+03 0.  0.
<mgrwt>
<rscale>  2 0.45282885E+03</rscale>
<asrwt>0</asrwt>
<pdfrwt beam="1">  1       21 0.14224157E-01 0.45282885E+03</pdfrwt>
<pdfrwt beam="2">  1       21 0.77940610E-01 0.45282885E+03</pdfrwt>
<totfact> 0.58051643E+04</totfact>
</mgrwt>
</event>
<event>
 6    0  0.1572624E-007  0.4647621E+03  0.7546771E-02  0.1023409E+00
         21   -1    0    0  502  501  0.00000000000E+00  0.00000000000E+00  0.25270221146E+03  0.25270221146E+03  0.00000000000E+00 0. -1.
         21   -1    0    0  501  502 -0.00000000000E+00 -0.00000000000E+00 -0.21369398225E+03  0.21369398225E+03  0.00000000000E+00 0. -1.
      99926    2    1    2    0    0 -0.35527136788E-14  0.97699626167E-14  0.39008229210E+02  0.46639619371E+03  0.46476205478E+03 0.  0.
         25    1    3    3    0    0  0.26370268725E+02 -0.74773266849E+01 -0.60680220493E+02  0.14170708785E+03  0.12509000000E+03 0.  0.
         25    1    3    3    0    0  0.23255013258E+02  0.85642996250E+02  0.50552738013E+02  0.16148871747E+03  0.12509000000E+03 0.  0.
         25    1    3    3    0    0 -0.49625281983E+02 -0.78165669565E+02  0.49135711690E+02  0.16320038840E+03  0.12509000000E+03 0.  0.
<mgrwt>
<rscale>  2 0.46476205E+03</rscale>
<asrwt>0</asrwt>
<pdfrwt beam="1">  1       21 0.37162090E-01 0.46476205E+03</pdfrwt>
<pdfrwt beam="2">  1       21 0.31425586E-01 0.46476205E+03</pdfrwt>
<totfact> 0.62691769E+04</totfact>
</mgrwt>
</event>
<event>
 6    0  0.1572624E-007  0.4579823E+03  0.7546771E-02  0.1025368E+00
         21   -1    0    0  502  501  0.00000000000E+00  0.00000000000E+00  0.51465210458E+02  0.51465210458E+02  0.00000000000E+00 0.  1.
         21   -1    0    0  501  502 -0.00000000000E+00 -0.00000000000E+00 -0.10188812992E+04  0.10188812992E+04  0.00000000000E+00 0.  1.
      99926    2    1    2    0    0  0.44408920985E-15  0.00000000000E+00 -0.96741608879E+03  0.10703465097E+04  0.45798227257E+03 0.  0.
         25    1    3    3    0    0  0.39680429787E+01 -0.45311250847E+02 -0.19106204721E+03  0.23285417927E+03  0.12509000000E+03 0.  0.
         25    1    3    3    0    0 -0.56423667888E+02  0.19386571091E+02 -0.58694323478E+03  0.60308319359E+03  0.12509000000E+03 0.  0.
         25    1    3    3    0    0  0.52455624909E+02  0.25924679756E+02 -0.18941080679E+03  0.23440913684E+03  0.12509000000E+03 0.  0.
<mgrwt>
<rscale>  2 0.45798227E+03</rscale>
<asrwt>0</asrwt>
<pdfrwt beam="1">  1       21 0.75684128E-02 0.45798227E+03</pdfrwt>
<pdfrwt beam="2">  1       21 0.14983549E+00 0.45798227E+03</pdfrwt>
<totfact> 0.35701437E+04</totfact>
</mgrwt>
</event>
<event>
 6    0  0.1572624E-007  0.4682560E+03  0.7546771E-02  0.1022414E+00
         21   -1    0    0  502  501  0.00000000000E+00  0.00000000000E+00  0.15070211907E+04  0.15070211907E+04  0.00000000000E+00 0. -1.
         21   -1    0    0  501  502 -0.00000000000E+00 -0.00000000000E+00 -0.36373686208E+02  0.36373686208E+02  0.00000000000E+00 0. -1.
      99926    2    1    2    0    0  0.00000000000E+00  0.14210854715E-13  0.14706475045E+04  0.15433948769E+04  0.46825598085E+03 0.  0.
         25    1    3    3    0    0  0.19958208356E+02  0.68685164792E+02  0.25133703287E+03  0.28971329645E+03  0.12509000000E+03 0.  0.
         25    1    3    3    0    0 -0.55492630252E+02  0.12534866132E+02  0.62305957822E+03  0.63803393405E+03  0.12509000000E+03 0.  0.
         25    1    3    3    0    0  0.35534421896E+02 -0.81220030924E+02  0.59625089343E+03  0.61564764645E+03  0.12509000000E+03 0.  0.
<mgrwt>
<rscale>  2 0.46825598E+03</rscale>
<asrwt>0</asrwt>
<pdfrwt beam="1">  1       21 0.22162072E+00 0.46825598E+03</pdfrwt>
<pdfrwt beam="2">  1       21 0.53490725E-02 0.46825598E+03</pdfrwt>
<totfact> 0.20538193E+04</totfact>
</mgrwt>
</event>
<event>
 6    0  0.1572624E-007  0.4490610E+03  0.7546771E-02  0.1028002E+00
         21   -1    0    0  502  501  0.00000000000E+00  0.00000000000E+00  0.13169477656E+03  0.13169477656E+03  0.00000000000E+00 0.  1.
         21   -1    0    0  501  502 -0.00000000000E+00 -0.00000000000E+00 -0.38280900506E+03  0.38280900506E+03  0.00000000000E+00 0.  1.
      99926    2    1    2    0    0  0.13322676296E-14  0.00000000000E+00 -0.25111422850E+03  0.51450378162E+03  0.44906100426E+03 0.  0.
         25    1    3    3    0    0 -0.90906274918E+02  0.26835195015E+02 -0.12441493120E+03  0.20027646321E+03  0.12509000000E+03 0.  0.
         25    1    3    3    0    0  0.93380798930E+02 -0.12038458945E+01 -0.44411374662E+02  0.16230003436E+03  0.12509000000E+03 0.  0.
         25    1    3    3    0    0 -0.24745240118E+01 -0.25631349120E+02 -0.82287922641E+02  0.15192728405E+03  0.12509000000E+03 0.  0.
<mgrwt>
<rscale>  2 0.44906100E+03</rscale>
<asrwt>0</asrwt>
<pdfrwt beam="1">  1       21 0.19366879E-01 0.44906100E+03</pdfrwt>
<pdfrwt beam="2">  1       21 0.56295443E-01 0.44906100E+03</pdfrwt>
<totfact> 0.67382931E+04</totfact>
</mgrwt>
</event>
<event>
 6    0  0.1572624E-007  0.4552679E+03  0.7546771E-02  0.1026163E+00
         21   -1    0    0  502  501  0.00000000000E+00  0.00000000000E+00  0.22288767164E+03  0.22288767164E+03  0.00000000000E+00 0.  1.
         21   -1    0    0  501  502 -0.00000000000E+00 -0.00000000000E+00 -0.23248132236E+03  0.23248132236E+03  0.00000000000E+00 0.  1.
      99926    2    1    2    0    0  0.00000000000E+00 -0.14210854715E-13 -0.95936507136E+01  0.45536899400E+03  0.45526792393E+03 0.  0.
         25    1    3    3    0    0  0.22942306277E+02  0.71149156750E+02  0.48793599521E+02  0.15367782982E+03  0.12509000000E+03 0.  0.
         25    1    3    3    0    0  0.49687718775E+02 -0.63823266196E+02 -0.47924522840E+02  0.15648177752E+03  0.12509000000E+03 0.  0.
         25    1    3    3    0    0 -0.72630025053E+02 -0.73258905541E+01 -0.10462727394E+02  0.14520938667E+03  0.12509000000E+03 0.  0.
<mgrwt>
<rscale>  2 0.45526792E+03</rscale>
<asrwt>0</asrwt>
<pdfrwt beam="1">  1       21 0.32777599E-01 0.45526792E+03</pdfrwt>
<pdfrwt beam="2">  1       21 0.34188430E-01 0.45526792E+03</pdfrwt>
<totfact> 0.68372492E+04</totfact>
</mgrwt>
</event>
<event>
 6    0  0.1572624E-007  0.4532068E+03  0.7546771E-02  0.1026770E+00
         21   -1    0    0  502  501  0.00000000000E+00  0.00000000000E+00  0.12628712868E+03  0.12628712868E+03  0.00000000000E+00 0.  1.
         21   -1    0    0  501  502 -0.00000000000E+00 -0.00000000000E+00 -0.40660603861E+03  0.40660603861E+03  0.00000000000E+00 0.  1.
      99926    2    1    2    0    0  0.00000000000E+00  0.00000000000E+00 -0.28031890994E+03  0.53289316729E+03  0.45320683631E+03 0.  0.
         25    1    3    3    0    0  0.79478952183E+01  0.30231421629E+02 -0.14227661845E+03  0.19200846895E+03  0.12509000000E+03 0.  0.
         25    1    3    3    0    0 -0.29924164596E+02 -0.43486602890E+02  0.20501181477E+02  0.13731113138E+03  0.12509000000E+03 0.  0.
         25    1    3    3    0    0  0.21976269378E+02  0.13255181261E+02 -0.15854347296E+03  0.20357356696E+03  0.12509000000E+03 0.  0.
<mgrwt>
<rscale>  2 0.45320684E+03</rscale>
<asrwt>0</asrwt>
<pdfrwt beam="1">  1       21 0.18571636E-01 0.45320684E+03</pdfrwt>
<pdfrwt beam="2">  1       21 0.59795006E-01 0.45320684E+03</pdfrwt>
<totfact> 0.63913633E+04</totfact>
</mgrwt>
</event>
<event>
 6    0  0.1572624E-007  0.4526335E+03  0.7546771E-02  0.1026940E+00
         21   -1    0    0  502  501  0.00000000000E+00  0.00000000000E+00  0.10447427571E+03  0.10447427571E+03  0.00000000000E+00 0.  1.
         21   -1    0    0  501  502 -0.00000000000E+00 -0.00000000000E+00 -0.49025715297E+03  0.49025715297E+03  0.00000000000E+00 0.  1.
      99926    2    1    2    0    0  0.14210854715E-13 -0.66613381478E-14 -0.38578287727E+03  0.59473142868E+03  0.45263345421E+03 0.  0.
         25    1    3    3    0    0 -0.70476915438E+02 -0.24758803127E+01 -0.84917804718E+02  0.16682825675E+03  0.12509000000E+03 0.  0.
         25    1    3    3    0    0 -0.23065580299E+02  0.51553026131E+02 -0.16877443698E+03  0.21753632840E+03  0.12509000000E+03 0.  0.
         25    1    3    3    0    0  0.93542495737E+02 -0.49077145818E+02 -0.13209063557E+03  0.21036684353E+03  0.12509000000E+03 0.  0.
<mgrwt>
<rscale>  2 0.45263345E+03</rscale>
<asrwt>0</asrwt>
<pdfrwt beam="1">  1       21 0.15363864E-01 0.45263345E+03</pdfrwt>
<pdfrwt beam="2">  1       21 0.72096642E-01 0.45263345E+03</pdfrwt>
<totfact> 0.60120201E+04</totfact>
</mgrwt>
</event>
<event>
 6    0  0.1572624E-007  0.4641039E+03  0.7546771E-02  0.1023598E+00
         21   -1    0    0  502  501  0.00000000000E+00  0.00000000000E+00  0.14223016690E+03  0.14223016690E+03  0.00000000000E+00 0. -1.
         21   -1    0    0  501  502 -0.00000000000E+00 -0.00000000000E+00 -0.37859841772E+03  0.37859841772E+03  0.00000000000E+00 0. -1.
      99926    2    1    2    0    0  0.00000000000E+00  0.00000000000E+00 -0.23636825082E+03  0.52082858462E+03  0.46410393724E+03 0.  0.
         25    1    3    3    0    0  0.73219892204E+02  0.44787523618E+02 -0.92646750205E+02  0.17775827213E+03  0.12509000000E+03 0.  0.
         25    1    3    3    0    0 -0.36433446608E+02  0.60315300161E+02 -0.56969212051E+02  0.15446142135E+03  0.12509000000E+03 0.  0.
         25    1    3    3    0    0 -0.36786445596E+02 -0.10510282378E+03 -0.86752288565E+02  0.18860889114E+03  0.12509000000E+03 0.  0.
<mgrwt>
<rscale>  2 0.46410394E+03</rscale>
<asrwt>0</asrwt>
<pdfrwt beam="1">  1       21 0.20916201E-01 0.46410394E+03</pdfrwt>
<pdfrwt beam="2">  1       21 0.55676238E-01 0.46410394E+03</pdfrwt>
<totfact> 0.59420901E+04</totfact>
</mgrwt>
</event>
<event>
 6    0  0.1572624E-007  0.4568870E+03  0.7546771E-02  0.1025688E+00
         21   -1    0    0  502  501  0.00000000000E+00  0.00000000000E+00  0.32885381674E+02  0.32885381674E+02  0.00000000000E+00 0.  1.
         21   -1    0    0  501  502 -0.00000000000E+00 -0.00000000000E+00 -0.15869186265E+04  0.15869186265E+04  0.00000000000E+00 0.  1.
      99926    2    1    2    0    0 -0.35527136788E-14  0.00000000000E+00 -0.15540332449E+04  0.16198040082E+04  0.45688696510E+03 0.  0.
         25    1    3    3    0    0  0.46697306248E+02 -0.42422179147E+02 -0.35881933441E+03  0.38520008118E+03  0.12509000000E+03 0.  0.
         25    1    3    3    0    0 -0.16510641098E+02 -0.10776716274E+02 -0.26132225336E+03  0.29038864834E+03  0.12509000000E+03 0.  0.
         25    1    3    3    0    0 -0.30186665151E+02  0.53198895421E+02 -0.93389165709E+03  0.94421527869E+03  0.12509000000E+03 0.  0.
<mgrwt>
<rscale>  2 0.45688697E+03</rscale>
<asrwt>0</asrwt>
<pdfrwt beam="1">  1       21 0.48360851E-02 0.45688697E+03</pdfrwt>
<pdfrwt beam="2">  1       21 0.23337041E+00 0.45688697E+03</pdfrwt>
<totfact> 0.20681255E+04</totfact>
</mgrwt>
</event>
<event>
 6    0  0.1572624E-007  0.4550556E+03  0.7546771E-02  0.1026225E+00
         21   -1    0    0  502  501  0.00000000000E+00  0.00000000000E+00  0.10859094107E+04  0.10859094107E+04  0.00000000000E+00 0. -1.
         21   -1    0    0  501  502 -0.00000000000E+00 -0.00000000000E+00 -0.47673315587E+02  0.47673315587E+02  0.00000000000E+00 0. -1.
      99926    2    1    2    0    0  0.00000000000E+00 -0.35527136788E-14  0.10382360951E+04  0.11335827263E+04  0.45505560994E+03 0.  0.
         25    1    3    3    0    0 -0.55830636914E+02 -0.64838570369E+02  0.34152682321E+03  0.37364311756E+03  0.12509000000E+03 0.  0.
         25    1    3    3    0    0  0.15674522334E+02  0.94294093829E+02  0.27058445847E+03  0.31305035385E+03  0.12509000000E+03 0.  0.
         25    1    3    3    0    0  0.40156114580E+02 -0.29455523461E+02  0.42612481341E+03  0.44688925486E+03  0.12509000000E+03 0.  0.
<mgrwt>
<rscale>  2 0.45505561E+03</rscale>
<asrwt>0</asrwt>
<pdfrwt beam="1">  1       21 0.15969254E+00 0.45505561E+03</pdfrwt>
<pdfrwt beam="2">  1       21 0.70107824E-02 0.45505561E+03</pdfrwt>
<totfact> 0.34320383E+04</totfact>
</mgrwt>
</event>
<event>
 6    0  0.1572624E-007  0.4663195E+03  0.7546771E-02  0.1022964E+00
         21   -1    0    0  502  501  0.00000000000E+00  0.00000000000E+00  0.15526194952E+03  0.15526194952E+03  0.00000000000E+00 0. -1.
         21   -1    0    0  501  502 -0.00000000000E+00 -0.00000000000E+00 -0.35014034067E+03  0.35014034067E+03  0.00000000000E+00 0. -1.
      99926    2    1    2    0    0  0.00000000000E+00  0.00000000000E+00 -0.19487839115E+03  0.50540229019E+03  0.46631951235E+03 0.  0.
         25    1    3    3    0    0 -0.99017740543E+01  0.10802199130E+03 -0.70687257385E+02  0.18003053127E+03  0.12509000000E+03 0.  0.
         25    1    3    3    0    0  0.10796280676E+02 -0.26026420258E+02  0.41413431093E+01  0.12829104821E+03  0.12509000000E+03 0.  0.
         25    1    3    3    0    0 -0.89450662187E+00 -0.81995571042E+02 -0.12833247688E+03  0.19708071071E+03  0.12509000000E+03 0.  0.
<mgrwt>
<rscale>  2 0.46631951E+03</rscale>
<asrwt>0</asrwt>
<pdfrwt beam="1">  1       21 0.22832640E-01 0.46631951E+03</pdfrwt>
<pdfrwt beam="2">  1       21 0.51491226E-01 0.46631951E+03</pdfrwt>
<totfact> 0.59375493E+04</totfact>
</mgrwt>
</event>
<event>
 6    0  0.1572624E-007  0.4633518E+03  0.7546771E-02  0.1023814E+00
         21   -1    0    0  502  501  0.00000000000E+00  0.00000000000E+00  0.28715420865E+03  0.28715420865E+03  0.00000000000E+00 0. -1.
         21   -1    0    0  501  502 -0.00000000000E+00 -0.00000000000E+00 -0.18691604816E+03  0.18691604816E+03  0.00000000000E+00 0. -1.
      99926    2    1    2    0    0  0.00000000000E+00  0.00000000000E+00  0.10023816050E+03  0.47407025681E+03  0.46335183131E+03 0.  0.
         25    1    3    3    0    0 -0.44239800169E+02 -0.40164635889E+02  0.95811755202E+02  0.16851634470E+03  0.12509000000E+03 0.  0.
         25    1    3    3    0    0  0.75534951069E+02  0.80200259807E+02  0.26379867620E+02  0.16876319510E+03  0.12509000000E+03 0.  0.
         25    1    3    3    0    0 -0.31295150899E+02 -0.40035623917E+02 -0.21953462326E+02  0.13679071701E+03  0.12509000000E+03 0.  0.
<mgrwt>
<rscale>  2 0.46335183E+03</rscale>
<asrwt>0</asrwt>
<pdfrwt beam="1">  1       21 0.42228560E-01 0.46335183E+03</pdfrwt>
<pdfrwt beam="2">  1       21 0.27487654E-01 0.46335183E+03</pdfrwt>
<totfact> 0.62864027E+04</totfact>
</mgrwt>
</event>
<event>
 6    0  0.1572624E-007  0.4601768E+03  0.7546771E-02  0.1024730E+00
         21   -1    0    0  502  501  0.00000000000E+00  0.00000000000E+00  0.10515885558E+03  0.10515885558E+03  0.00000000000E+00 0.  1.
         21   -1    0    0  501  502 -0.00000000000E+00 -0.00000000000E+00 -0.50343525035E+03  0.50343525035E+03  0.00000000000E+00 0.  1.
      99926    2    1    2    0    0 -0.71054273576E-14  0.44408920985E-15 -0.39827639478E+03  0.60859410593E+03  0.46017681291E+03 0.  0.
         25    1    3    3    0    0 -0.65023968253E+02  0.11517913234E+02 -0.21495418841E+03  0.25732001474E+03  0.12509000000E+03 0.  0.
         25    1    3    3    0    0  0.40547999024E+02  0.26873012214E+01 -0.18006067959E+03  0.22298143027E+03  0.12509000000E+03 0.  0.
         25    1    3    3    0    0  0.24475969229E+02 -0.14205214455E+02 -0.32615267781E+01  0.12829266091E+03  0.12509000000E+03 0.  0.
<mgrwt>
<rscale>  2 0.46017681E+03</rscale>
<asrwt>0</asrwt>
<pdfrwt beam="1">  1       21 0.15464538E-01 0.46017681E+03</pdfrwt>
<pdfrwt beam="2">  1       21 0.74034596E-01 0.46017681E+03</pdfrwt>
<totfact> 0.55833825E+04</totfact>
</mgrwt>
</event>
<event>
 6    0  0.1572624E-007  0.4528294E+03  0.7546771E-02  0.1026882E+00
         21   -1    0    0  502  501  0.00000000000E+00  0.00000000000E+00  0.61566020161E+03  0.61566020161E+03  0.00000000000E+00 0.  1.
         21   -1    0    0  501  502 -0.00000000000E+00 -0.00000000000E+00 -0.83266069683E+02  0.83266069683E+02  0.00000000000E+00 0.  1.
      99926    2    1    2    0    0 -0.44408920985E-14 -0.35527136788E-14  0.53239413192E+03  0.69892627129E+03  0.45282935085E+03 0.  0.
         25    1    3    3    0    0 -0.53208906024E+02  0.30192433609E+02  0.12054197826E+03  0.18417558837E+03  0.12509000000E+03 0.  0.
         25    1    3    3    0    0  0.57474849040E+02 -0.46510200361E+02  0.94799094697E+02  0.17349620591E+03  0.12509000000E+03 0.  0.
         25    1    3    3    0    0 -0.42659430156E+01  0.16317766752E+02  0.31705305896E+03  0.34125447701E+03  0.12509000000E+03 0.  0.
<mgrwt>
<rscale>  2 0.45282935E+03</rscale>
<asrwt>0</asrwt>
<pdfrwt beam="1">  1       21 0.90538263E-01 0.45282935E+03</pdfrwt>
<pdfrwt beam="2">  1       21 0.12245011E-01 0.45282935E+03</pdfrwt>
<totfact> 0.53875772E+04</totfact>
</mgrwt>
</event>
<event>
 6    0  0.1572624E-007  0.4451667E+03  0.7546771E-02  0.1029173E+00
         21   -1    0    0  502  501  0.00000000000E+00  0.00000000000E+00  0.12815592448E+03  0.12815592448E+03  0.00000000000E+00 0.  1.
         21   -1    0    0  501  502 -0.00000000000E+00 -0.00000000000E+00 -0.38658640654E+03  0.38658640654E+03  0.00000000000E+00 0.  1.
      99926    2    1    2    0    0  0.00000000000E+00  0.00000000000E+00 -0.25843048206E+03  0.51474233102E+03  0.44516665788E+03 0.  0.
         25    1    3    3    0    0  0.42802240230E+02 -0.50870689093E+02 -0.12223949737E+03  0.18710922371E+03  0.12509000000E+03 0.  0.
         25    1    3    3    0    0  0.37792352058E+02 -0.61832825439E+01 -0.24684472547E+02  0.13312898310E+03  0.12509000000E+03 0.  0.
         25    1    3    3    0    0 -0.80594592288E+02  0.57053971637E+02 -0.11150651214E+03  0.19450412421E+03  0.12509000000E+03 0.  0.
<mgrwt>
<rscale>  2 0.44516666E+03</rscale>
<asrwt>0</asrwt>
<pdfrwt beam="1">  1       21 0.18846460E-01 0.44516666E+03</pdfrwt>
<pdfrwt beam="2">  1       21 0.56850941E-01 0.44516666E+03</pdfrwt>
<totfact> 0.69513640E+04</totfact>
</mgrwt>
</event>
<event>
 6    0  0.1572624E-007  0.4581815E+03  0.7546771E-02  0.1025310E+00
         21   -1    0    0  502  501  0.00000000000E+00  0.00000000000E+00  0.10921077052E+03  0.10921077052E+03  0.00000000000E+00 0. -1.
         21   -1    0    0  501  502 -0.00000000000E+00 -0.00000000000E+00 -0.48056226142E+03  0.48056226142E+03  0.00000000000E+00 0. -1.
      99926    2    1    2    0    0  0.00000000000E+00  0.71054273576E-14 -0.37135149089E+03  0.58977303194E+03  0.45818151361E+03 0.  0.
         25    1    3    3    0    0 -0.18993550102E+02  0.63589070844E+02 -0.23714803684E+03  0.27620829885E+03  0.12509000000E+03 0.  0.
         25    1    3    3    0    0  0.27026097859E+02  0.14169588015E+02 -0.97641025487E+02  0.16159351827E+03  0.12509000000E+03 0.  0.
         25    1    3    3    0    0 -0.80325477562E+01 -0.77758658859E+02 -0.36562428567E+02  0.15197121482E+03  0.12509000000E+03 0.  0.
<mgrwt>
<rscale>  2 0.45818151E+03</rscale>
<asrwt>0</asrwt>
<pdfrwt beam="1">  1       21 0.16060408E-01 0.45818151E+03</pdfrwt>
<pdfrwt beam="2">  1       21 0.70670919E-01 0.45818151E+03</pdfrwt>
<totfact> 0.57843917E+04</totfact>
</mgrwt>
</event>
<event>
 6    0  0.1572624E-007  0.4550002E+03  0.7546771E-02  0.1026241E+00
         21   -1    0    0  502  501  0.00000000000E+00  0.00000000000E+00  0.30095150870E+02  0.30095150870E+02  0.00000000000E+00 0.  1.
         21   -1    0    0  501  502 -0.00000000000E+00 -0.00000000000E+00 -0.17197555735E+04  0.17197555735E+04  0.00000000000E+00 0.  1.
      99926    2    1    2    0    0  0.00000000000E+00  0.14210854715E-13 -0.16896604226E+04  0.17498507243E+04  0.45500023491E+03 0.  0.
         25    1    3    3    0    0 -0.35427369080E+00 -0.36898291483E+01 -0.31246898961E+03  0.33659785787E+03  0.12509000000E+03 0.  0.
         25    1    3    3    0    0  0.44337797904E+02 -0.83253825544E+02 -0.60546189480E+03  0.62540279336E+03  0.12509000000E+03 0.  0.
         25    1    3    3    0    0 -0.43983524213E+02  0.86943654693E+02 -0.77172953816E+03  0.78785007309E+03  0.12509000000E+03 0.  0.
<mgrwt>
<rscale>  2 0.45500023E+03</rscale>
<asrwt>0</asrwt>
<pdfrwt beam="1">  1       21 0.44257558E-02 0.45500023E+03</pdfrwt>
<pdfrwt beam="2">  1       21 0.25290533E+00 0.45500023E+03</pdfrwt>
<totfact> 0.18243232E+04</totfact>
</mgrwt>
</event>
<event>
 6    0  0.1572624E-007  0.4481643E+03  0.7546771E-02  0.1028271E+00
         21   -1    0    0  502  501  0.00000000000E+00  0.00000000000E+00  0.31402030444E+03  0.31402030444E+03  0.00000000000E+00 0.  1.
         21   -1    0    0  501  502 -0.00000000000E+00 -0.00000000000E+00 -0.15990305559E+03  0.15990305559E+03  0.00000000000E+00 0.  1.
      99926    2    1    2    0    0  0.00000000000E+00  0.00000000000E+00  0.15411724885E+03  0.47392336003E+03  0.44816428326E+03 0.  0.
         25    1    3    3    0    0  0.27949669875E+02  0.65770251742E+02  0.10482846320E+03  0.17816684556E+03  0.12509000000E+03 0.  0.
         25    1    3    3    0    0 -0.79678037349E+02 -0.27834533834E+02  0.30117483171E+02  0.15387631982E+03  0.12509000000E+03 0.  0.
         25    1    3    3    0    0  0.51728367473E+02 -0.37935717908E+02  0.19171302489E+02  0.14188019465E+03  0.12509000000E+03 0.  0.
<mgrwt>
<rscale>  2 0.44816428E+03</rscale>
<asrwt>0</asrwt>
<pdfrwt beam="1">  1       21 0.46179457E-01 0.44816428E+03</pdfrwt>
<pdfrwt beam="2">  1       21 0.23515155E-01 0.44816428E+03</pdfrwt>
<totfact> 0.70915190E+04</totfact>
</mgrwt>
</event>
<event>
 6    0  0.1572624E-007  0.4557245E+03  0.7546771E-02  0.1026029E+00
         21   -1    0    0  502  501  0.00000000000E+00  0.00000000000E+00  0.30237993491E+03  0.30237993491E+03  0.00000000000E+00 0. -1.
         21   -1    0    0  501  502 -0.00000000000E+00 -0.00000000000E+00 -0.17170846980E+03  0.17170846980E+03  0.00000000000E+00 0. -1.
      99926    2    1    2    0    0  0.35527136788E-14  0.00000000000E+00  0.13067146511E+03  0.47408840470E+03  0.45572446026E+03 0.  0.
         25    1    3    3    0    0 -0.23278636763E+02  0.33886125277E+02  0.43485263913E+02  0.13866737429E+03  0.12509000000E+03 0.  0.
         25    1    3    3    0    0  0.19358700987E+02  0.47087896242E+02  0.12238713297E+03  0.18225846398E+03  0.12509000000E+03 0.  0.
         25    1    3    3    0    0  0.39199357756E+01 -0.80974021519E+02 -0.35200931772E+02  0.15316256643E+03  0.12509000000E+03 0.  0.
<mgrwt>
<rscale>  2 0.45572446E+03</rscale>
<asrwt>0</asrwt>
<pdfrwt beam="1">  1       21 0.44467638E-01 0.45572446E+03</pdfrwt>
<pdfrwt beam="2">  1       21 0.25251245E-01 0.45572446E+03</pdfrwt>
<totfact> 0.66748480E+04</totfact>
</mgrwt>
</event>
<event>
 6    0  0.1572624E-007  0.4537401E+03  0.7546771E-02  0.1026613E+00
         21   -1    0    0  502  501  0.00000000000E+00  0.00000000000E+00  0.65554653234E+03  0.65554653234E+03  0.00000000000E+00 0. -1.
         21   -1    0    0  501  502 -0.00000000000E+00 -0.00000000000E+00 -0.78514676237E+02  0.78514676237E+02  0.00000000000E+00 0. -1.
      99926    2    1    2    0    0  0.00000000000E+00  0.00000000000E+00  0.57703185611E+03  0.73406120858E+03  0.45374011833E+03 0.  0.
         25    1    3    3    0    0 -0.71300853962E+01 -0.10243816340E+03  0.24597018873E+03  0.29443718733E+03  0.12509000000E+03 0.  0.
         25    1    3    3    0    0  0.33638040805E+02  0.90080743814E+02  0.21361121571E+03  0.26556226723E+03  0.12509000000E+03 0.  0.
         25    1    3    3    0    0 -0.26507955408E+02  0.12357419589E+02  0.11745045167E+03  0.17406175403E+03  0.12509000000E+03 0.  0.
<mgrwt>
<rscale>  2 0.45374012E+03</rscale>
<asrwt>0</asrwt>
<pdfrwt beam="1">  1       21 0.96403899E-01 0.45374012E+03</pdfrwt>
<pdfrwt beam="2">  1       21 0.11546276E-01 0.45374012E+03</pdfrwt>
<totfact> 0.51601660E+04</totfact>
</mgrwt>
</event>
<event>
 6    0  0.1572624E-007  0.4530404E+03  0.7546771E-02  0.1026819E+00
         21   -1    0    0  502  501  0.00000000000E+00  0.00000000000E+00  0.53583512230E+03  0.53583512230E+03  0.00000000000E+00 0.  1.
         21   -1    0    0  501  502 -0.00000000000E+00 -0.00000000000E+00 -0.95759688569E+02  0.95759688569E+02  0.00000000000E+00 0.  1.
      99926    2    1    2    0    0  0.00000000000E+00  0.00000000000E+00  0.44007543373E+03  0.63159481087E+03  0.45304041513E+03 0.  0.
         25    1    3    3    0    0  0.21578724321E+02 -0.18492418527E+02  0.24140258990E+03  0.27336848647E+03  0.12509000000E+03 0.  0.
         25    1    3    3    0    0 -0.67408824487E+02  0.57772739413E+02  0.13920093032E+03  0.20713774678E+03  0.12509000000E+03 0.  0.
         25    1    3    3    0    0  0.45830100166E+02 -0.39280320886E+02  0.59471913514E+02  0.15108857762E+03  0.12509000000E+03 0.  0.
<mgrwt>
<rscale>  2 0.45304042E+03</rscale>
<asrwt>0</asrwt>
<pdfrwt beam="1">  1       21 0.78799282E-01 0.45304042E+03</pdfrwt>
<pdfrwt beam="2">  1       21 0.14082307E-01 0.45304042E+03</pdfrwt>
<totfact> 0.57661219E+04</totfact>
</mgrwt>
</event>
<event>
 6    0  0.1572624E-007  0.4527919E+03  0.7546771E-02  0.1026893E+00
         21   -1    0    0  502  501  0.00000000000E+00  0.00000000000E+00  0.32372138638E+03  0.32372138638E+03  0.00000000000E+00 0. -1.
         21   -1    0    0  501  502 -0.00000000000E+00 -0.00000000000E+00 -0.15833100126E+03  0.15833100126E+03  0.00000000000E+00 0. -1.
      99926    2    1    2    0    0  0.00000000000E+00 -0.71054273576E-14  0.16539038512E+03  0.48205238764E+03  0.45279192235E+03 0.  0.
         25    1    3    3    0    0 -0.36156863311E+02 -0.23840248723E+02 -0.11304910408E+02  0.13285701082E+03  0.12509000000E+03 0.  0.
         25    1    3    3    0    0 -0.29152093331E+02  0.77542282515E+02  0.82173426197E+02  0.17106323450E+03  0.12509000000E+03 0.  0.
         25    1    3    3    0    0  0.65308956642E+02 -0.53702033792E+02  0.94521869326E+02  0.17813214233E+03  0.12509000000E+03 0.  0.
<mgrwt>
<rscale>  2 0.45279192E+03</rscale>
<asrwt>0</asrwt>
<pdfrwt beam="1">  1       21 0.47606086E-01 0.45279192E+03</pdfrwt>
<pdfrwt beam="2">  1       21 0.23283971E-01 0.45279192E+03</pdfrwt>
<totfact> 0.67730420E+04</totfact>
</mgrwt>
</event>
<event>
 6    0  0.1572624E-007  0.4548754E+03  0.7546771E-02  0.1026278E+00
         21   -1    0    0  502  501  0.00000000000E+00  0.00000000000E+00  0.44969703290E+03  0.44969703290E+03  0.00000000000E+00 0. -1.
         21   -1    0    0  501  502 -0.00000000000E+00 -0.00000000000E+00 -0.11502832798E+03  0.11502832798E+03  0.00000000000E+00 0. -1.
      99926    2    1    2    0    0  0.00000000000E+00  0.71054273576E-14  0.33466870491E+03  0.56472536088E+03  0.45487535784E+03 0.  0.
         25    1    3    3    0    0  0.34737957948E+02  0.65281164138E+02  0.44028635958E+02  0.15183670504E+03  0.12509000000E+03 0.  0.
         25    1    3    3    0    0 -0.64691885083E+02 -0.50718392242E+02  0.21803402074E+03  0.26446878381E+03  0.12509000000E+03 0.  0.
         25    1    3    3    0    0  0.29953927135E+02 -0.14562771896E+02  0.72606048215E+02  0.14841987203E+03  0.12509000000E+03 0.  0.
<mgrwt>
<rscale>  2 0.45487536E+03</rscale>
<asrwt>0</asrwt>
<pdfrwt beam="1">  1       21 0.66131916E-01 0.45487536E+03</pdfrwt>
<pdfrwt beam="2">  1       21 0.16915931E-01 0.45487536E+03</pdfrwt>
<totfact> 0.60963884E+04</totfact>
</mgrwt>
</event>
<event>
 6    0  0.1572624E-007  0.4488549E+03  0.7546771E-02  0.1028064E+00
         21   -1    0    0  502  501  0.00000000000E+00  0.00000000000E+00  0.23280696450E+03  0.23280696450E+03  0.00000000000E+00 0. -1.
         21   -1    0    0  501  502 -0.00000000000E+00 -0.00000000000E+00 -0.21634955166E+03  0.21634955166E+03  0.00000000000E+00 0. -1.
      99926    2    1    2    0    0  0.00000000000E+00  0.00000000000E+00  0.16457412841E+02  0.44915651616E+03  0.44885490927E+03 0.  0.
         25    1    3    3    0    0  0.16680817876E+02 -0.23875528848E+02 -0.66387160419E+02  0.14457888411E+03  0.12509000000E+03 0.  0.
         25    1    3    3    0    0 -0.31879154038E+02 -0.20065899486E+02 -0.24985550650E+02  0.13300641573E+03  0.12509000000E+03 0.  0.
         25    1    3    3    0    0  0.15198336162E+02  0.43941428335E+02  0.10783012391E+03  0.17157121632E+03  0.12509000000E+03 0.  0.
<mgrwt>
<rscale>  2 0.44885491E+03</rscale>
<asrwt>0</asrwt>
<pdfrwt beam="1">  1       21 0.34236319E-01 0.44885491E+03</pdfrwt>
<pdfrwt beam="2">  1       21 0.31816110E-01 0.44885491E+03</pdfrwt>
<totfact> 0.72464398E+04</totfact>
</mgrwt>
</event>
<event>
 6    0  0.1572624E-007  0.4428434E+03  0.7546771E-02  0.1029878E+00
         21   -1    0    0  502  501  0.00000000000E+00  0.00000000000E+00  0.49002591048E+02  0.49002591048E+02  0.00000000000E+00 0.  1.
         21   -1    0    0  501  502 -0.00000000000E+00 -0.00000000000E+00 -0.10005097900E+04  0.10005097900E+04  0.00000000000E+00 0.  1.
      99926    2    1    2    0    0 -0.35527136788E-14  0.71054273576E-14 -0.95150719899E+03  0.10495123811E+04  0.44284341287E+03 0.  0.
         25    1    3    3    0    0  0.17687307673E+02 -0.44537688813E+02 -0.23710311553E+03  0.27232671935E+03  0.12509000000E+03 0.  0.
         25    1    3    3    0    0 -0.71932129163E+02  0.58239776351E+01 -0.49784540355E+03  0.51836830908E+03  0.12509000000E+03 0.  0.
         25    1    3    3    0    0  0.54244821491E+02  0.38713711178E+02 -0.21655867991E+03  0.25881735265E+03  0.12509000000E+03 0.  0.
<mgrwt>
<rscale>  2 0.44284341E+03</rscale>
<asrwt>0</asrwt>
<pdfrwt beam="1">  1       21 0.72062637E-02 0.44284341E+03</pdfrwt>
<pdfrwt beam="2">  1       21 0.14713379E+00 0.44284341E+03</pdfrwt>
<totfact> 0.41054583E+04</totfact>
</mgrwt>
</event>
<event>
 6    0  0.1572624E-007  0.4601018E+03  0.7546771E-02  0.1024752E+00
         21   -1    0    0  502  501  0.00000000000E+00  0.00000000000E+00  0.52605543147E+03  0.52605543147E+03  0.00000000000E+00 0.  1.
         21   -1    0    0  501  502 -0.00000000000E+00 -0.00000000000E+00 -0.10060427216E+03  0.10060427216E+03  0.00000000000E+00 0.  1.
      99926    2    1    2    0    0  0.00000000000E+00  0.35527136788E-14  0.42545115931E+03  0.62665970363E+03  0.46010183133E+03 0.  0.
         25    1    3    3    0    0  0.22386320659E+02 -0.93524801916E+02  0.21184465247E+03  0.26414711963E+03  0.12509000000E+03 0.  0.
         25    1    3    3    0    0  0.68777293256E+01  0.67915189187E+02  0.17553534532E+03  0.22609719512E+03  0.12509000000E+03 0.  0.
         25    1    3    3    0    0 -0.29264049985E+02  0.25609612729E+02  0.38071161514E+02  0.13641538889E+03  0.12509000000E+03 0.  0.
<mgrwt>
<rscale>  2 0.46010183E+03</rscale>
<asrwt>0</asrwt>
<pdfrwt beam="1">  1       21 0.77361092E-01 0.46010183E+03</pdfrwt>
<pdfrwt beam="2">  1       21 0.14794746E-01 0.46010183E+03</pdfrwt>
<totfact> 0.54824655E+04</totfact>
</mgrwt>
</event>
<event>
 6    0  0.1572624E-007  0.4543522E+03  0.7546771E-02  0.1026432E+00
         21   -1    0    0  502  501  0.00000000000E+00  0.00000000000E+00  0.20767316057E+03  0.20767316057E+03  0.00000000000E+00 0. -1.
         21   -1    0    0  501  502 -0.00000000000E+00 -0.00000000000E+00 -0.24851061584E+03  0.24851061584E+03  0.00000000000E+00 0. -1.
      99926    2    1    2    0    0  0.00000000000E+00  0.00000000000E+00 -0.40837455268E+02  0.45618377641E+03  0.45435222032E+03 0.  0.
         25    1    3    3    0    0  0.25749864174E+01 -0.43058017246E+01  0.45870330003E+02  0.13332953821E+03  0.12509000000E+03 0.  0.
         25    1    3    3    0    0 -0.23295183254E+02 -0.86125206034E+02 -0.26679947217E+02  0.15594724865E+03  0.12509000000E+03 0.  0.
         25    1    3    3    0    0  0.20720196837E+02  0.90431007758E+02 -0.60027838054E+02  0.16690698956E+03  0.12509000000E+03 0.  0.
<mgrwt>
<rscale>  2 0.45435222E+03</rscale>
<asrwt>0</asrwt>
<pdfrwt beam="1">  1       21 0.30540171E-01 0.45435222E+03</pdfrwt>
<pdfrwt beam="2">  1       21 0.36545678E-01 0.45435222E+03</pdfrwt>
<totfact> 0.68814147E+04</totfact>
</mgrwt>
</event>
<event>
 6    0  0.1572624E-007  0.4542488E+03  0.7546771E-02  0.1026463E+00
         21   -1    0    0  502  501  0.00000000000E+00  0.00000000000E+00  0.63074224574E+03  0.63074224574E+03  0.00000000000E+00 0.  1.
         21   -1    0    0  501  502 -0.00000000000E+00 -0.00000000000E+00 -0.81785382640E+02  0.81785382640E+02  0.00000000000E+00 0.  1.
      99926    2    1    2    0    0  0.17763568394E-14  0.00000000000E+00  0.54895686310E+03  0.71252762838E+03  0.45424881250E+03 0.  0.
         25    1    3    3    0    0 -0.20299588239E+02  0.10751875362E+03  0.25157589660E+03  0.30151334218E+03  0.12509000000E+03 0.  0.
         25    1    3    3    0    0  0.12892566853E+02 -0.21925216641E+02  0.10065940633E+03  0.16256308802E+03  0.12509000000E+03 0.  0.
         25    1    3    3    0    0  0.74070213853E+01 -0.85593536980E+02  0.19672156017E+03  0.24845119817E+03  0.12509000000E+03 0.  0.
<mgrwt>
<rscale>  2 0.45424881E+03</rscale>
<asrwt>0</asrwt>
<pdfrwt beam="1">  1       21 0.92756210E-01 0.45424881E+03</pdfrwt>
<pdfrwt beam="2">  1       21 0.12027263E-01 0.45424881E+03</pdfrwt>
<totfact> 0.52537875E+04</totfact>
</mgrwt>
</event>
<event>
 6    0  0.1572624E-007  0.4570193E+03  0.7546771E-02  0.1025649E+00
         21   -1    0    0  502  501  0.00000000000E+00  0.00000000000E+00  0.85300745905E+02  0.85300745905E+02  0.00000000000E+00 0.  1.
         21   -1    0    0  501  502 -0.00000000000E+00 -0.00000000000E+00 -0.61214787272E+03  0.61214787272E+03  0.00000000000E+00 0.  1.
      99926    2    1    2    0    0 -0.14210854715E-13 -0.13322676296E-14 -0.52684712681E+03  0.69744861862E+03  0.45701934378E+03 0.  0.
         25    1    3    3    0    0 -0.42539260559E+02 -0.17275463055E+02 -0.93798576526E+02  0.16295309562E+03  0.12509000000E+03 0.  0.
         25    1    3    3    0    0  0.11117908717E+03  0.14800302633E+02 -0.19975392213E+03  0.26101527904E+03  0.12509000000E+03 0.  0.
         25    1    3    3    0    0 -0.68639826612E+02  0.24751604228E+01 -0.23329462815E+03  0.27348024397E+03  0.12509000000E+03 0.  0.
<mgrwt>
<rscale>  2 0.45701934E+03</rscale>
<asrwt>0</asrwt>
<pdfrwt beam="1">  1       21 0.12544227E-01 0.45701934E+03</pdfrwt>
<pdfrwt beam="2">  1       21 0.90021747E-01 0.45701934E+03</pdfrwt>
<totfact> 0.52207021E+04</totfact>
</mgrwt>
</event>
<event>
 6    0  0.1572624E-007  0.4510214E+03  0.7546771E-02  0.1027418E+00
         21   -1    0    0  502  501  0.00000000000E+00  0.00000000000E+00  0.92539839779E+02  0.92539839779E+02  0.00000000000E+00 0.  1.
         21   -1    0    0  501  502 -0.00000000000E+00 -0.00000000000E+00 -0.54954789046E+03  0.54954789046E+03  0.00000000000E+00 0.  1.
      99926    2    1    2    0    0  0.00000000000E+00 -0.88817841970E-15 -0.45700805068E+03  0.64208773024E+03  0.45102139077E+03 0.  0.
         25    1    3    3    0    0 -0.84037563260E+02  0.10323144042E+01 -0.22623426336E+03  0.27183235225E+03  0.12509000000E+03 0.  0.
         25    1    3    3    0    0  0.10729200571E+02 -0.13348091583E+02 -0.17190249405E+03  0.21328680891E+03  0.12509000000E+03 0.  0.
         25    1    3    3    0    0  0.73308362688E+02  0.12315777179E+02 -0.58871293271E+02  0.15696856908E+03  0.12509000000E+03 0.  0.
<mgrwt>
<rscale>  2 0.45102139E+03</rscale>
<asrwt>0</asrwt>
<pdfrwt beam="1">  1       21 0.13608800E-01 0.45102139E+03</pdfrwt>
<pdfrwt beam="2">  1       21 0.80815868E-01 0.45102139E+03</pdfrwt>
<totfact> 0.57957851E+04</totfact>
</mgrwt>
</event>
<event>
 6    0  0.6260321E-007  0.4793496E+03  0.7546771E-02  0.1019314E+00
         21   -1    0    0  502  501  0.00000000000E+00  0.00000000000E+00  0.36128521572E+03  0.36128521572E+03  0.00000000000E+00 0. -1.
         21   -1    0    0  501  502 -0.00000000000E+00 -0.00000000000E+00 -0.15899903475E+03  0.15899903475E+03  0.00000000000E+00 0.  1.
      99926    2    1    2    0    0  0.00000000000E+00  0.71054273576E-14  0.20228618097E+03  0.52028425046E+03  0.47934956167E+03 0.  0.
         25    1    3    3    0    0  0.75520395177E+02 -0.66335184758E+02  0.45411843578E+02  0.16677359042E+03  0.12509000000E+03 0.  0.
         25    1    3    3    0    0 -0.79385581123E+02 -0.38163263709E+02  0.88229285155E+02  0.17660809734E+03  0.12509000000E+03 0.  0.
         25    1    3    3    0    0  0.38651859457E+01  0.10449844847E+03  0.68645052239E+02  0.17690256270E+03  0.12509000000E+03 0.  0.
<mgrwt>
<rscale>  2 0.47934956E+03</rscale>
<asrwt>0</asrwt>
<pdfrwt beam="1">  1       21 0.53130179E-01 0.47934956E+03</pdfrwt>
<pdfrwt beam="2">  1       21 0.23382211E-01 0.47934956E+03</pdfrwt>
<totfact> 0.52884406E+04</totfact>
</mgrwt>
</event>
<event>
 6    0  0.1572624E-007  0.4575088E+03  0.7546771E-02  0.1025506E+00
         21   -1    0    0  502  501  0.00000000000E+00  0.00000000000E+00  0.23000925557E+03  0.23000925557E+03  0.00000000000E+00 0.  1.
         21   -1    0    0  501  502 -0.00000000000E+00 -0.00000000000E+00 -0.22750637231E+03  0.22750637231E+03  0.00000000000E+00 0.  1.
      99926    2    1    2    0    0  0.00000000000E+00 -0.88817841970E-15  0.25028832599E+01  0.45751562788E+03  0.45750878170E+03 0.  0.
         25    1    3    3    0    0  0.59746442604E+01 -0.74331981055E+02  0.40246272014E+02  0.15109007344E+03  0.12509000000E+03 0.  0.
         25    1    3    3    0    0  0.68125177175E+02  0.46800129483E+01 -0.10229826107E+02  0.14288141842E+03  0.12509000000E+03 0.  0.
         25    1    3    3    0    0 -0.74099821435E+02  0.69651968107E+02 -0.27513562647E+02  0.16354413602E+03  0.12509000000E+03 0.  0.
<mgrwt>
<rscale>  2 0.45750878E+03</rscale>
<asrwt>0</asrwt>
<pdfrwt beam="1">  1       21 0.33824891E-01 0.45750878E+03</pdfrwt>
<pdfrwt beam="2">  1       21 0.33456819E-01 0.45750878E+03</pdfrwt>
<totfact> 0.67010430E+04</totfact>
</mgrwt>
</event>
<event>
 6    0  0.1572624E-007  0.4490836E+03  0.7546771E-02  0.1027996E+00
         21   -1    0    0  502  501  0.00000000000E+00  0.00000000000E+00  0.34956838977E+03  0.34956838977E+03  0.00000000000E+00 0. -1.
         21   -1    0    0  501  502 -0.00000000000E+00 -0.00000000000E+00 -0.14423219386E+03  0.14423219386E+03  0.00000000000E+00 0. -1.
      99926    2    1    2    0    0  0.00000000000E+00  0.71054273576E-14  0.20533619591E+03  0.49380058362E+03  0.44908358135E+03 0.  0.
         25    1    3    3    0    0  0.23800505247E+02 -0.38868308378E+02  0.65288806841E+02  0.14828130646E+03  0.12509000000E+03 0.  0.
         25    1    3    3    0    0  0.19220487238E+02  0.81375029688E+02  0.14153330962E+03  0.20656841099E+03  0.12509000000E+03 0.  0.
         25    1    3    3    0    0 -0.43020992485E+02 -0.42506721309E+02 -0.14859205545E+01  0.13895086618E+03  0.12509000000E+03 0.  0.
<mgrwt>
<rscale>  2 0.44908358E+03</rscale>
<asrwt>0</asrwt>
<pdfrwt beam="1">  1       21 0.51407116E-01 0.44908358E+03</pdfrwt>
<pdfrwt beam="2">  1       21 0.21210617E-01 0.44908358E+03</pdfrwt>
<totfact> 0.68887417E+04</totfact>
</mgrwt>
</event>
<event>
 6    0  0.1572624E-007  0.4477117E+03  0.7546771E-02  0.1028407E+00
         21   -1    0    0  502  501  0.00000000000E+00  0.00000000000E+00  0.72686240643E+02  0.72686240643E+02  0.00000000000E+00 0.  1.
         21   -1    0    0  501  502 -0.00000000000E+00 -0.00000000000E+00 -0.68942142603E+03  0.68942142603E+03  0.00000000000E+00 0.  1.
      99926    2    1    2    0    0  0.00000000000E+00  0.00000000000E+00 -0.61673518538E+03  0.76210766667E+03  0.44771174511E+03 0.  0.
         25    1    3    3    0    0 -0.83483439311E+02  0.13411066440E+02 -0.16582532168E+03  0.22426521521E+03  0.12509000000E+03 0.  0.
         25    1    3    3    0    0  0.97116687673E+02 -0.42628595507E+02 -0.25295918502E+03  0.30147090335E+03  0.12509000000E+03 0.  0.
         25    1    3    3    0    0 -0.13633248362E+02  0.29217529067E+02 -0.19795067868E+03  0.23637154811E+03  0.12509000000E+03 0.  0.
<mgrwt>
<rscale>  2 0.44771175E+03</rscale>
<asrwt>0</asrwt>
<pdfrwt beam="1">  1       21 0.10689153E-01 0.44771175E+03</pdfrwt>
<pdfrwt beam="2">  1       21 0.10138550E+00 0.44771175E+03</pdfrwt>
<totfact> 0.52597627E+04</totfact>
</mgrwt>
</event>
<event>
 6    0  0.1572624E-007  0.4591638E+03  0.7546771E-02  0.1025024E+00
         21   -1    0    0  502  501  0.00000000000E+00  0.00000000000E+00  0.15006012131E+03  0.15006012131E+03  0.00000000000E+00 0. -1.
         21   -1    0    0  501  502 -0.00000000000E+00 -0.00000000000E+00 -0.35124494260E+03  0.35124494260E+03  0.00000000000E+00 0. -1.
      99926    2    1    2    0    0 -0.14210854715E-13 -0.26645352591E-14 -0.20118482129E+03  0.50130506391E+03  0.45916384308E+03 0.  0.
         25    1    3    3    0    0  0.42426088418E+02  0.58429527587E+02 -0.65629902119E+02  0.15864669812E+03  0.12509000000E+03 0.  0.
         25    1    3    3    0    0 -0.10677389640E+03 -0.55942341813E+02 -0.67496251456E+02  0.18636915684E+03  0.12509000000E+03 0.  0.
         25    1    3    3    0    0  0.64347807981E+02 -0.24871857738E+01 -0.68058667713E+02  0.15628920896E+03  0.12509000000E+03 0.  0.
<mgrwt>
<rscale>  2 0.45916384E+03</rscale>
<asrwt>0</asrwt>
<pdfrwt beam="1">  1       21 0.22067665E-01 0.45916384E+03</pdfrwt>
<pdfrwt beam="2">  1       21 0.51653668E-01 0.45916384E+03</pdfrwt>
<totfact> 0.63068529E+04</totfact>
</mgrwt>
</event>
<event>
 6    0  0.1572624E-007  0.4604033E+03  0.7546771E-02  0.1024664E+00
         21   -1    0    0  502  501  0.00000000000E+00  0.00000000000E+00  0.83230140804E+03  0.83230140804E+03  0.00000000000E+00 0.  1.
         21   -1    0    0  501  502 -0.00000000000E+00 -0.00000000000E+00 -0.63670193061E+02  0.63670193061E+02  0.00000000000E+00 0.  1.
      99926    2    1    2    0    0  0.35527136788E-14 -0.14210854715E-13  0.76863121498E+03  0.89597160110E+03  0.46040326382E+03 0.  0.
         25    1    3    3    0    0 -0.35066225604E+02  0.64897906435E+02  0.25068549024E+03  0.28971037530E+03  0.12509000000E+03 0.  0.
         25    1    3    3    0    0  0.25313454492E+02 -0.69212380917E+02  0.42763650434E+03  0.45161002269E+03  0.12509000000E+03 0.  0.
         25    1    3    3    0    0  0.97527711122E+01  0.43144744818E+01  0.90309220392E+02  0.15465120311E+03  0.12509000000E+03 0.  0.
<mgrwt>
<rscale>  2 0.46040326E+03</rscale>
<asrwt>0</asrwt>
<pdfrwt beam="1">  1       21 0.12239726E+00 0.46040326E+03</pdfrwt>
<pdfrwt beam="2">  1       21 0.93632642E-02 0.46040326E+03</pdfrwt>
<totfact> 0.41619367E+04</totfact>
</mgrwt>
</event>
<event>
 6    0  0.1572624E-007  0.4683187E+03  0.7546771E-02  0.1022396E+00
         21   -1    0    0  502  501  0.00000000000E+00  0.00000000000E+00  0.12789693705E+04  0.12789693705E+04  0.00000000000E+00 0.  1.
         21   -1    0    0  501  502 -0.00000000000E+00 -0.00000000000E+00 -0.42870924271E+02  0.42870924271E+02  0.00000000000E+00 0.  1.
      99926    2    1    2    0    0 -0.71054273576E-14  0.22204460493E-14  0.12360984462E+04  0.13218402948E+04  0.46831869076E+03 0.  0.
         25    1    3    3    0    0  0.49551190153E+02  0.57859500480E+02  0.29464242462E+03  0.32903602953E+03  0.12509000000E+03 0.  0.
         25    1    3    3    0    0 -0.10906107038E+03 -0.59563268845E+02  0.54843816794E+03  0.57608509113E+03  0.12509000000E+03 0.  0.
         25    1    3    3    0    0  0.59509880228E+02  0.17037683648E+01  0.39301785368E+03  0.41671917412E+03  0.12509000000E+03 0.  0.
<mgrwt>
<rscale>  2 0.46831869E+03</rscale>
<asrwt>0</asrwt>
<pdfrwt beam="1">  1       21 0.18808371E+00 0.46831869E+03</pdfrwt>
<pdfrwt beam="2">  1       21 0.63045485E-02 0.46831869E+03</pdfrwt>
<totfact> 0.25717814E+04</totfact>
</mgrwt>
</event>
<event>
 6    0  0.1572624E-007  0.4572405E+03  0.7546771E-02  0.1025585E+00
         21   -1    0    0  502  501  0.00000000000E+00  0.00000000000E+00  0.86860511698E+03  0.86860511698E+03  0.00000000000E+00 0.  1.
         21   -1    0    0  501  502 -0.00000000000E+00 -0.00000000000E+00 -0.60173729505E+02  0.60173729505E+02  0.00000000000E+00 0.  1.
      99926    2    1    2    0    0  0.00000000000E+00  0.00000000000E+00  0.80843138748E+03  0.92877884649E+03  0.45724045909E+03 0.  0.
         25    1    3    3    0    0 -0.18382887794E+02 -0.19232639826E+02  0.43931035282E+03  0.45754663062E+03  0.12509000000E+03 0.  0.
         25    1    3    3    0    0  0.92905955311E+01 -0.23196664674E+02  0.73273545202E+02  0.14710853457E+03  0.12509000000E+03 0.  0.
         25    1    3    3    0    0  0.90922922634E+01  0.42429304500E+02  0.29584748945E+03  0.32412368129E+03  0.12509000000E+03 0.  0.
<mgrwt>
<rscale>  2 0.45724046E+03</rscale>
<asrwt>0</asrwt>
<pdfrwt beam="1">  1       21 0.12773604E+00 0.45724046E+03</pdfrwt>
<pdfrwt beam="2">  1       21 0.88490784E-02 0.45724046E+03</pdfrwt>
<totfact> 0.41284079E+04</totfact>
</mgrwt>
</event>
<event>
 6    0  0.1572624E-007  0.4535316E+03  0.7546771E-02  0.1026674E+00
         21   -1    0    0  502  501  0.00000000000E+00  0.00000000000E+00  0.28402365200E+03  0.28402365200E+03  0.00000000000E+00 0. -1.
         21   -1    0    0  501  502 -0.00000000000E+00 -0.00000000000E+00 -0.18105090458E+03  0.18105090458E+03  0.00000000000E+00 0. -1.
      99926    2    1    2    0    0  0.00000000000E+00  0.23314683517E-14  0.10297274743E+03  0.46507455658E+03  0.45353164880E+03 0.  0.
         25    1    3    3    0    0  0.10029502420E+02  0.38809565490E+02  0.10274211421E+02  0.13175674864E+03  0.12509000000E+03 0.  0.
         25    1    3    3    0    0  0.84024892405E+02 -0.38353513894E+02  0.88025151500E+01  0.15574391463E+03  0.12509000000E+03 0.  0.
         25    1    3    3    0    0 -0.94054394825E+02 -0.45605159584E+00  0.83896020857E+02  0.17757389331E+03  0.12509000000E+03 0.  0.
<mgrwt>
<rscale>  2 0.45353165E+03</rscale>
<asrwt>0</asrwt>
<pdfrwt beam="1">  1       21 0.41768184E-01 0.45353165E+03</pdfrwt>
<pdfrwt beam="2">  1       21 0.26625133E-01 0.45353165E+03</pdfrwt>
<totfact> 0.68599665E+04</totfact>
</mgrwt>
</event>
<event>
 6    0  0.1572624E-007  0.4628346E+03  0.7546771E-02  0.1023962E+00
         21   -1    0    0  502  501  0.00000000000E+00  0.00000000000E+00  0.15833721009E+03  0.15833721009E+03  0.00000000000E+00 0. -1.
         21   -1    0    0  501  502 -0.00000000000E+00 -0.00000000000E+00 -0.33822733497E+03  0.33822733497E+03  0.00000000000E+00 0. -1.
      99926    2    1    2    0    0  0.00000000000E+00  0.53290705182E-14 -0.17989012488E+03  0.49656454506E+03  0.46283462531E+03 0.  0.
         25    1    3    3    0    0  0.47344223239E+02  0.80598032024E+02 -0.57207245114E+02  0.16630602886E+03  0.12509000000E+03 0.  0.
         25    1    3    3    0    0 -0.54499708395E+02 -0.56264201413E+01  0.44790585577E+01  0.13663617707E+03  0.12509000000E+03 0.  0.
         25    1    3    3    0    0  0.71554851554E+01 -0.74971611883E+02 -0.12716193832E+03  0.19362233914E+03  0.12509000000E+03 0.  0.
<mgrwt>
<rscale>  2 0.46283463E+03</rscale>
<asrwt>0</asrwt>
<pdfrwt beam="1">  1       21 0.23284884E-01 0.46283463E+03</pdfrwt>
<pdfrwt beam="2">  1       21 0.49739313E-01 0.46283463E+03</pdfrwt>
<totfact> 0.61591851E+04</totfact>
</mgrwt>
</event>
<event>
 6    0  0.1572624E-007  0.4493727E+03  0.7546771E-02  0.1027909E+00
         21   -1    0    0  502  501  0.00000000000E+00  0.00000000000E+00  0.11822235593E+03  0.11822235593E+03  0.00000000000E+00 0. -1.
         21   -1    0    0  501  502 -0.00000000000E+00 -0.00000000000E+00 -0.42702546084E+03  0.42702546084E+03  0.00000000000E+00 0. -1.
      99926    2    1    2    0    0  0.10658141036E-13  0.00000000000E+00 -0.30880310491E+03  0.54524781677E+03  0.44937270065E+03 0.  0.
         25    1    3    3    0    0  0.30432434017E+02  0.20673414620E+02 -0.15382743131E+03  0.20165294403E+03  0.12509000000E+03 0.  0.
         25    1    3    3    0    0  0.37508159999E+02 -0.50351209011E+02 -0.13326963866E+02  0.14059595436E+03  0.12509000000E+03 0.  0.
         25    1    3    3    0    0 -0.67940594016E+02  0.29677794392E+02 -0.14164870973E+03  0.20299891838E+03  0.12509000000E+03 0.  0.
<mgrwt>
<rscale>  2 0.44937270E+03</rscale>
<asrwt>0</asrwt>
<pdfrwt beam="1">  1       21 0.17385641E-01 0.44937270E+03</pdfrwt>
<pdfrwt beam="2">  1       21 0.62797861E-01 0.44937270E+03</pdfrwt>
<totfact> 0.65029218E+04</totfact>
</mgrwt>
</event>
<event>
 6    0  0.1572624E-007  0.4544178E+03  0.7546771E-02  0.1026413E+00
         21   -1    0    0  502  501  0.00000000000E+00  0.00000000000E+00  0.11988202249E+03  0.11988202249E+03  0.00000000000E+00 0. -1.
         21   -1    0    0  501  502 -0.00000000000E+00 -0.00000000000E+00 -0.43062239653E+03  0.43062239653E+03  0.00000000000E+00 0. -1.
      99926    2    1    2    0    0 -0.35527136788E-14  0.00000000000E+00 -0.31074037405E+03  0.55050441902E+03  0.45441779817E+03 0.  0.
         25    1    3    3    0    0 -0.43742645744E+02  0.28850086598E+02 -0.14647108477E+03  0.19961721701E+03  0.12509000000E+03 0.  0.
         25    1    3    3    0    0  0.63389508871E+02  0.42055897881E+01 -0.16935743794E+03  0.21992127388E+03  0.12509000000E+03 0.  0.
         25    1    3    3    0    0 -0.19646863127E+02 -0.33055676386E+02  0.50881486672E+01  0.13096592812E+03  0.12509000000E+03 0.  0.
<mgrwt>
<rscale>  2 0.45441780E+03</rscale>
<asrwt>0</asrwt>
<pdfrwt beam="1">  1       21 0.17629709E-01 0.45441780E+03</pdfrwt>
<pdfrwt beam="2">  1       21 0.63326823E-01 0.45441780E+03</pdfrwt>
<totfact> 0.62118833E+04</totfact>
</mgrwt>
</event>
<event>
 6    0  0.1572624E-007  0.4552300E+03  0.7546771E-02  0.1026174E+00
         21   -1    0    0  502  501  0.00000000000E+00  0.00000000000E+00  0.43517817799E+02  0.43517817799E+02  0.00000000000E+00 0. -1.
         21   -1    0    0  501  502 -0.00000000000E+00 -0.00000000000E+00 -0.11905144022E+04  0.11905144022E+04  0.00000000000E+00 0. -1.
      99926    2    1    2    0    0  0.00000000000E+00 -0.35527136788E-14 -0.11469965844E+04  0.12340322200E+04  0.45523000271E+03 0.  0.
         25    1    3    3    0    0 -0.14774109671E+02  0.37307762787E+02 -0.14320004878E+03  0.19432937388E+03  0.12509000000E+03 0.  0.
         25    1    3    3    0    0 -0.23408131823E+02 -0.27409593004E+02 -0.63686349031E+03  0.65003218367E+03  0.12509000000E+03 0.  0.
         25    1    3    3    0    0  0.38182241494E+02 -0.98981697829E+01 -0.36693304530E+03  0.38967066244E+03  0.12509000000E+03 0.  0.
<mgrwt>
<rscale>  2 0.45523000E+03</rscale>
<asrwt>0</asrwt>
<pdfrwt beam="1">  1       21 0.63996794E-02 0.45523000E+03</pdfrwt>
<pdfrwt beam="2">  1       21 0.17507564E+00 0.45523000E+03</pdfrwt>
<totfact> 0.31036713E+04</totfact>
</mgrwt>
</event>
<event>
 6    0  0.1572624E-007  0.4568705E+03  0.7546771E-02  0.1025693E+00
         21   -1    0    0  502  501  0.00000000000E+00  0.00000000000E+00  0.35313867532E+03  0.35313867532E+03  0.00000000000E+00 0. -1.
         21   -1    0    0  501  502 -0.00000000000E+00 -0.00000000000E+00 -0.14776817913E+03  0.14776817913E+03  0.00000000000E+00 0. -1.
      99926    2    1    2    0    0 -0.71054273576E-14  0.17763568394E-14  0.20537049619E+03  0.50090685446E+03  0.45687048070E+03 0.  0.
         25    1    3    3    0    0 -0.63905319306E+02  0.87188652580E+01  0.13923982542E+03  0.19797763897E+03  0.12509000000E+03 0.  0.
         25    1    3    3    0    0  0.19902169633E+02 -0.43703746106E+02  0.93101508887E+02  0.16316100281E+03  0.12509000000E+03 0.  0.
         25    1    3    3    0    0  0.44003149674E+02  0.34984880848E+02 -0.26970838118E+02  0.13976821269E+03  0.12509000000E+03 0.  0.
<mgrwt>
<rscale>  2 0.45687048E+03</rscale>
<asrwt>0</asrwt>
<pdfrwt beam="1">  1       21 0.51932158E-01 0.45687048E+03</pdfrwt>
<pdfrwt beam="2">  1       21 0.21730615E-01 0.45687048E+03</pdfrwt>
<totfact> 0.64247736E+04</totfact>
</mgrwt>
</event>
<event>
 6    0  0.1572624E-007  0.4319506E+03  0.7546771E-02  0.1033246E+00
         21   -1    0    0  502  501  0.00000000000E+00  0.00000000000E+00  0.14433742439E+03  0.14433742439E+03  0.00000000000E+00 0. -1.
         21   -1    0    0  501  502 -0.00000000000E+00 -0.00000000000E+00 -0.32316858303E+03  0.32316858303E+03  0.00000000000E+00 0. -1.
      99926    2    1    2    0    0  0.00000000000E+00 -0.53290705182E-14 -0.17883115864E+03  0.46750600742E+03  0.43195055698E+03 0.  0.
         25    1    3    3    0    0 -0.13096036614E+02 -0.69366532990E+02 -0.10215718544E+03  0.17625782454E+03  0.12509000000E+03 0.  0.
         25    1    3    3    0    0  0.34024374948E+02  0.80435394092E+02 -0.54602219576E+02  0.16203833249E+03  0.12509000000E+03 0.  0.
         25    1    3    3    0    0 -0.20928338333E+02 -0.11068861102E+02 -0.22071753629E+02  0.12920985040E+03  0.12509000000E+03 0.  0.
<mgrwt>
<rscale>  2 0.43195056E+03</rscale>
<asrwt>0</asrwt>
<pdfrwt beam="1">  1       21 0.21226092E-01 0.43195056E+03</pdfrwt>
<pdfrwt beam="2">  1       21 0.47524791E-01 0.43195056E+03</pdfrwt>
<totfact> 0.81550557E+04</totfact>
</mgrwt>
</event>
<event>
 6    0  0.1572624E-007  0.4265757E+03  0.7546771E-02  0.1034947E+00
         21   -1    0    0  502  501  0.00000000000E+00  0.00000000000E+00  0.29325194092E+03  0.29325194092E+03  0.00000000000E+00 0. -1.
         21   -1    0    0  501  502 -0.00000000000E+00 -0.00000000000E+00 -0.15512844271E+03  0.15512844271E+03  0.00000000000E+00 0. -1.
      99926    2    1    2    0    0 -0.17763568394E-14  0.35527136788E-14  0.13812349821E+03  0.44838038363E+03  0.42657574670E+03 0.  0.
         25    1    3    3    0    0  0.15198263760E+02 -0.26573653926E+01  0.10351717780E+03  0.16309924283E+03  0.12509000000E+03 0.  0.
         25    1    3    3    0    0  0.15102828062E+02 -0.51452853318E+02 -0.15419902520E+02  0.13696997125E+03  0.12509000000E+03 0.  0.
         25    1    3    3    0    0 -0.30301091822E+02  0.54110218711E+02  0.50026222927E+02  0.14831116956E+03  0.12509000000E+03 0.  0.
<mgrwt>
<rscale>  2 0.42657575E+03</rscale>
<asrwt>0</asrwt>
<pdfrwt beam="1">  1       21 0.43125285E-01 0.42657575E+03</pdfrwt>
<pdfrwt beam="2">  1       21 0.22813006E-01 0.42657575E+03</pdfrwt>
<totfact> 0.87129624E+04</totfact>
</mgrwt>
</event>
<event>
 6    0  0.1572624E-007  0.4564478E+03  0.7546771E-02  0.1025817E+00
         21   -1    0    0  502  501  0.00000000000E+00  0.00000000000E+00  0.72373416752E+03  0.72373416752E+03  0.00000000000E+00 0. -1.
         21   -1    0    0  501  502 -0.00000000000E+00 -0.00000000000E+00 -0.71968625443E+02  0.71968625443E+02  0.00000000000E+00 0. -1.
      99926    2    1    2    0    0 -0.14210854715E-13  0.71054273576E-14  0.65176554208E+03  0.79570279297E+03  0.45644782056E+03 0.  0.
         25    1    3    3    0    0  0.80721079830E+02 -0.26781275387E+02  0.20369899488E+03  0.25372015697E+03  0.12509000000E+03 0.  0.
         25    1    3    3    0    0 -0.78467886601E+02  0.74338795145E+02  0.29888129874E+03  0.34155673691E+03  0.12509000000E+03 0.  0.
         25    1    3    3    0    0 -0.22531932289E+01 -0.47557519758E+02  0.14918524847E+03  0.20042589909E+03  0.12509000000E+03 0.  0.
<mgrwt>
<rscale>  2 0.45644782E+03</rscale>
<asrwt>0</asrwt>
<pdfrwt beam="1">  1       21 0.10643149E+00 0.45644782E+03</pdfrwt>
<pdfrwt beam="2">  1       21 0.10583622E-01 0.45644782E+03</pdfrwt>
<totfact> 0.47432116E+04</totfact>
</mgrwt>
</event>
<event>
 6    0  0.1572624E-007  0.4445269E+03  0.7546771E-02  0.1029367E+00
         21   -1    0    0  502  501  0.00000000000E+00  0.00000000000E+00  0.20946767799E+02  0.20946767799E+02  0.00000000000E+00 0. -1.
         21   -1    0    0  501  502 -0.00000000000E+00 -0.00000000000E+00 -0.23584092332E+04  0.23584092332E+04  0.00000000000E+00 0. -1.
      99926    2    1    2    0    0  0.71054273576E-14  0.00000000000E+00 -0.23374624654E+04  0.23793560010E+04  0.44452694219E+03 0.  0.
         25    1    3    3    0    0  0.63699661148E+02  0.10958978212E+02 -0.59677757650E+03  0.61316289022E+03  0.12509000000E+03 0.  0.
         25    1    3    3    0    0 -0.66204288996E+02 -0.36991063058E+02 -0.56680216933E+03  0.58537471237E+03  0.12509000000E+03 0.  0.
         25    1    3    3    0    0  0.25046278484E+01  0.26032084847E+02 -0.11738827196E+04  0.11808183984E+04  0.12509000000E+03 0.  0.
<mgrwt>
<rscale>  2 0.44452694E+03</rscale>
<asrwt>0</asrwt>
<pdfrwt beam="1">  1       21 0.30804087E-02 0.44452694E+03</pdfrwt>
<pdfrwt beam="2">  1       21 0.34682470E+00 0.44452694E+03</pdfrwt>
<totfact> 0.91702089E+03</totfact>
</mgrwt>
</event>
<event>
 6    0  0.1572624E-007  0.4631389E+03  0.7546771E-02  0.1023875E+00
         21   -1    0    0  502  501  0.00000000000E+00  0.00000000000E+00  0.18900394260E+03  0.18900394260E+03  0.00000000000E+00 0.  1.
         21   -1    0    0  501  502 -0.00000000000E+00 -0.00000000000E+00 -0.28372113365E+03  0.28372113365E+03  0.00000000000E+00 0.  1.
      99926    2    1    2    0    0 -0.10658141036E-13  0.00000000000E+00 -0.94717191045E+02  0.47272507625E+03  0.46313891159E+03 0.  0.
         25    1    3    3    0    0 -0.75015113282E+02 -0.73398847508E+02  0.34389517607E+02  0.16686762735E+03  0.12509000000E+03 0.  0.
         25    1    3    3    0    0  0.49097141590E+02  0.26336689738E+02 -0.91240919336E+02  0.16454957915E+03  0.12509000000E+03 0.  0.
         25    1    3    3    0    0  0.25917971692E+02  0.47062157770E+02 -0.37865789316E+02  0.14130786974E+03  0.12509000000E+03 0.  0.
<mgrwt>
<rscale>  2 0.46313891E+03</rscale>
<asrwt>0</asrwt>
<pdfrwt beam="1">  1       21 0.27794697E-01 0.46313891E+03</pdfrwt>
<pdfrwt beam="2">  1       21 0.41723696E-01 0.46313891E+03</pdfrwt>
<totfact> 0.63060947E+04</totfact>
</mgrwt>
</event>
<event>
 6    0  0.1572624E-007  0.4711438E+03  0.7546771E-02  0.1021598E+00
         21   -1    0    0  502  501  0.00000000000E+00  0.00000000000E+00  0.24126455451E+03  0.24126455451E+03  0.00000000000E+00 0. -1.
         21   -1    0    0  501  502 -0.00000000000E+00 -0.00000000000E+00 -0.23001359998E+03  0.23001359998E+03  0.00000000000E+00 0. -1.
      99926    2    1    2    0    0  0.14210854715E-13  0.00000000000E+00  0.11250954523E+02  0.47127815449E+03  0.47114383677E+03 0.  0.
         25    1    3    3    0    0  0.25653746394E+02 -0.15330505401E+02  0.69257221102E+02  0.14607261850E+03  0.12509000000E+03 0.  0.
         25    1    3    3    0    0 -0.98563455195E+02  0.21527056610E+02 -0.78486568635E+02  0.17884579509E+03  0.12509000000E+03 0.  0.
         25    1    3    3    0    0  0.72909708800E+02 -0.61965512094E+01  0.20480302056E+02  0.14635974090E+03  0.12509000000E+03 0.  0.
<mgrwt>
<rscale>  2 0.47114384E+03</rscale>
<asrwt>0</asrwt>
<pdfrwt beam="1">  1       21 0.35480082E-01 0.47114384E+03</pdfrwt>
<pdfrwt beam="2">  1       21 0.33825529E-01 0.47114384E+03</pdfrwt>
<totfact> 0.59348274E+04</totfact>
</mgrwt>
</event>
<event>
 6    0  0.1572624E-007  0.4534816E+03  0.7546771E-02  0.1026689E+00
         21   -1    0    0  502  501  0.00000000000E+00  0.00000000000E+00  0.12871589814E+04  0.12871589814E+04  0.00000000000E+00 0.  1.
         21   -1    0    0  501  502 -0.00000000000E+00 -0.00000000000E+00 -0.39941759503E+02  0.39941759503E+02  0.00000000000E+00 0.  1.
      99926    2    1    2    0    0 -0.10658141036E-13  0.00000000000E+00  0.12472172219E+04  0.13271007409E+04  0.45348161805E+03 0.  0.
         25    1    3    3    0    0  0.93920737485E+02  0.22093849694E+02  0.61673203386E+03  0.63664366235E+03  0.12509000000E+03 0.  0.
         25    1    3    3    0    0 -0.74296727907E+02 -0.42935528457E+01  0.25272296340E+03  0.29164163403E+03  0.12509000000E+03 0.  0.
         25    1    3    3    0    0 -0.19624009578E+02 -0.17800296849E+02  0.37776222464E+03  0.39881544452E+03  0.12509000000E+03 0.  0.
<mgrwt>
<rscale>  2 0.45348162E+03</rscale>
<asrwt>0</asrwt>
<pdfrwt beam="1">  1       21 0.18928806E+00 0.45348162E+03</pdfrwt>
<pdfrwt beam="2">  1       21 0.58737890E-02 0.45348162E+03</pdfrwt>
<totfact> 0.28674774E+04</totfact>
</mgrwt>
</event>
<event>
 6    0  0.1572624E-007  0.4477316E+03  0.7546771E-02  0.1028401E+00
         21   -1    0    0  502  501  0.00000000000E+00  0.00000000000E+00  0.85096454521E+03  0.85096454521E+03  0.00000000000E+00 0. -1.
         21   -1    0    0  501  502 -0.00000000000E+00 -0.00000000000E+00 -0.58893053542E+02  0.58893053542E+02  0.00000000000E+00 0. -1.
      99926    2    1    2    0    0  0.71054273576E-14  0.35527136788E-14  0.79207149167E+03  0.90985759875E+03  0.44773161837E+03 0.  0.
         25    1    3    3    0    0 -0.71022078702E+01 -0.60008077419E+02  0.33569609946E+03  0.36330536743E+03  0.12509000000E+03 0.  0.
         25    1    3    3    0    0 -0.46067621132E+02  0.80408015850E+02  0.18068162169E+03  0.23849744494E+03  0.12509000000E+03 0.  0.
         25    1    3    3    0    0  0.53169829003E+02 -0.20399938431E+02  0.27569377053E+03  0.30805478638E+03  0.12509000000E+03 0.  0.
<mgrwt>
<rscale>  2 0.44773162E+03</rscale>
<asrwt>0</asrwt>
<pdfrwt beam="1">  1       21 0.12514184E+00 0.44773162E+03</pdfrwt>
<pdfrwt beam="2">  1       21 0.86607437E-02 0.44773162E+03</pdfrwt>
<totfact> 0.45334012E+04</totfact>
</mgrwt>
</event>
<event>
 6    0  0.1572624E-007  0.4585695E+03  0.7546771E-02  0.1025197E+00
         21   -1    0    0  502  501  0.00000000000E+00  0.00000000000E+00  0.29506106761E+03  0.29506106761E+03  0.00000000000E+00 0.  1.
         21   -1    0    0  501  502 -0.00000000000E+00 -0.00000000000E+00 -0.17817161654E+03  0.17817161654E+03  0.00000000000E+00 0.  1.
      99926    2    1    2    0    0 -0.17763568394E-14  0.00000000000E+00  0.11688945107E+03  0.47323268415E+03  0.45856954715E+03 0.  0.
         25    1    3    3    0    0 -0.26317770841E+01 -0.20705992838E+02 -0.51823778726E+02  0.13699954938E+03  0.12509000000E+03 0.  0.
         25    1    3    3    0    0  0.11834025315E+02  0.17571790873E+02  0.11175397460E+01  0.12687619550E+03  0.12509000000E+03 0.  0.
         25    1    3    3    0    0 -0.92022482313E+01  0.31342019647E+01  0.16759569005E+03  0.20935693927E+03  0.12509000000E+03 0.  0.
<mgrwt>
<rscale>  2 0.45856955E+03</rscale>
<asrwt>0</asrwt>
<pdfrwt beam="1">  1       21 0.43391333E-01 0.45856955E+03</pdfrwt>
<pdfrwt beam="2">  1       21 0.26201708E-01 0.45856955E+03</pdfrwt>
<totfact> 0.65326434E+04</totfact>
</mgrwt>
</event>
<event>
 6    0  0.1572624E-007  0.4559602E+03  0.7546771E-02  0.1025959E+00
         21   -1    0    0  502  501  0.00000000000E+00  0.00000000000E+00  0.26600141838E+03  0.26600141838E+03  0.00000000000E+00 0.  1.
         21   -1    0    0  501  502 -0.00000000000E+00 -0.00000000000E+00 -0.19539342122E+03  0.19539342122E+03  0.00000000000E+00 0.  1.
      99926    2    1    2    0    0 -0.17763568394E-14  0.00000000000E+00  0.70607997161E+02  0.46139483960E+03  0.45596020522E+03 0.  0.
         25    1    3    3    0    0  0.21140275731E+02 -0.86715193719E+02  0.14288610416E+02  0.15433116525E+03  0.12509000000E+03 0.  0.
         25    1    3    3    0    0 -0.90407830835E+01 -0.56576758728E+01 -0.29611158594E+02  0.12898865791E+03  0.12509000000E+03 0.  0.
         25    1    3    3    0    0 -0.12099492647E+02  0.92372869592E+02  0.85930545339E+02  0.17807501644E+03  0.12509000000E+03 0.  0.
<mgrwt>
<rscale>  2 0.45596021E+03</rscale>
<asrwt>0</asrwt>
<pdfrwt beam="1">  1       21 0.39117856E-01 0.45596021E+03</pdfrwt>
<pdfrwt beam="2">  1       21 0.28734327E-01 0.45596021E+03</pdfrwt>
<totfact> 0.67560212E+04</totfact>
</mgrwt>
</event>
<event>
 6    0  0.1572624E-007  0.4719847E+03  0.7546771E-02  0.1021362E+00
         21   -1    0    0  502  501  0.00000000000E+00  0.00000000000E+00  0.60868249425E+03  0.60868249425E+03  0.00000000000E+00 0. -1.
         21   -1    0    0  501  502 -0.00000000000E+00 -0.00000000000E+00 -0.91496630696E+02  0.91496630696E+02  0.00000000000E+00 0. -1.
      99926    2    1    2    0    0  0.53290705182E-14  0.00000000000E+00  0.51718586355E+03  0.70017912495E+03  0.47198473445E+03 0.  0.
         25    1    3    3    0    0  0.46365426570E+02 -0.98365186051E+02  0.26055754959E+03  0.30880933819E+03  0.12509000000E+03 0.  0.
         25    1    3    3    0    0 -0.47105638067E+01  0.69077256671E+02  0.65310320440E+02  0.15718397773E+03  0.12509000000E+03 0.  0.
         25    1    3    3    0    0 -0.41654862763E+02  0.29287929380E+02  0.19131799352E+03  0.23418580902E+03  0.12509000000E+03 0.  0.
<mgrwt>
<rscale>  2 0.47198473E+03</rscale>
<asrwt>0</asrwt>
<pdfrwt beam="1">  1       21 0.89512129E-01 0.47198473E+03</pdfrwt>
<pdfrwt beam="2">  1       21 0.13455387E-01 0.47198473E+03</pdfrwt>
<totfact> 0.46373496E+04</totfact>
</mgrwt>
</event>
<event>
 6    0  0.1572624E-007  0.4587703E+03  0.7546771E-02  0.1025138E+00
         21   -1    0    0  502  501  0.00000000000E+00  0.00000000000E+00  0.99422864172E+02  0.99422864172E+02  0.00000000000E+00 0.  1.
         21   -1    0    0  501  502 -0.00000000000E+00 -0.00000000000E+00 -0.52922978405E+03  0.52922978405E+03  0.00000000000E+00 0.  1.
      99926    2    1    2    0    0  0.00000000000E+00 -0.66613381478E-14 -0.42980691988E+03  0.62865264822E+03  0.45877027338E+03 0.  0.
         25    1    3    3    0    0  0.50786192702E+02  0.76116776121E+02 -0.80914577878E+02  0.17483614612E+03  0.12509000000E+03 0.  0.
         25    1    3    3    0    0 -0.71179966903E+02 -0.74642267711E+02 -0.21718816025E+03  0.27102815512E+03  0.12509000000E+03 0.  0.
         25    1    3    3    0    0  0.20393774201E+02 -0.14745084103E+01 -0.13170418175E+03  0.18278834698E+03  0.12509000000E+03 0.  0.
<mgrwt>
<rscale>  2 0.45877027E+03</rscale>
<asrwt>0</asrwt>
<pdfrwt beam="1">  1       21 0.14621009E-01 0.45877027E+03</pdfrwt>
<pdfrwt beam="2">  1       21 0.77827910E-01 0.45877027E+03</pdfrwt>
<totfact> 0.55284392E+04</totfact>
</mgrwt>
</event>
<event>
 6    0  0.1572624E-007  0.4885277E+03  0.7546771E-02  0.1016817E+00
         21   -1    0    0  502  501  0.00000000000E+00  0.00000000000E+00  0.53167880900E+03  0.53167880900E+03  0.00000000000E+00 0.  1.
         21   -1    0    0  501  502 -0.00000000000E+00 -0.00000000000E+00 -0.11221969117E+03  0.11221969117E+03  0.00000000000E+00 0.  1.
      99926    2    1    2    0    0  0.71054273576E-14 -0.14210854715E-13  0.41945911782E+03  0.64389850017E+03  0.48852771364E+03 0.  0.
         25    1    3    3    0    0  0.86626815543E+02 -0.42240161498E+02  0.16188529281E+03  0.22614772283E+03  0.12509000000E+03 0.  0.
         25    1    3    3    0    0 -0.42479701363E+02  0.11128475340E+03  0.17926959887E+03  0.24894561363E+03  0.12509000000E+03 0.  0.
         25    1    3    3    0    0 -0.44147114180E+02 -0.69044591902E+02  0.78304226141E+02  0.16880516370E+03  0.12509000000E+03 0.  0.
<mgrwt>
<rscale>  2 0.48852771E+03</rscale>
<asrwt>0</asrwt>
<pdfrwt beam="1">  1       21 0.78188059E-01 0.48852771E+03</pdfrwt>
<pdfrwt beam="2">  1       21 0.16502896E-01 0.48852771E+03</pdfrwt>
<totfact> 0.43382973E+04</totfact>
</mgrwt>
</event>
<event>
 6    0  0.1572624E-007  0.4524186E+03  0.7546771E-02  0.1027003E+00
         21   -1    0    0  502  501  0.00000000000E+00  0.00000000000E+00  0.95387754688E+03  0.95387754688E+03  0.00000000000E+00 0.  1.
         21   -1    0    0  501  502 -0.00000000000E+00 -0.00000000000E+00 -0.53644871010E+02  0.53644871010E+02  0.00000000000E+00 0.  1.
      99926    2    1    2    0    0  0.00000000000E+00 -0.35527136788E-14  0.90023267587E+03  0.10075224179E+04  0.45241855825E+03 0.  0.
         25    1    3    3    0    0  0.81471157585E+01  0.12627359668E+02  0.13635006361E+03  0.18564663652E+03  0.12509000000E+03 0.  0.
         25    1    3    3    0    0 -0.22421095185E+02  0.65112400138E+02  0.25897482710E+03  0.29573264840E+03  0.12509000000E+03 0.  0.
         25    1    3    3    0    0  0.14273979427E+02 -0.77739759806E+02  0.50490778516E+03  0.52614313296E+03  0.12509000000E+03 0.  0.
<mgrwt>
<rscale>  2 0.45241856E+03</rscale>
<asrwt>0</asrwt>
<pdfrwt beam="1">  1       21 0.14027610E+00 0.45241856E+03</pdfrwt>
<pdfrwt beam="2">  1       21 0.78889522E-02 0.45241856E+03</pdfrwt>
<totfact> 0.39669125E+04</totfact>
</mgrwt>
</event>
<event>
 6    0  0.1572624E-007  0.4538731E+03  0.7546771E-02  0.1026573E+00
         21   -1    0    0  502  501  0.00000000000E+00  0.00000000000E+00  0.48800410126E+03  0.48800410126E+03  0.00000000000E+00 0. -1.
         21   -1    0    0  501  502 -0.00000000000E+00 -0.00000000000E+00 -0.10553230556E+03  0.10553230556E+03  0.00000000000E+00 0. -1.
      99926    2    1    2    0    0 -0.88817841970E-15  0.00000000000E+00  0.38247179570E+03  0.59353640682E+03  0.45387310090E+03 0.  0.
         25    1    3    3    0    0 -0.22102878072E+02  0.41887992515E+02  0.10944196759E+03  0.17282416933E+03  0.12509000000E+03 0.  0.
         25    1    3    3    0    0  0.15989260022E+02 -0.31046902492E+01  0.25996702643E+03  0.28895615320E+03  0.12509000000E+03 0.  0.
         25    1    3    3    0    0  0.61136180499E+01 -0.38783302266E+02  0.13062801676E+02  0.13175608429E+03  0.12509000000E+03 0.  0.
<mgrwt>
<rscale>  2 0.45387310E+03</rscale>
<asrwt>0</asrwt>
<pdfrwt beam="1">  1       21 0.71765308E-01 0.45387310E+03</pdfrwt>
<pdfrwt beam="2">  1       21 0.15519457E-01 0.45387310E+03</pdfrwt>
<totfact> 0.59606952E+04</totfact>
</mgrwt>
</event>
<event>
 6    0  0.1572624E-007  0.4570507E+03  0.7546771E-02  0.1025640E+00
         21   -1    0    0  502  501  0.00000000000E+00  0.00000000000E+00  0.66881901232E+03  0.66881901232E+03  0.00000000000E+00 0. -1.
         21   -1    0    0  501  502 -0.00000000000E+00 -0.00000000000E+00 -0.78083665947E+02  0.78083665947E+02  0.00000000000E+00 0. -1.
      99926    2    1    2    0    0  0.00000000000E+00  0.14210854715E-13  0.59073534638E+03  0.74690267827E+03  0.45705072076E+03 0.  0.
         25    1    3    3    0    0  0.76534574514E+01  0.20371537340E+02  0.13292402934E+03  0.18382023996E+03  0.12509000000E+03 0.  0.
         25    1    3    3    0    0 -0.16001966505E+02  0.92040889419E+02  0.26034720360E+03  0.30357167651E+03  0.12509000000E+03 0.  0.
         25    1    3    3    0    0  0.83485090540E+01 -0.11241242676E+03  0.19746411344E+03  0.25951076180E+03  0.12509000000E+03 0.  0.
<mgrwt>
<rscale>  2 0.45705072E+03</rscale>
<asrwt>0</asrwt>
<pdfrwt beam="1">  1       21 0.98355734E-01 0.45705072E+03</pdfrwt>
<pdfrwt beam="2">  1       21 0.11482892E-01 0.45705072E+03</pdfrwt>
<totfact> 0.49624569E+04</totfact>
</mgrwt>
</event>
<event>
 6    0  0.1572624E-007  0.4499196E+03  0.7546771E-02  0.1027746E+00
         21   -1    0    0  502  501  0.00000000000E+00  0.00000000000E+00  0.40056300760E+03  0.40056300760E+03  0.00000000000E+00 0. -1.
         21   -1    0    0  501  502 -0.00000000000E+00 -0.00000000000E+00 -0.12633947419E+03  0.12633947419E+03  0.00000000000E+00 0. -1.
      99926    2    1    2    0    0 -0.35527136788E-14  0.00000000000E+00  0.27422353340E+03  0.52690248179E+03  0.44991963621E+03 0.  0.
         25    1    3    3    0    0  0.65725281071E+02 -0.65826512765E+02  0.74776003377E+02  0.17289274460E+03  0.12509000000E+03 0.  0.
         25    1    3    3    0    0 -0.27919870895E+02  0.90399420142E+02  0.84010559270E+02  0.17792373794E+03  0.12509000000E+03 0.  0.
         25    1    3    3    0    0 -0.37805410176E+02 -0.24572907377E+02  0.11543697076E+03  0.17608599925E+03  0.12509000000E+03 0.  0.
<mgrwt>
<rscale>  2 0.44991964E+03</rscale>
<asrwt>0</asrwt>
<pdfrwt beam="1">  1       21 0.58906324E-01 0.44991964E+03</pdfrwt>
<pdfrwt beam="2">  1       21 0.18579335E-01 0.44991964E+03</pdfrwt>
<totfact> 0.66035140E+04</totfact>
</mgrwt>
</event>
<event>
 6    0  0.1572624E-007  0.4691096E+03  0.7546771E-02  0.1022172E+00
         21   -1    0    0  502  501  0.00000000000E+00  0.00000000000E+00  0.63813520690E+02  0.63813520690E+02  0.00000000000E+00 0.  1.
         21   -1    0    0  501  502 -0.00000000000E+00 -0.00000000000E+00 -0.86213623217E+03  0.86213623217E+03  0.00000000000E+00 0.  1.
      99926    2    1    2    0    0  0.44825254619E-14  0.00000000000E+00 -0.79832271148E+03  0.92594975286E+03  0.46910957479E+03 0.  0.
         25    1    3    3    0    0  0.75701580263E-01 -0.11906782512E+03 -0.26383431542E+03  0.31533031380E+03  0.12509000000E+03 0.  0.
         25    1    3    3    0    0 -0.39649340182E+02  0.94499014776E+02 -0.28616912268E+03  0.32869805117E+03  0.12509000000E+03 0.  0.
         25    1    3    3    0    0  0.39573638601E+02  0.24568810345E+02 -0.24831927338E+03  0.28192138788E+03  0.12509000000E+03 0.  0.
<mgrwt>
<rscale>  2 0.46910957E+03</rscale>
<asrwt>0</asrwt>
<pdfrwt beam="1">  1       21 0.93843414E-02 0.46910957E+03</pdfrwt>
<pdfrwt beam="2">  1       21 0.12678474E+00 0.46910957E+03</pdfrwt>
<totfact> 0.37782380E+04</totfact>
</mgrwt>
</event>
<event>
 6    0  0.1572624E-007  0.4549374E+03  0.7546771E-02  0.1026260E+00
         21   -1    0    0  502  501  0.00000000000E+00  0.00000000000E+00  0.11566082481E+03  0.11566082481E+03  0.00000000000E+00 0.  1.
         21   -1    0    0  501  502 -0.00000000000E+00 -0.00000000000E+00 -0.44735980109E+03  0.44735980109E+03  0.00000000000E+00 0.  1.
      99926    2    1    2    0    0 -0.14210854715E-13 -0.17763568394E-14 -0.33169897627E+03  0.56302062590E+03  0.45493737407E+03 0.  0.
         25    1    3    3    0    0  0.11432974383E+03  0.83021981680E+01 -0.97319761924E+02  0.19559872438E+03  0.12509000000E+03 0.  0.
         25    1    3    3    0    0 -0.30454513255E+02  0.54600981264E+01 -0.13400508184E+03  0.18590901029E+03  0.12509000000E+03 0.  0.
         25    1    3    3    0    0 -0.83875230577E+02 -0.13762296294E+02 -0.10037413251E+03  0.18151289122E+03  0.12509000000E+03 0.  0.
<mgrwt>
<rscale>  2 0.45493737E+03</rscale>
<asrwt>0</asrwt>
<pdfrwt beam="1">  1       21 0.17008945E-01 0.45493737E+03</pdfrwt>
<pdfrwt beam="2">  1       21 0.65788207E-01 0.45493737E+03</pdfrwt>
<totfact> 0.61044442E+04</totfact>
</mgrwt>
</event>
<event>
 6    0  0.1572624E-007  0.4561999E+03  0.7546771E-02  0.1025889E+00
         21   -1    0    0  502  501  0.00000000000E+00  0.00000000000E+00  0.14819185498E+04  0.14819185498E+04  0.00000000000E+00 0. -1.
         21   -1    0    0  501  502 -0.00000000000E+00 -0.00000000000E+00 -0.35109619789E+02  0.35109619789E+02  0.00000000000E+00 0. -1.
      99926    2    1    2    0    0  0.00000000000E+00  0.00000000000E+00  0.14468089300E+04  0.15170281695E+04  0.45619994231E+03 0.  0.
         25    1    3    3    0    0  0.30974890911E+02 -0.49926407376E+02  0.45294372344E+03  0.47355845967E+03  0.12509000000E+03 0.  0.
         25    1    3    3    0    0 -0.64242793040E+02  0.52265388177E+02  0.77330554140E+03  0.78772315931E+03  0.12509000000E+03 0.  0.
         25    1    3    3    0    0  0.33267902130E+02 -0.23389808012E+01  0.22055966512E+03  0.25574655056E+03  0.12509000000E+03 0.  0.
<mgrwt>
<rscale>  2 0.45619994E+03</rscale>
<asrwt>0</asrwt>
<pdfrwt beam="1">  1       21 0.21792916E+00 0.45619994E+03</pdfrwt>
<pdfrwt beam="2">  1       21 0.51631804E-02 0.45619994E+03</pdfrwt>
<totfact> 0.23148366E+04</totfact>
</mgrwt>
</event>
<event>
 6    0  0.1572624E-007  0.4429701E+03  0.7546771E-02  0.1029839E+00
         21   -1    0    0  502  501  0.00000000000E+00  0.00000000000E+00  0.11675260353E+04  0.11675260353E+04  0.00000000000E+00 0.  1.
         21   -1    0    0  501  502 -0.00000000000E+00 -0.00000000000E+00 -0.42016733117E+02  0.42016733117E+02  0.00000000000E+00 0.  1.
      99926    2    1    2    0    0  0.00000000000E+00 -0.19984014443E-14  0.11255093022E+04  0.12095427684E+04  0.44297011110E+03 0.  0.
         25    1    3    3    0    0  0.35815607984E+02  0.44884320217E+02  0.48216074134E+03  0.50142182697E+03  0.12509000000E+03 0.  0.
         25    1    3    3    0    0  0.41191993562E+02 -0.45255749183E+02  0.40361053345E+03  0.42695882000E+03  0.12509000000E+03 0.  0.
         25    1    3    3    0    0 -0.77007601546E+02  0.37142896567E+00  0.23973802742E+03  0.28116212147E+03  0.12509000000E+03 0.  0.
<mgrwt>
<rscale>  2 0.44297011E+03</rscale>
<asrwt>0</asrwt>
<pdfrwt beam="1">  1       21 0.17169498E+00 0.44297011E+03</pdfrwt>
<pdfrwt beam="2">  1       21 0.61789321E-02 0.44297011E+03</pdfrwt>
<totfact> 0.35023447E+04</totfact>
</mgrwt>
</event>
<event>
 6    0  0.1572624E-007  0.4584188E+03  0.7546771E-02  0.1025241E+00
         21   -1    0    0  502  501  0.00000000000E+00  0.00000000000E+00  0.33587890738E+03  0.33587890738E+03  0.00000000000E+00 0.  1.
         21   -1    0    0  501  502 -0.00000000000E+00 -0.00000000000E+00 -0.15641630813E+03  0.15641630813E+03  0.00000000000E+00 0.  1.
      99926    2    1    2    0    0  0.71054273576E-14  0.00000000000E+00  0.17946259925E+03  0.49229521551E+03  0.45841875472E+03 0.  0.
         25    1    3    3    0    0 -0.35583105038E+01  0.58173369274E+02  0.24159710844E+01  0.13802227169E+03  0.12509000000E+03 0.  0.
         25    1    3    3    0    0  0.58772890138E+02 -0.72906268781E+02  0.14476041362E+03  0.21300859629E+03  0.12509000000E+03 0.  0.
         25    1    3    3    0    0 -0.55214579634E+02  0.14732899507E+02  0.32286214542E+02  0.14126434752E+03  0.12509000000E+03 0.  0.
<mgrwt>
<rscale>  2 0.45841875E+03</rscale>
<asrwt>0</asrwt>
<pdfrwt beam="1">  1       21 0.49393957E-01 0.45841875E+03</pdfrwt>
<pdfrwt beam="2">  1       21 0.23002398E-01 0.45841875E+03</pdfrwt>
<totfact> 0.64059084E+04</totfact>
</mgrwt>
</event>
<event>
 6    0  0.1572624E-007  0.4547378E+03  0.7546771E-02  0.1026319E+00
         21   -1    0    0  502  501  0.00000000000E+00  0.00000000000E+00  0.38042928678E+03  0.38042928678E+03  0.00000000000E+00 0.  1.
         21   -1    0    0  501  502 -0.00000000000E+00 -0.00000000000E+00 -0.13589020234E+03  0.13589020234E+03  0.00000000000E+00 0.  1.
      99926    2    1    2    0    0  0.00000000000E+00  0.00000000000E+00  0.24453908444E+03  0.51631948913E+03  0.45473778272E+03 0.  0.
         25    1    3    3    0    0  0.10143001656E+03 -0.52888364269E+02  0.14089002400E+03  0.22041491396E+03  0.12509000000E+03 0.  0.
         25    1    3    3    0    0 -0.52932242367E+02  0.95352797313E+01  0.51494866162E+02  0.14557463097E+03  0.12509000000E+03 0.  0.
         25    1    3    3    0    0 -0.48497774190E+02  0.43353084538E+02  0.52154194275E+02  0.15032994419E+03  0.12509000000E+03 0.  0.
<mgrwt>
<rscale>  2 0.45473778E+03</rscale>
<asrwt>0</asrwt>
<pdfrwt beam="1">  1       21 0.55945483E-01 0.45473778E+03</pdfrwt>
<pdfrwt beam="2">  1       21 0.19983853E-01 0.45473778E+03</pdfrwt>
<totfact> 0.64272345E+04</totfact>
</mgrwt>
</event>
<event>
 6    0  0.1572624E-007  0.4515456E+03  0.7546771E-02  0.1027262E+00
         21   -1    0    0  502  501  0.00000000000E+00  0.00000000000E+00  0.81982510161E+03  0.81982510161E+03  0.00000000000E+00 0.  1.
         21   -1    0    0  501  502 -0.00000000000E+00 -0.00000000000E+00 -0.62175890189E+02  0.62175890189E+02  0.00000000000E+00 0.  1.
      99926    2    1    2    0    0  0.00000000000E+00  0.00000000000E+00  0.75764921142E+03  0.88200099180E+03  0.45154559235E+03 0.  0.
         25    1    3    3    0    0  0.78681380072E+02  0.15780604917E+02  0.20879400968E+03  0.25628545343E+03  0.12509000000E+03 0.  0.
         25    1    3    3    0    0  0.23888929518E+02  0.29330588268E+02  0.27491565578E+03  0.30439627175E+03  0.12509000000E+03 0.  0.
         25    1    3    3    0    0 -0.10257030959E+03 -0.45111193185E+02  0.27393954595E+03  0.32131926661E+03  0.12509000000E+03 0.  0.
<mgrwt>
<rscale>  2 0.45154559E+03</rscale>
<asrwt>0</asrwt>
<pdfrwt beam="1">  1       21 0.12056251E+00 0.45154559E+03</pdfrwt>
<pdfrwt beam="2">  1       21 0.91435138E-02 0.45154559E+03</pdfrwt>
<totfact> 0.45232419E+04</totfact>
</mgrwt>
</event>
<event>
 6    0  0.1572624E-007  0.4513449E+03  0.7546771E-02  0.1027322E+00
         21   -1    0    0  502  501  0.00000000000E+00  0.00000000000E+00  0.10707578967E+03  0.10707578967E+03  0.00000000000E+00 0. -1.
         21   -1    0    0  501  502 -0.00000000000E+00 -0.00000000000E+00 -0.47562614728E+03  0.47562614728E+03  0.00000000000E+00 0. -1.
      99926    2    1    2    0    0 -0.35527136788E-14  0.00000000000E+00 -0.36855035761E+03  0.58270193694E+03  0.45134485842E+03 0.  0.
         25    1    3    3    0    0  0.56620008743E+02 -0.98566423117E+01 -0.16692011705E+03  0.21636268709E+03  0.12509000000E+03 0.  0.
         25    1    3    3    0    0 -0.25200209105E+02  0.19438292086E+02 -0.27488053491E+01  0.12910446069E+03  0.12509000000E+03 0.  0.
         25    1    3    3    0    0 -0.31419799638E+02 -0.95816497738E+01 -0.19888143521E+03  0.23723478917E+03  0.12509000000E+03 0.  0.
<mgrwt>
<rscale>  2 0.45134486E+03</rscale>
<asrwt>0</asrwt>
<pdfrwt beam="1">  1       21 0.15746440E-01 0.45134486E+03</pdfrwt>
<pdfrwt beam="2">  1       21 0.69945021E-01 0.45134486E+03</pdfrwt>
<totfact> 0.61514054E+04</totfact>
</mgrwt>
</event>
<event>
 6    0  0.1572624E-007  0.4540873E+03  0.7546771E-02  0.1026510E+00
         21   -1    0    0  502  501  0.00000000000E+00  0.00000000000E+00  0.40953479939E+03  0.40953479939E+03  0.00000000000E+00 0.  1.
         21   -1    0    0  501  502 -0.00000000000E+00 -0.00000000000E+00 -0.12587166476E+03  0.12587166476E+03  0.00000000000E+00 0.  1.
      99926    2    1    2    0    0 -0.14210854715E-13  0.00000000000E+00  0.28366313463E+03  0.53540646415E+03  0.45408733511E+03 0.  0.
         25    1    3    3    0    0  0.85863176463E+01  0.84618062975E+00  0.34255606186E+02  0.12998228928E+03  0.12509000000E+03 0.  0.
         25    1    3    3    0    0 -0.81011095839E+02 -0.19097477728E+02  0.49770438881E+02  0.15827860244E+03  0.12509000000E+03 0.  0.
         25    1    3    3    0    0  0.72424778193E+02  0.18251297098E+02  0.19963708956E+03  0.24714557243E+03  0.12509000000E+03 0.  0.
<mgrwt>
<rscale>  2 0.45408734E+03</rscale>
<asrwt>0</asrwt>
<pdfrwt beam="1">  1       21 0.60225705E-01 0.45408734E+03</pdfrwt>
<pdfrwt beam="2">  1       21 0.18510539E-01 0.45408734E+03</pdfrwt>
<totfact> 0.63297284E+04</totfact>
</mgrwt>
</event>
<event>
 6    0  0.1572624E-007  0.4566532E+03  0.7546771E-02  0.1025756E+00
         21   -1    0    0  502  501  0.00000000000E+00  0.00000000000E+00  0.90177724803E+03  0.90177724803E+03  0.00000000000E+00 0. -1.
         21   -1    0    0  501  502 -0.00000000000E+00 -0.00000000000E+00 -0.57811429743E+02  0.57811429743E+02  0.00000000000E+00 0. -1.
      99926    2    1    2    0    0 -0.71054273576E-14  0.00000000000E+00  0.84396581829E+03  0.95958867777E+03  0.45665318139E+03 0.  0.
         25    1    3    3    0    0 -0.50332095153E+02 -0.47849148596E+02  0.45998721257E+03  0.48172461495E+03  0.12509000000E+03 0.  0.
         25    1    3    3    0    0 -0.23488585825E+02  0.35752942737E+02  0.13232029152E+03  0.18704586129E+03  0.12509000000E+03 0.  0.
         25    1    3    3    0    0  0.73820680978E+02  0.12096205859E+02  0.25165831420E+03  0.29081820153E+03  0.12509000000E+03 0.  0.
<mgrwt>
<rscale>  2 0.45665318E+03</rscale>
<asrwt>0</asrwt>
<pdfrwt beam="1">  1       21 0.13261429E+00 0.45665318E+03</pdfrwt>
<pdfrwt beam="2">  1       21 0.85016814E-02 0.45665318E+03</pdfrwt>
<totfact> 0.40232408E+04</totfact>
</mgrwt>
</event>
<event>
 6    0  0.1572624E-007  0.4800499E+03  0.7546771E-02  0.1019121E+00
         21   -1    0    0  502  501  0.00000000000E+00  0.00000000000E+00  0.17860306370E+03  0.17860306370E+03  0.00000000000E+00 0. -1.
         21   -1    0    0  501  502 -0.00000000000E+00 -0.00000000000E+00 -0.32256989444E+03  0.32256989444E+03  0.00000000000E+00 0. -1.
      99926    2    1    2    0    0 -0.14210854715E-13  0.71054273576E-14 -0.14396683074E+03  0.50117295814E+03  0.48004987826E+03 0.  0.
         25    1    3    3    0    0  0.76970378034E+02 -0.60229878544E+01 -0.32069612952E+02  0.15045492233E+03  0.12509000000E+03 0.  0.
         25    1    3    3    0    0  0.32973631650E+02  0.64851155042E+02 -0.95400851043E+02  0.17332559873E+03  0.12509000000E+03 0.  0.
         25    1    3    3    0    0 -0.10994400968E+03 -0.58828167188E+02 -0.16496366745E+02  0.17739243709E+03  0.12509000000E+03 0.  0.
<mgrwt>
<rscale>  2 0.48004988E+03</rscale>
<asrwt>0</asrwt>
<pdfrwt beam="1">  1       21 0.26265156E-01 0.48004988E+03</pdfrwt>
<pdfrwt beam="2">  1       21 0.47436750E-01 0.48004988E+03</pdfrwt>
<totfact> 0.53691024E+04</totfact>
</mgrwt>
</event>
<event>
 6    0  0.1572624E-007  0.4629133E+03  0.7546771E-02  0.1023940E+00
         21   -1    0    0  502  501  0.00000000000E+00  0.00000000000E+00  0.27308304357E+03  0.27308304357E+03  0.00000000000E+00 0.  1.
         21   -1    0    0  501  502 -0.00000000000E+00 -0.00000000000E+00 -0.19617541921E+03  0.19617541921E+03  0.00000000000E+00 0.  1.
      99926    2    1    2    0    0  0.00000000000E+00  0.00000000000E+00  0.76907624361E+02  0.46925846278E+03  0.46291329880E+03 0.  0.
         25    1    3    3    0    0 -0.39560171410E+02 -0.93047719210E+02  0.39659589120E+02  0.16566012291E+03  0.12509000000E+03 0.  0.
         25    1    3    3    0    0  0.56486339460E+02  0.10734961501E+03  0.19825570787E+02  0.17537162754E+03  0.12509000000E+03 0.  0.
         25    1    3    3    0    0 -0.16926168049E+02 -0.14301895800E+02  0.17422464454E+02  0.12822671233E+03  0.12509000000E+03 0.  0.
<mgrwt>
<rscale>  2 0.46291330E+03</rscale>
<asrwt>0</asrwt>
<pdfrwt beam="1">  1       21 0.40159271E-01 0.46291330E+03</pdfrwt>
<pdfrwt beam="2">  1       21 0.28849326E-01 0.46291330E+03</pdfrwt>
<totfact> 0.63411362E+04</totfact>
</mgrwt>
</event>
<event>
 6    0  0.1572624E-007  0.4528365E+03  0.7546771E-02  0.1026880E+00
         21   -1    0    0  502  501  0.00000000000E+00  0.00000000000E+00  0.80660825945E+03  0.80660825945E+03  0.00000000000E+00 0. -1.
         21   -1    0    0  501  502 -0.00000000000E+00 -0.00000000000E+00 -0.63556532205E+02  0.63556532205E+02  0.00000000000E+00 0. -1.
      99926    2    1    2    0    0  0.14210854715E-13  0.35527136788E-14  0.74305172725E+03  0.87016479166E+03  0.45283649950E+03 0.  0.
         25    1    3    3    0    0 -0.10695940968E+03 -0.24562734607E+02  0.24629508422E+03  0.29724134951E+03  0.12509000000E+03 0.  0.
         25    1    3    3    0    0  0.16923893440E+02  0.36471595839E+01  0.26847547439E+03  0.29669227895E+03  0.12509000000E+03 0.  0.
         25    1    3    3    0    0  0.90035516237E+02  0.20915575023E+02  0.22828116865E+03  0.27623116320E+03  0.12509000000E+03 0.  0.
<mgrwt>
<rscale>  2 0.45283650E+03</rscale>
<asrwt>0</asrwt>
<pdfrwt beam="1">  1       21 0.11861886E+00 0.45283650E+03</pdfrwt>
<pdfrwt beam="2">  1       21 0.93465493E-02 0.45283650E+03</pdfrwt>
<totfact> 0.45311854E+04</totfact>
</mgrwt>
</event>
<event>
 6    0  0.1572624E-007  0.4543491E+03  0.7546771E-02  0.1026433E+00
         21   -1    0    0  502  501  0.00000000000E+00  0.00000000000E+00  0.13884836881E+03  0.13884836881E+03  0.00000000000E+00 0. -1.
         21   -1    0    0  501  502 -0.00000000000E+00 -0.00000000000E+00 -0.37168810361E+03  0.37168810361E+03  0.00000000000E+00 0. -1.
      99926    2    1    2    0    0  0.00000000000E+00 -0.35527136788E-14 -0.23283973479E+03  0.51053647242E+03  0.45434914721E+03 0.  0.
         25    1    3    3    0    0 -0.37783167132E+02 -0.44927594389E+02 -0.15887630660E+03  0.21055936302E+03  0.12509000000E+03 0.  0.
         25    1    3    3    0    0 -0.48312177383E+02  0.21566218004E+02 -0.20823875891E+02  0.13740564089E+03  0.12509000000E+03 0.  0.
         25    1    3    3    0    0  0.86095344515E+02  0.23361376385E+02 -0.53139552301E+02  0.16257146851E+03  0.12509000000E+03 0.  0.
<mgrwt>
<rscale>  2 0.45434915E+03</rscale>
<asrwt>0</asrwt>
<pdfrwt beam="1">  1       21 0.20418878E-01 0.45434915E+03</pdfrwt>
<pdfrwt beam="2">  1       21 0.54660013E-01 0.45434915E+03</pdfrwt>
<totfact> 0.64871027E+04</totfact>
</mgrwt>
</event>
<event>
 6    0  0.1572624E-007  0.4276363E+03  0.7546771E-02  0.1034609E+00
         21   -1    0    0  502  501  0.00000000000E+00  0.00000000000E+00  0.10303481189E+03  0.10303481189E+03  0.00000000000E+00 0.  1.
         21   -1    0    0  501  502 -0.00000000000E+00 -0.00000000000E+00 -0.44371606201E+03  0.44371606201E+03  0.00000000000E+00 0.  1.
      99926    2    1    2    0    0  0.00000000000E+00  0.00000000000E+00 -0.34068125011E+03  0.54675087390E+03  0.42763629866E+03 0.  0.
         25    1    3    3    0    0 -0.52603313214E+02  0.14264420644E+02 -0.43029790989E+02  0.14307219601E+03  0.12509000000E+03 0.  0.
         25    1    3    3    0    0  0.11510224725E+02 -0.26885625901E+02 -0.20594579325E+03  0.24272721317E+03  0.12509000000E+03 0.  0.
         25    1    3    3    0    0  0.41093088490E+02  0.12621205257E+02 -0.91705665869E+02  0.16095146472E+03  0.12509000000E+03 0.  0.
<mgrwt>
<rscale>  2 0.42763630E+03</rscale>
<asrwt>0</asrwt>
<pdfrwt beam="1">  1       21 0.15152178E-01 0.42763630E+03</pdfrwt>
<pdfrwt beam="2">  1       21 0.65252361E-01 0.42763630E+03</pdfrwt>
<totfact> 0.77559007E+04</totfact>
</mgrwt>
</event>
<event>
 6    0  0.1572624E-007  0.4532516E+03  0.7546771E-02  0.1026757E+00
         21   -1    0    0  502  501  0.00000000000E+00  0.00000000000E+00  0.24607952409E+03  0.24607952409E+03  0.00000000000E+00 0.  1.
         21   -1    0    0  501  502 -0.00000000000E+00 -0.00000000000E+00 -0.20870996460E+03  0.20870996460E+03  0.00000000000E+00 0.  1.
      99926    2    1    2    0    0  0.00000000000E+00  0.17763568394E-14  0.37369559489E+02  0.45478948869E+03  0.45325158031E+03 0.  0.
         25    1    3    3    0    0  0.11159689085E+03 -0.18266989754E+02  0.23029564857E+02  0.17019229689E+03  0.12509000000E+03 0.  0.
         25    1    3    3    0    0 -0.91645440244E+02  0.78819170688E+01 -0.83415253859E+01  0.15549308821E+03  0.12509000000E+03 0.  0.
         25    1    3    3    0    0 -0.19951450606E+02  0.10385072685E+02  0.22681520018E+02  0.12910410360E+03  0.12509000000E+03 0.  0.
<mgrwt>
<rscale>  2 0.45325158E+03</rscale>
<asrwt>0</asrwt>
<pdfrwt beam="1">  1       21 0.36188166E-01 0.45325158E+03</pdfrwt>
<pdfrwt beam="2">  1       21 0.30692642E-01 0.45325158E+03</pdfrwt>
<totfact> 0.69526092E+04</totfact>
</mgrwt>
</event>
<event>
 6    0  0.1572624E-007  0.4527196E+03  0.7546771E-02  0.1026914E+00
         21   -1    0    0  502  501  0.00000000000E+00  0.00000000000E+00  0.28667727297E+02  0.28667727297E+02  0.00000000000E+00 0. -1.
         21   -1    0    0  501  502 -0.00000000000E+00 -0.00000000000E+00 -0.17873321112E+04  0.17873321112E+04  0.00000000000E+00 0. -1.
      99926    2    1    2    0    0 -0.14210854715E-13 -0.88817841970E-15 -0.17586643839E+04  0.18159998385E+04  0.45271955801E+03 0.  0.
         25    1    3    3    0    0  0.86275503409E+02  0.63601645860E+01 -0.76204634946E+03  0.77707532518E+03  0.12509000000E+03 0.  0.
         25    1    3    3    0    0  0.35094072470E+01 -0.11912074860E+02 -0.29638651064E+03  0.32194205263E+03  0.12509000000E+03 0.  0.
         25    1    3    3    0    0 -0.89784910656E+02  0.55519102736E+01 -0.70023152378E+03  0.71698246065E+03  0.12509000000E+03 0.  0.
<mgrwt>
<rscale>  2 0.45271956E+03</rscale>
<asrwt>0</asrwt>
<pdfrwt beam="1">  1       21 0.42158437E-02 0.45271956E+03</pdfrwt>
<pdfrwt beam="2">  1       21 0.26284286E+00 0.45271956E+03</pdfrwt>
<totfact> 0.17257550E+04</totfact>
</mgrwt>
</event>
<event>
 6    0  0.1572624E-007  0.4590660E+03  0.7546771E-02  0.1025052E+00
         21   -1    0    0  502  501  0.00000000000E+00  0.00000000000E+00  0.11887418498E+04  0.11887418498E+04  0.00000000000E+00 0.  1.
         21   -1    0    0  501  502 -0.00000000000E+00 -0.00000000000E+00 -0.44320309728E+02  0.44320309728E+02  0.00000000000E+00 0.  1.
      99926    2    1    2    0    0  0.00000000000E+00  0.71054273576E-14  0.11444215401E+04  0.12330621595E+04  0.45906603869E+03 0.  0.
         25    1    3    3    0    0 -0.12655835463E+02 -0.32283894765E+02  0.43077232537E+03  0.44990523940E+03  0.12509000000E+03 0.  0.
         25    1    3    3    0    0 -0.51526168361E+02 -0.20045234864E+02  0.16470974090E+03  0.21408774910E+03  0.12509000000E+03 0.  0.
         25    1    3    3    0    0  0.64182003824E+02  0.52329129629E+02  0.54893947379E+03  0.56906917102E+03  0.12509000000E+03 0.  0.
<mgrwt>
<rscale>  2 0.45906604E+03</rscale>
<asrwt>0</asrwt>
<pdfrwt beam="1">  1       21 0.17481496E+00 0.45906604E+03</pdfrwt>
<pdfrwt beam="2">  1       21 0.65176934E-02 0.45906604E+03</pdfrwt>
<totfact> 0.30156338E+04</totfact>
</mgrwt>
</event>
<event>
 6    0  0.1572624E-007  0.4551458E+03  0.7546771E-02  0.1026199E+00
         21   -1    0    0  502  501  0.00000000000E+00  0.00000000000E+00  0.92744351716E+03  0.92744351716E+03  0.00000000000E+00 0. -1.
         21   -1    0    0  501  502 -0.00000000000E+00 -0.00000000000E+00 -0.55841057494E+02  0.55841057494E+02  0.00000000000E+00 0. -1.
      99926    2    1    2    0    0  0.17763568394E-14 -0.71054273576E-14  0.87160245966E+03  0.98328457465E+03  0.45514580857E+03 0.  0.
         25    1    3    3    0    0  0.98808583930E+02  0.36361214069E+02  0.32902924822E+03  0.36741397419E+03  0.12509000000E+03 0.  0.
         25    1    3    3    0    0 -0.93176796476E+02  0.13591558722E+02  0.28876104434E+03  0.32847693176E+03  0.12509000000E+03 0.  0.
         25    1    3    3    0    0 -0.56317874532E+01 -0.49952772791E+02  0.25381216710E+03  0.28739366869E+03  0.12509000000E+03 0.  0.
<mgrwt>
<rscale>  2 0.45514581E+03</rscale>
<asrwt>0</asrwt>
<pdfrwt beam="1">  1       21 0.13638874E+00 0.45514581E+03</pdfrwt>
<pdfrwt beam="2">  1       21 0.82119208E-02 0.45514581E+03</pdfrwt>
<totfact> 0.39776018E+04</totfact>
</mgrwt>
</event>
<event>
 6    0  0.1572624E-007  0.4622234E+03  0.7546771E-02  0.1024138E+00
         21   -1    0    0  502  501  0.00000000000E+00  0.00000000000E+00  0.52195756230E+02  0.52195756230E+02  0.00000000000E+00 0. -1.
         21   -1    0    0  501  502 -0.00000000000E+00 -0.00000000000E+00 -0.10233132277E+04  0.10233132277E+04  0.00000000000E+00 0. -1.
      99926    2    1    2    0    0 -0.14210854715E-13  0.00000000000E+00 -0.97111747150E+03  0.10755089840E+04  0.46222335632E+03 0.  0.
         25    1    3    3    0    0 -0.40248084367E+02  0.25106536484E+02 -0.24130025178E+03  0.27590499466E+03  0.12509000000E+03 0.  0.
         25    1    3    3    0    0  0.10519412430E+03 -0.62209015401E+02 -0.47327018607E+03  0.50454726489E+03  0.12509000000E+03 0.  0.
         25    1    3    3    0    0 -0.64946039935E+02  0.37102478917E+02 -0.25654703365E+03  0.29505672441E+03  0.12509000000E+03 0.  0.
<mgrwt>
<rscale>  2 0.46222336E+03</rscale>
<asrwt>0</asrwt>
<pdfrwt beam="1">  1       21 0.76758475E-02 0.46222336E+03</pdfrwt>
<pdfrwt beam="2">  1       21 0.15048722E+00 0.46222336E+03</pdfrwt>
<totfact> 0.34376201E+04</totfact>
</mgrwt>
</event>
<event>
 6    0  0.1572624E-007  0.4601108E+03  0.7546771E-02  0.1024749E+00
         21   -1    0    0  502  501  0.00000000000E+00  0.00000000000E+00  0.21916598658E+03  0.21916598658E+03  0.00000000000E+00 0.  1.
         21   -1    0    0  501  502 -0.00000000000E+00 -0.00000000000E+00 -0.24148586391E+03  0.24148586391E+03  0.00000000000E+00 0.  1.
      99926    2    1    2    0    0  0.00000000000E+00  0.14210854715E-13 -0.22319877336E+02  0.46065185049E+03  0.46011080235E+03 0.  0.
         25    1    3    3    0    0  0.30785215173E+02 -0.11712595652E+03 -0.43162954387E+02  0.17937883904E+03  0.12509000000E+03 0.  0.
         25    1    3    3    0    0 -0.13628163763E+02  0.78682454609E+02  0.70948470282E+01  0.14857489850E+03  0.12509000000E+03 0.  0.
         25    1    3    3    0    0 -0.17157051410E+02  0.38443501909E+02  0.13748230023E+02  0.13269811295E+03  0.12509000000E+03 0.  0.
<mgrwt>
<rscale>  2 0.46011080E+03</rscale>
<asrwt>0</asrwt>
<pdfrwt beam="1">  1       21 0.32230292E-01 0.46011080E+03</pdfrwt>
<pdfrwt beam="2">  1       21 0.35512627E-01 0.46011080E+03</pdfrwt>
<totfact> 0.65424835E+04</totfact>
</mgrwt>
</event>
<event>
 6    0  0.1572624E-007  0.4554744E+03  0.7546771E-02  0.1026102E+00
         21   -1    0    0  502  501  0.00000000000E+00  0.00000000000E+00  0.15690199119E+03  0.15690199119E+03  0.00000000000E+00 0.  1.
         21   -1    0    0  501  502 -0.00000000000E+00 -0.00000000000E+00 -0.33055181310E+03  0.33055181310E+03  0.00000000000E+00 0.  1.
      99926    2    1    2    0    0 -0.79936057773E-14  0.00000000000E+00 -0.17364982191E+03  0.48745380429E+03  0.45547442372E+03 0.  0.
         25    1    3    3    0    0  0.68974996150E+02 -0.31634413946E+02 -0.60829411816E+02  0.15844876674E+03  0.12509000000E+03 0.  0.
         25    1    3    3    0    0  0.71163033278E+01  0.78964101800E+02 -0.90388146113E+02  0.17350359133E+03  0.12509000000E+03 0.  0.
         25    1    3    3    0    0 -0.76091299478E+02 -0.47329687853E+02 -0.22432263983E+02  0.15550144622E+03  0.12509000000E+03 0.  0.
<mgrwt>
<rscale>  2 0.45547442E+03</rscale>
<asrwt>0</asrwt>
<pdfrwt beam="1">  1       21 0.23073823E-01 0.45547442E+03</pdfrwt>
<pdfrwt beam="2">  1       21 0.48610560E-01 0.45547442E+03</pdfrwt>
<totfact> 0.65912799E+04</totfact>
</mgrwt>
</event>
<event>
 6    0  0.1572624E-007  0.4557570E+03  0.7546771E-02  0.1026019E+00
         21   -1    0    0  502  501  0.00000000000E+00  0.00000000000E+00  0.14646729171E+03  0.14646729171E+03  0.00000000000E+00 0.  1.
         21   -1    0    0  501  502 -0.00000000000E+00 -0.00000000000E+00 -0.35454068025E+03  0.35454068025E+03  0.00000000000E+00 0.  1.
      99926    2    1    2    0    0  0.00000000000E+00  0.00000000000E+00 -0.20807338854E+03  0.50100797196E+03  0.45575701087E+03 0.  0.
         25    1    3    3    0    0 -0.11653971083E+02  0.24471001201E+02 -0.16605335732E+03  0.20965655373E+03  0.12509000000E+03 0.  0.
         25    1    3    3    0    0 -0.10348239905E+01 -0.70121929991E+02  0.18386645138E+02  0.14458123234E+03  0.12509000000E+03 0.  0.
         25    1    3    3    0    0  0.12688795073E+02  0.45650928790E+02 -0.60406676352E+02  0.14677018589E+03  0.12509000000E+03 0.  0.
<mgrwt>
<rscale>  2 0.45575701E+03</rscale>
<asrwt>0</asrwt>
<pdfrwt beam="1">  1       21 0.21539308E-01 0.45575701E+03</pdfrwt>
<pdfrwt beam="2">  1       21 0.52138334E-01 0.45575701E+03</pdfrwt>
<totfact> 0.64809581E+04</totfact>
</mgrwt>
</event>
<event>
 6    0  0.1572624E-007  0.4548152E+03  0.7546771E-02  0.1026296E+00
         21   -1    0    0  502  501  0.00000000000E+00  0.00000000000E+00  0.14947143137E+03  0.14947143137E+03  0.00000000000E+00 0.  1.
         21   -1    0    0  501  502 -0.00000000000E+00 -0.00000000000E+00 -0.34598062947E+03  0.34598062947E+03  0.00000000000E+00 0.  1.
      99926    2    1    2    0    0  0.00000000000E+00  0.71054273576E-14 -0.19650919810E+03  0.49545206085E+03  0.45481521485E+03 0.  0.
         25    1    3    3    0    0  0.40504667991E+02  0.45716947333E+02 -0.43867108194E+01  0.13927461626E+03  0.12509000000E+03 0.  0.
         25    1    3    3    0    0 -0.20058127433E+02  0.53717483890E+02 -0.72607548141E+02  0.15558682688E+03  0.12509000000E+03 0.  0.
         25    1    3    3    0    0 -0.20446540558E+02 -0.99434431223E+02 -0.11951493914E+03  0.20059061771E+03  0.12509000000E+03 0.  0.
<mgrwt>
<rscale>  2 0.45481521E+03</rscale>
<asrwt>0</asrwt>
<pdfrwt beam="1">  1       21 0.21981093E-01 0.45481521E+03</pdfrwt>
<pdfrwt beam="2">  1       21 0.50879503E-01 0.45481521E+03</pdfrwt>
<totfact> 0.65687664E+04</totfact>
</mgrwt>
</event>
<event>
 6    0  0.1572624E-007  0.4655283E+03  0.7546771E-02  0.1023190E+00
         21   -1    0    0  502  501  0.00000000000E+00  0.00000000000E+00  0.31536704584E+03  0.31536704584E+03  0.00000000000E+00 0. -1.
         21   -1    0    0  501  502 -0.00000000000E+00 -0.00000000000E+00 -0.17179714915E+03  0.17179714915E+03  0.00000000000E+00 0. -1.
      99926    2    1    2    0    0  0.00000000000E+00  0.00000000000E+00  0.14356989669E+03  0.48716419499E+03  0.46552834247E+03 0.  0.
         25    1    3    3    0    0 -0.19082473757E+02  0.41376843250E+02  0.10464602619E+03  0.16933541525E+03  0.12509000000E+03 0.  0.
         25    1    3    3    0    0 -0.13952365947E+02 -0.62895833935E+02  0.10052600720E+03  0.17292640246E+03  0.12509000000E+03 0.  0.
         25    1    3    3    0    0  0.33034839704E+02  0.21518990684E+02 -0.61602136702E+02  0.14490237728E+03  0.12509000000E+03 0.  0.
<mgrwt>
<rscale>  2 0.46552834E+03</rscale>
<asrwt>0</asrwt>
<pdfrwt beam="1">  1       21 0.46377507E-01 0.46552834E+03</pdfrwt>
<pdfrwt beam="2">  1       21 0.25264287E-01 0.46552834E+03</pdfrwt>
<totfact> 0.60928928E+04</totfact>
</mgrwt>
</event>
<event>
 6    0  0.1572624E-007  0.4531293E+03  0.7546771E-02  0.1026793E+00
         21   -1    0    0  502  501  0.00000000000E+00  0.00000000000E+00  0.56828703109E+02  0.56828703109E+02  0.00000000000E+00 0. -1.
         21   -1    0    0  501  502 -0.00000000000E+00 -0.00000000000E+00 -0.90326793859E+03  0.90326793859E+03  0.00000000000E+00 0. -1.
      99926    2    1    2    0    0  0.71054273576E-14  0.17763568394E-14 -0.84643923548E+03  0.96009664170E+03  0.45312932154E+03 0.  0.
         25    1    3    3    0    0  0.30691603765E+02  0.38737077200E+02 -0.16459888054E+03  0.21256254437E+03  0.12509000000E+03 0.  0.
         25    1    3    3    0    0  0.40712136483E+02 -0.12601316186E+02 -0.48216641474E+03  0.49994822815E+03  0.12509000000E+03 0.  0.
         25    1    3    3    0    0 -0.71403740248E+02 -0.26135761014E+02 -0.19967394020E+03  0.24758586919E+03  0.12509000000E+03 0.  0.
<mgrwt>
<rscale>  2 0.45312932E+03</rscale>
<asrwt>0</asrwt>
<pdfrwt beam="1">  1       21 0.83571619E-02 0.45312932E+03</pdfrwt>
<pdfrwt beam="2">  1       21 0.13283352E+00 0.45312932E+03</pdfrwt>
<totfact> 0.41335971E+04</totfact>
</mgrwt>
</event>
<event>
 6    0  0.1572624E-007  0.4539955E+03  0.7546771E-02  0.1026537E+00
         21   -1    0    0  502  501  0.00000000000E+00  0.00000000000E+00  0.11729970722E+04  0.11729970722E+04  0.00000000000E+00 0.  1.
         21   -1    0    0  501  502 -0.00000000000E+00 -0.00000000000E+00 -0.43928476739E+02  0.43928476739E+02  0.00000000000E+00 0.  1.
      99926    2    1    2    0    0  0.00000000000E+00  0.00000000000E+00  0.11290685954E+04  0.12169255489E+04  0.45399548280E+03 0.  0.
         25    1    3    3    0    0  0.22786655029E+02 -0.64107475361E+02  0.56501257469E+03  0.58267977286E+03  0.12509000000E+03 0.  0.
         25    1    3    3    0    0  0.19939380280E+02  0.88663584908E+02  0.27598095366E+03  0.31634127941E+03  0.12509000000E+03 0.  0.
         25    1    3    3    0    0 -0.42726035310E+02 -0.24556109547E+02  0.28807506707E+03  0.31790449663E+03  0.12509000000E+03 0.  0.
<mgrwt>
<rscale>  2 0.45399548E+03</rscale>
<asrwt>0</asrwt>
<pdfrwt beam="1">  1       21 0.17249955E+00 0.45399548E+03</pdfrwt>
<pdfrwt beam="2">  1       21 0.64600709E-02 0.45399548E+03</pdfrwt>
<totfact> 0.31872693E+04</totfact>
</mgrwt>
</event>
<event>
 6    0  0.1572624E-007  0.4344935E+03  0.7546771E-02  0.1032450E+00
         21   -1    0    0  502  501  0.00000000000E+00  0.00000000000E+00  0.25863446186E+03  0.25863446186E+03  0.00000000000E+00 0. -1.
         21   -1    0    0  501  502 -0.00000000000E+00 -0.00000000000E+00 -0.18248209475E+03  0.18248209475E+03  0.00000000000E+00 0. -1.
      99926    2    1    2    0    0 -0.35527136788E-14  0.35527136788E-14  0.76152367104E+02  0.44111655661E+03  0.43449353678E+03 0.  0.
         25    1    3    3    0    0 -0.56845242338E+02  0.73142845575E+02 -0.11857416918E+02  0.15610689886E+03  0.12509000000E+03 0.  0.
         25    1    3    3    0    0  0.20244594951E+02 -0.31330010580E+02  0.66352684858E+02  0.14642950548E+03  0.12509000000E+03 0.  0.
         25    1    3    3    0    0  0.36600647387E+02 -0.41812834995E+02  0.21657099164E+02  0.13858015227E+03  0.12509000000E+03 0.  0.
<mgrwt>
<rscale>  2 0.43449354E+03</rscale>
<asrwt>0</asrwt>
<pdfrwt beam="1">  1       21 0.38034480E-01 0.43449354E+03</pdfrwt>
<pdfrwt beam="2">  1       21 0.26835602E-01 0.43449354E+03</pdfrwt>
<totfact> 0.82222511E+04</totfact>
</mgrwt>
</event>
<event>
 6    0  0.1572624E-007  0.4463267E+03  0.7546771E-02  0.1028823E+00
         21   -1    0    0  502  501  0.00000000000E+00  0.00000000000E+00  0.76846838290E+02  0.76846838290E+02  0.00000000000E+00 0. -1.
         21   -1    0    0  501  502 -0.00000000000E+00 -0.00000000000E+00 -0.64806674692E+03  0.64806674692E+03  0.00000000000E+00 0. -1.
      99926    2    1    2    0    0 -0.35527136788E-14  0.71054273576E-14 -0.57121990863E+03  0.72491358521E+03  0.44632669874E+03 0.  0.
         25    1    3    3    0    0  0.25384073987E+02 -0.34555601263E+01 -0.27474490898E+03  0.30296627736E+03  0.12509000000E+03 0.  0.
         25    1    3    3    0    0 -0.22912139848E+02 -0.63715655021E+02 -0.80412141879E+02  0.16339605720E+03  0.12509000000E+03 0.  0.
         25    1    3    3    0    0 -0.24719341389E+01  0.67171215147E+02 -0.21606285777E+03  0.25855125064E+03  0.12509000000E+03 0.  0.
<mgrwt>
<rscale>  2 0.44632670E+03</rscale>
<asrwt>0</asrwt>
<pdfrwt beam="1">  1       21 0.11301005E-01 0.44632670E+03</pdfrwt>
<pdfrwt beam="2">  1       21 0.95303940E-01 0.44632670E+03</pdfrwt>
<totfact> 0.55244049E+04</totfact>
</mgrwt>
</event>
<event>
 6    0  0.1572624E-007  0.4768920E+03  0.7546771E-02  0.1019993E+00
         21   -1    0    0  502  501  0.00000000000E+00  0.00000000000E+00  0.10644505042E+04  0.10644505042E+04  0.00000000000E+00 0. -1.
         21   -1    0    0  501  502 -0.00000000000E+00 -0.00000000000E+00 -0.53413928927E+02  0.53413928927E+02  0.00000000000E+00 0. -1.
      99926    2    1    2    0    0 -0.17763568394E-14 -0.35527136788E-14  0.10110365753E+04  0.11178644332E+04  0.47689195246E+03 0.  0.
         25    1    3    3    0    0 -0.87245408077E+02 -0.58425473658E+02  0.59999873254E+03  0.62182898320E+03  0.12509000000E+03 0.  0.
         25    1    3    3    0    0  0.15651714039E+02  0.15885201362E+02  0.20038531723E+03  0.23727431221E+03  0.12509000000E+03 0.  0.
         25    1    3    3    0    0  0.71593694038E+02  0.42540272296E+02  0.21065252556E+03  0.25876113776E+03  0.12509000000E+03 0.  0.
<mgrwt>
<rscale>  2 0.47689195E+03</rscale>
<asrwt>0</asrwt>
<pdfrwt beam="1">  1       21 0.15653683E+00 0.47689195E+03</pdfrwt>
<pdfrwt beam="2">  1       21 0.78549902E-02 0.47689195E+03</pdfrwt>
<totfact> 0.29506386E+04</totfact>
</mgrwt>
</event>
<event>
 6    0  0.1572624E-007  0.4783526E+03  0.7546771E-02  0.1019589E+00
         21   -1    0    0  502  501  0.00000000000E+00  0.00000000000E+00  0.15615799581E+03  0.15615799581E+03  0.00000000000E+00 0. -1.
         21   -1    0    0  501  502 -0.00000000000E+00 -0.00000000000E+00 -0.36632970131E+03  0.36632970131E+03  0.00000000000E+00 0. -1.
      99926    2    1    2    0    0  0.00000000000E+00  0.00000000000E+00 -0.21017170550E+03  0.52248769713E+03  0.47835263965E+03 0.  0.
         25    1    3    3    0    0 -0.94222571830E+02  0.10855023383E+02 -0.32383086773E+02  0.16028692081E+03  0.12509000000E+03 0.  0.
         25    1    3    3    0    0  0.73359576434E+02  0.74169492666E+02 -0.92048573950E+02  0.18709139254E+03  0.12509000000E+03 0.  0.
         25    1    3    3    0    0  0.20862995396E+02 -0.85024516050E+02 -0.85740044777E+02  0.17510938377E+03  0.12509000000E+03 0.  0.
<mgrwt>
<rscale>  2 0.47835264E+03</rscale>
<asrwt>0</asrwt>
<pdfrwt beam="1">  1       21 0.22964411E-01 0.47835264E+03</pdfrwt>
<pdfrwt beam="2">  1       21 0.53872015E-01 0.47835264E+03</pdfrwt>
<totfact> 0.53160950E+04</totfact>
</mgrwt>
</event>
<event>
 6    0  0.1572624E-007  0.4651867E+03  0.7546771E-02  0.1023288E+00
         21   -1    0    0  502  501  0.00000000000E+00  0.00000000000E+00  0.42848537137E+02  0.42848537137E+02  0.00000000000E+00 0.  1.
         21   -1    0    0  501  502 -0.00000000000E+00 -0.00000000000E+00 -0.12625792848E+04  0.12625792848E+04  0.00000000000E+00 0.  1.
      99926    2    1    2    0    0  0.14210854715E-13  0.14210854715E-13 -0.12197307477E+04  0.13054278219E+04  0.46518673830E+03 0.  0.
         25    1    3    3    0    0 -0.84077698008E+02 -0.68255409150E+02 -0.62555603013E+03  0.64706700975E+03  0.12509000000E+03 0.  0.
         25    1    3    3    0    0  0.62338693364E+02  0.63874615024E+02 -0.37092046316E+03  0.40149169011E+03  0.12509000000E+03 0.  0.
         25    1    3    3    0    0  0.21739004644E+02  0.43807941253E+01 -0.22325425437E+03  0.25686912207E+03  0.12509000000E+03 0.  0.
<mgrwt>
<rscale>  2 0.46518674E+03</rscale>
<asrwt>0</asrwt>
<pdfrwt beam="1">  1       21 0.63012546E-02 0.46518674E+03</pdfrwt>
<pdfrwt beam="2">  1       21 0.18567345E+00 0.46518674E+03</pdfrwt>
<totfact> 0.26772157E+04</totfact>
</mgrwt>
</event>
<event>
 6    0  0.1572624E-007  0.4588789E+03  0.7546771E-02  0.1025107E+00
         21   -1    0    0  502  501  0.00000000000E+00  0.00000000000E+00  0.85681091260E+02  0.85681091260E+02  0.00000000000E+00 0.  1.
         21   -1    0    0  501  502 -0.00000000000E+00 -0.00000000000E+00 -0.61440010125E+03  0.61440010125E+03  0.00000000000E+00 0.  1.
      99926    2    1    2    0    0  0.00000000000E+00  0.71054273576E-14 -0.52871900999E+03  0.70008119251E+03  0.45887894327E+03 0.  0.
         25    1    3    3    0    0 -0.20772572903E+02  0.49675587170E+02 -0.99850223242E+02  0.16886899931E+03  0.12509000000E+03 0.  0.
         25    1    3    3    0    0  0.79181387949E+01 -0.34778735872E+02 -0.63947111839E+02  0.14494481227E+03  0.12509000000E+03 0.  0.
         25    1    3    3    0    0  0.12854434108E+02 -0.14896851297E+02 -0.36492167491E+03  0.38626738093E+03  0.12509000000E+03 0.  0.
<mgrwt>
<rscale>  2 0.45887894E+03</rscale>
<asrwt>0</asrwt>
<pdfrwt beam="1">  1       21 0.12600160E-01 0.45887894E+03</pdfrwt>
<pdfrwt beam="2">  1       21 0.90352961E-01 0.45887894E+03</pdfrwt>
<totfact> 0.51314059E+04</totfact>
</mgrwt>
</event>
<event>
 6    0  0.1572624E-007  0.4458162E+03  0.7546771E-02  0.1028977E+00
         21   -1    0    0  502  501  0.00000000000E+00  0.00000000000E+00  0.29736454068E+02  0.29736454068E+02  0.00000000000E+00 0. -1.
         21   -1    0    0  501  502 -0.00000000000E+00 -0.00000000000E+00 -0.16709462117E+04  0.16709462117E+04  0.00000000000E+00 0. -1.
      99926    2    1    2    0    0  0.00000000000E+00  0.00000000000E+00 -0.16412097576E+04  0.17006826658E+04  0.44581617411E+03 0.  0.
         25    1    3    3    0    0  0.44831499287E+02  0.85706763924E+02 -0.56814115778E+03  0.58973502183E+03  0.12509000000E+03 0.  0.
         25    1    3    3    0    0  0.11232068904E+02 -0.63055916900E+02 -0.40810219330E+03  0.43162149657E+03  0.12509000000E+03 0.  0.
         25    1    3    3    0    0 -0.56063568191E+02 -0.22650847025E+02 -0.66496640656E+03  0.67932614737E+03  0.12509000000E+03 0.  0.
<mgrwt>
<rscale>  2 0.44581617E+03</rscale>
<asrwt>0</asrwt>
<pdfrwt beam="1">  1       21 0.43730079E-02 0.44581617E+03</pdfrwt>
<pdfrwt beam="2">  1       21 0.24572739E+00 0.44581617E+03</pdfrwt>
<totfact> 0.20683454E+04</totfact>
</mgrwt>
</event>
<event>
 6    0  0.1572624E-007  0.4509549E+03  0.7546771E-02  0.1027438E+00
         21   -1    0    0  502  501  0.00000000000E+00  0.00000000000E+00  0.63226238273E+02  0.63226238273E+02  0.00000000000E+00 0.  1.
         21   -1    0    0  501  502 -0.00000000000E+00 -0.00000000000E+00 -0.80409792405E+03  0.80409792405E+03  0.00000000000E+00 0.  1.
      99926    2    1    2    0    0 -0.71054273576E-14  0.00000000000E+00 -0.74087168578E+03  0.86732416232E+03  0.45095492875E+03 0.  0.
         25    1    3    3    0    0 -0.44490219585E+02 -0.10361913528E+03 -0.24606488500E+03  0.29818071797E+03  0.12509000000E+03 0.  0.
         25    1    3    3    0    0  0.52585794700E+02  0.61107056791E+02 -0.26711274607E+03  0.30577126321E+03  0.12509000000E+03 0.  0.
         25    1    3    3    0    0 -0.80955751155E+01  0.42512078488E+02 -0.22769405470E+03  0.26337218114E+03  0.12509000000E+03 0.  0.
<mgrwt>
<rscale>  2 0.45095493E+03</rscale>
<asrwt>0</asrwt>
<pdfrwt beam="1">  1       21 0.92979764E-02 0.45095493E+03</pdfrwt>
<pdfrwt beam="2">  1       21 0.11824969E+00 0.45095493E+03</pdfrwt>
<totfact> 0.46119720E+04</totfact>
</mgrwt>
</event>
<event>
 6    0  0.1572624E-007  0.4556833E+03  0.7546771E-02  0.1026041E+00
         21   -1    0    0  502  501  0.00000000000E+00  0.00000000000E+00  0.14771180313E+03  0.14771180313E+03  0.00000000000E+00 0.  1.
         21   -1    0    0  501  502 -0.00000000000E+00 -0.00000000000E+00 -0.35143991473E+03  0.35143991473E+03  0.00000000000E+00 0.  1.
      99926    2    1    2    0    0  0.00000000000E+00  0.14210854715E-13 -0.20372811160E+03  0.49915171785E+03  0.45568332643E+03 0.  0.
         25    1    3    3    0    0  0.24441297928E+02 -0.10566628754E+03 -0.61776401338E+02  0.17671042196E+03  0.12509000000E+03 0.  0.
         25    1    3    3    0    0 -0.10382083069E+02  0.98771249368E+02 -0.10472611181E+03  0.19099375368E+03  0.12509000000E+03 0.  0.
         25    1    3    3    0    0 -0.14059214859E+02  0.68950381724E+01 -0.37225598448E+02  0.13144754221E+03  0.12509000000E+03 0.  0.
<mgrwt>
<rscale>  2 0.45568333E+03</rscale>
<asrwt>0</asrwt>
<pdfrwt beam="1">  1       21 0.21722324E-01 0.45568333E+03</pdfrwt>
<pdfrwt beam="2">  1       21 0.51682340E-01 0.45568333E+03</pdfrwt>
<totfact> 0.64977119E+04</totfact>
</mgrwt>
</event>
<event>
 6    0  0.1572624E-007  0.4514586E+03  0.7546771E-02  0.1027288E+00
         21   -1    0    0  502  501  0.00000000000E+00  0.00000000000E+00  0.42119749018E+03  0.42119749018E+03  0.00000000000E+00 0. -1.
         21   -1    0    0  501  502 -0.00000000000E+00 -0.00000000000E+00 -0.12097347242E+03  0.12097347242E+03  0.00000000000E+00 0. -1.
      99926    2    1    2    0    0  0.00000000000E+00  0.00000000000E+00  0.30022401776E+03  0.54217096260E+03  0.45145862695E+03 0.  0.
         25    1    3    3    0    0 -0.24002072783E+02  0.13271724248E+02 -0.17685312248E+02  0.12927689868E+03  0.12509000000E+03 0.  0.
         25    1    3    3    0    0  0.89435435199E+01  0.15060396041E+02  0.20783969638E+03  0.24321112226E+03  0.12509000000E+03 0.  0.
         25    1    3    3    0    0  0.15058529263E+02 -0.28332120288E+02  0.11006963363E+03  0.16968294166E+03  0.12509000000E+03 0.  0.
<mgrwt>
<rscale>  2 0.45145863E+03</rscale>
<asrwt>0</asrwt>
<pdfrwt beam="1">  1       21 0.61940807E-01 0.45145863E+03</pdfrwt>
<pdfrwt beam="2">  1       21 0.17790217E-01 0.45145863E+03</pdfrwt>
<totfact> 0.64166247E+04</totfact>
</mgrwt>
</event>
<event>
 6    0  0.1572624E-007  0.4548372E+03  0.7546771E-02  0.1026289E+00
         21   -1    0    0  502  501  0.00000000000E+00  0.00000000000E+00  0.17259262261E+03  0.17259262261E+03  0.00000000000E+00 0. -1.
         21   -1    0    0  501  502 -0.00000000000E+00 -0.00000000000E+00 -0.29966071650E+03  0.29966071650E+03  0.00000000000E+00 0. -1.
      99926    2    1    2    0    0 -0.53290705182E-14  0.71054273576E-14 -0.12706809389E+03  0.47225333911E+03  0.45483724102E+03 0.  0.
         25    1    3    3    0    0  0.56859318367E+02  0.77614236712E+02 -0.37284149464E+02  0.16215599812E+03  0.12509000000E+03 0.  0.
         25    1    3    3    0    0  0.14191736714E+02 -0.61544778654E+02 -0.87730412668E+02  0.16532785179E+03  0.12509000000E+03 0.  0.
         25    1    3    3    0    0 -0.71051055081E+02 -0.16069458059E+02 -0.20535317566E+01  0.14476948920E+03  0.12509000000E+03 0.  0.
<mgrwt>
<rscale>  2 0.45483724E+03</rscale>
<asrwt>0</asrwt>
<pdfrwt beam="1">  1       21 0.25381268E-01 0.45483724E+03</pdfrwt>
<pdfrwt beam="2">  1       21 0.44067752E-01 0.45483724E+03</pdfrwt>
<totfact> 0.67355471E+04</totfact>
</mgrwt>
</event>
<event>
 6    0  0.1572624E-007  0.4561801E+03  0.7546771E-02  0.1025895E+00
         21   -1    0    0  502  501  0.00000000000E+00  0.00000000000E+00  0.54398177939E+03  0.54398177939E+03  0.00000000000E+00 0. -1.
         21   -1    0    0  501  502 -0.00000000000E+00 -0.00000000000E+00 -0.95637509224E+02  0.95637509224E+02  0.00000000000E+00 0. -1.
      99926    2    1    2    0    0 -0.75495165675E-14  0.00000000000E+00  0.44834427017E+03  0.63961928861E+03  0.45618006289E+03 0.  0.
         25    1    3    3    0    0 -0.22818033968E+01  0.29933613696E+02  0.14125800054E+03  0.19105642798E+03  0.12509000000E+03 0.  0.
         25    1    3    3    0    0  0.92480682665E+02  0.32625286182E+01  0.88525099999E+02  0.17901821748E+03  0.12509000000E+03 0.  0.
         25    1    3    3    0    0 -0.90198879269E+02 -0.33196142314E+02  0.21856116963E+03  0.26954464316E+03  0.12509000000E+03 0.  0.
<mgrwt>
<rscale>  2 0.45618006E+03</rscale>
<asrwt>0</asrwt>
<pdfrwt beam="1">  1       21 0.79997319E-01 0.45618006E+03</pdfrwt>
<pdfrwt beam="2">  1       21 0.14064340E-01 0.45618006E+03</pdfrwt>
<totfact> 0.55782216E+04</totfact>
</mgrwt>
</event>
<event>
 6    0  0.1572624E-007  0.4513662E+03  0.7546771E-02  0.1027315E+00
         21   -1    0    0  502  501  0.00000000000E+00  0.00000000000E+00  0.86201047890E+02  0.86201047890E+02  0.00000000000E+00 0.  1.
         21   -1    0    0  501  502 -0.00000000000E+00 -0.00000000000E+00 -0.59086132143E+03  0.59086132143E+03  0.00000000000E+00 0.  1.
      99926    2    1    2    0    0 -0.35527136788E-14  0.00000000000E+00 -0.50466027354E+03  0.67706236932E+03  0.45136621524E+03 0.  0.
         25    1    3    3    0    0 -0.47466045139E+02 -0.59089446463E+02 -0.22652595860E+03  0.26964069823E+03  0.12509000000E+03 0.  0.
         25    1    3    3    0    0 -0.30980096854E+02  0.13198409038E+02 -0.67342831508E+02  0.14600181320E+03  0.12509000000E+03 0.  0.
         25    1    3    3    0    0  0.78446141994E+02  0.45891037425E+02 -0.21079148343E+03  0.26141985788E+03  0.12509000000E+03 0.  0.
<mgrwt>
<rscale>  2 0.45136622E+03</rscale>
<asrwt>0</asrwt>
<pdfrwt beam="1">  1       21 0.12676624E-01 0.45136622E+03</pdfrwt>
<pdfrwt beam="2">  1       21 0.86891375E-01 0.45136622E+03</pdfrwt>
<totfact> 0.55744771E+04</totfact>
</mgrwt>
</event>
<event>
 6    0  0.1572624E-007  0.4428263E+03  0.7546771E-02  0.1029883E+00
         21   -1    0    0  502  501  0.00000000000E+00  0.00000000000E+00  0.44259366381E+03  0.44259366381E+03  0.00000000000E+00 0.  1.
         21   -1    0    0  501  502 -0.00000000000E+00 -0.00000000000E+00 -0.11076476619E+03  0.11076476619E+03  0.00000000000E+00 0.  1.
      99926    2    1    2    0    0  0.00000000000E+00  0.35527136788E-14  0.33182889763E+03  0.55335843000E+03  0.44282630314E+03 0.  0.
         25    1    3    3    0    0  0.36284150683E+02 -0.10897196491E+02  0.23106600237E+03  0.26546994940E+03  0.12509000000E+03 0.  0.
         25    1    3    3    0    0 -0.20535361859E+02  0.51844301069E+02  0.56193486045E+02  0.14803630843E+03  0.12509000000E+03 0.  0.
         25    1    3    3    0    0 -0.15748788824E+02 -0.40947104578E+02  0.44569409209E+02  0.13985217217E+03  0.12509000000E+03 0.  0.
<mgrwt>
<rscale>  2 0.44282630E+03</rscale>
<asrwt>0</asrwt>
<pdfrwt beam="1">  1       21 0.65087303E-01 0.44282630E+03</pdfrwt>
<pdfrwt beam="2">  1       21 0.16288936E-01 0.44282630E+03</pdfrwt>
<totfact> 0.67957213E+04</totfact>
</mgrwt>
</event>
<event>
 6    0  0.1572624E-007  0.4494818E+03  0.7546771E-02  0.1027877E+00
         21   -1    0    0  502  501  0.00000000000E+00  0.00000000000E+00  0.62442050867E+03  0.62442050867E+03  0.00000000000E+00 0. -1.
         21   -1    0    0  501  502 -0.00000000000E+00 -0.00000000000E+00 -0.80888542296E+02  0.80888542296E+02  0.00000000000E+00 0. -1.
      99926    2    1    2    0    0  0.00000000000E+00  0.00000000000E+00  0.54353196637E+03  0.70530905096E+03  0.44948176704E+03 0.  0.
         25    1    3    3    0    0  0.51124954425E+02 -0.69430100929E+02  0.29046054109E+03  0.32779434697E+03  0.12509000000E+03 0.  0.
         25    1    3    3    0    0 -0.12946305597E+02 -0.15057948089E+01  0.15369452856E+03  0.19859353075E+03  0.12509000000E+03 0.  0.
         25    1    3    3    0    0 -0.38178648828E+02  0.70935895738E+02  0.99376896727E+02  0.17892117324E+03  0.12509000000E+03 0.  0.
<mgrwt>
<rscale>  2 0.44948177E+03</rscale>
<asrwt>0</asrwt>
<pdfrwt beam="1">  1       21 0.91826543E-01 0.44948177E+03</pdfrwt>
<pdfrwt beam="2">  1       21 0.11895374E-01 0.44948177E+03</pdfrwt>
<totfact> 0.54963611E+04</totfact>
</mgrwt>
</event>
<event>
 6    0  0.1572624E-007  0.4587621E+03  0.7546771E-02  0.1025141E+00
         21   -1    0    0  502  501  0.00000000000E+00  0.00000000000E+00  0.11181746832E+03  0.11181746832E+03  0.00000000000E+00 0.  1.
         21   -1    0    0  501  502 -0.00000000000E+00 -0.00000000000E+00 -0.47054954955E+03  0.47054954955E+03  0.00000000000E+00 0.  1.
      99926    2    1    2    0    0  0.35527136788E-14  0.00000000000E+00 -0.35873208123E+03  0.58236701787E+03  0.45876207058E+03 0.  0.
         25    1    3    3    0    0  0.26883778271E+02 -0.10107168651E+03 -0.11440054080E+03  0.19918136254E+03  0.12509000000E+03 0.  0.
         25    1    3    3    0    0  0.18360887649E+02  0.51249117180E+02 -0.18351745937E+03  0.22866954366E+03  0.12509000000E+03 0.  0.
         25    1    3    3    0    0 -0.45244665920E+02  0.49822569332E+02 -0.60814081061E+02  0.15451611167E+03  0.12509000000E+03 0.  0.
<mgrwt>
<rscale>  2 0.45876207E+03</rscale>
<asrwt>0</asrwt>
<pdfrwt beam="1">  1       21 0.16443745E-01 0.45876207E+03</pdfrwt>
<pdfrwt beam="2">  1       21 0.69198464E-01 0.45876207E+03</pdfrwt>
<totfact> 0.58031730E+04</totfact>
</mgrwt>
</event>
<event>
 6    0  0.1572624E-007  0.4560197E+03  0.7546771E-02  0.1025942E+00
         21   -1    0    0  502  501  0.00000000000E+00  0.00000000000E+00  0.62899220244E+02  0.62899220244E+02  0.00000000000E+00 0. -1.
         21   -1    0    0  501  502 -0.00000000000E+00 -0.00000000000E+00 -0.82653640298E+03  0.82653640298E+03  0.00000000000E+00 0. -1.
      99926    2    1    2    0    0  0.00000000000E+00 -0.26645352591E-14 -0.76363718274E+03  0.88943562323E+03  0.45601971559E+03 0.  0.
         25    1    3    3    0    0  0.80847367716E+02 -0.20310634503E+02 -0.43679395576E+03  0.46193645302E+03  0.12509000000E+03 0.  0.
         25    1    3    3    0    0 -0.40776544962E+02  0.13696111490E+02 -0.22561986331E+03  0.26153802956E+03  0.12509000000E+03 0.  0.
         25    1    3    3    0    0 -0.40070822755E+02  0.66145230133E+01 -0.10122336367E+03  0.16596114064E+03  0.12509000000E+03 0.  0.
<mgrwt>
<rscale>  2 0.45601972E+03</rscale>
<asrwt>0</asrwt>
<pdfrwt beam="1">  1       21 0.92498855E-02 0.45601972E+03</pdfrwt>
<pdfrwt beam="2">  1       21 0.12154947E+00 0.45601972E+03</pdfrwt>
<totfact> 0.43346448E+04</totfact>
</mgrwt>
</event>
<event>
 6    0  0.1572624E-007  0.4570658E+03  0.7546771E-02  0.1025636E+00
         21   -1    0    0  502  501  0.00000000000E+00  0.00000000000E+00  0.41943395896E+03  0.41943395896E+03  0.00000000000E+00 0.  1.
         21   -1    0    0  501  502 -0.00000000000E+00 -0.00000000000E+00 -0.12451851039E+03  0.12451851039E+03  0.00000000000E+00 0.  1.
      99926    2    1    2    0    0 -0.35527136788E-14  0.00000000000E+00  0.29491544857E+03  0.54395246935E+03  0.45706582360E+03 0.  0.
         25    1    3    3    0    0  0.22783297984E+02  0.41225614246E+02  0.14753601501E+03  0.19908042033E+03  0.12509000000E+03 0.  0.
         25    1    3    3    0    0  0.33736412370E+02  0.40319518945E+02  0.13223920910E+02  0.13633117513E+03  0.12509000000E+03 0.  0.
         25    1    3    3    0    0 -0.56519710354E+02 -0.81545133191E+02  0.13415551266E+03  0.20854087389E+03  0.12509000000E+03 0.  0.
<mgrwt>
<rscale>  2 0.45706582E+03</rscale>
<asrwt>0</asrwt>
<pdfrwt beam="1">  1       21 0.61681464E-01 0.45706582E+03</pdfrwt>
<pdfrwt beam="2">  1       21 0.18311546E-01 0.45706582E+03</pdfrwt>
<totfact> 0.61260322E+04</totfact>
</mgrwt>
</event>
<event>
 6    0  0.1572624E-007  0.4431776E+03  0.7546771E-02  0.1029776E+00
         21   -1    0    0  502  501  0.00000000000E+00  0.00000000000E+00  0.13799655837E+04  0.13799655837E+04  0.00000000000E+00 0.  1.
         21   -1    0    0  501  502 -0.00000000000E+00 -0.00000000000E+00 -0.35581751823E+02  0.35581751823E+02  0.00000000000E+00 0.  1.
      99926    2    1    2    0    0  0.35527136788E-14  0.71054273576E-14  0.13443838319E+04  0.14155473355E+04  0.44317758483E+03 0.  0.
         25    1    3    3    0    0  0.50514421645E+02 -0.14294875545E+01  0.75104988536E+03  0.76307089358E+03  0.12509000000E+03 0.  0.
         25    1    3    3    0    0 -0.81720642738E+01 -0.38356340604E+02  0.33274430343E+03  0.35763706612E+03  0.12509000000E+03 0.  0.
         25    1    3    3    0    0 -0.42342357371E+02  0.39785828159E+02  0.26058964307E+03  0.29483937581E+03  0.12509000000E+03 0.  0.
<mgrwt>
<rscale>  2 0.44317758E+03</rscale>
<asrwt>0</asrwt>
<pdfrwt beam="1">  1       21 0.20293608E+00 0.44317758E+03</pdfrwt>
<pdfrwt beam="2">  1       21 0.52326115E-02 0.44317758E+03</pdfrwt>
<totfact> 0.28445546E+04</totfact>
</mgrwt>
</event>
<event>
 6    0  0.1572624E-007  0.4415653E+03  0.7546771E-02  0.1030268E+00
         21   -1    0    0  502  501  0.00000000000E+00  0.00000000000E+00  0.94559632686E+02  0.94559632686E+02  0.00000000000E+00 0. -1.
         21   -1    0    0  501  502 -0.00000000000E+00 -0.00000000000E+00 -0.51549463288E+03  0.51549463288E+03  0.00000000000E+00 0. -1.
      99926    2    1    2    0    0 -0.17763568394E-14  0.00000000000E+00 -0.42093500019E+03  0.61005426556E+03  0.44156532081E+03 0.  0.
         25    1    3    3    0    0 -0.31979403019E+02 -0.20041019015E+02 -0.22825526360E+03  0.26300627012E+03  0.12509000000E+03 0.  0.
         25    1    3    3    0    0 -0.15597314770E+02  0.69973608496E+02 -0.11517237322E+03  0.18453120541E+03  0.12509000000E+03 0.  0.
         25    1    3    3    0    0  0.47576717789E+02 -0.49932589482E+02 -0.77507363361E+02  0.16251679003E+03  0.12509000000E+03 0.  0.
<mgrwt>
<rscale>  2 0.44156532E+03</rscale>
<asrwt>0</asrwt>
<pdfrwt beam="1">  1       21 0.13905829E-01 0.44156532E+03</pdfrwt>
<pdfrwt beam="2">  1       21 0.75808031E-01 0.44156532E+03</pdfrwt>
<totfact> 0.64656063E+04</totfact>
</mgrwt>
</event>
<event>
 6    0  0.1572624E-007  0.4534397E+03  0.7546771E-02  0.1026701E+00
         21   -1    0    0  502  501  0.00000000000E+00  0.00000000000E+00  0.43990541998E+03  0.43990541998E+03  0.00000000000E+00 0. -1.
         21   -1    0    0  501  502 -0.00000000000E+00 -0.00000000000E+00 -0.11684758813E+03  0.11684758813E+03  0.00000000000E+00 0. -1.
      99926    2    1    2    0    0  0.00000000000E+00  0.14210854715E-13  0.32305783185E+03  0.55675300811E+03  0.45343968653E+03 0.  0.
         25    1    3    3    0    0  0.30710033497E+02  0.10084405015E+03  0.14146652091E+03  0.21627046318E+03  0.12509000000E+03 0.  0.
         25    1    3    3    0    0 -0.36750203579E+02 -0.81452142298E+02  0.60509020965E+02  0.16520859138E+03  0.12509000000E+03 0.  0.
         25    1    3    3    0    0  0.60401700813E+01 -0.19391907855E+02  0.12108228998E+03  0.17527395354E+03  0.12509000000E+03 0.  0.
<mgrwt>
<rscale>  2 0.45343969E+03</rscale>
<asrwt>0</asrwt>
<pdfrwt beam="1">  1       21 0.64691973E-01 0.45343969E+03</pdfrwt>
<pdfrwt beam="2">  1       21 0.17183469E-01 0.45343969E+03</pdfrwt>
<totfact> 0.62186475E+04</totfact>
</mgrwt>
</event>
<event>
 6    0  0.1572624E-007  0.4636782E+03  0.7546771E-02  0.1023720E+00
         21   -1    0    0  502  501  0.00000000000E+00  0.00000000000E+00  0.13020952432E+03  0.13020952432E+03  0.00000000000E+00 0. -1.
         21   -1    0    0  501  502 -0.00000000000E+00 -0.00000000000E+00 -0.41279133085E+03  0.41279133085E+03  0.00000000000E+00 0. -1.
      99926    2    1    2    0    0  0.00000000000E+00  0.00000000000E+00 -0.28258180653E+03  0.54300085518E+03  0.46367817648E+03 0.  0.
         25    1    3    3    0    0  0.10920936154E+03 -0.19920307615E+02 -0.10303555589E+03  0.19643659838E+03  0.12509000000E+03 0.  0.
         25    1    3    3    0    0 -0.90145072249E+02  0.36436508648E+02 -0.53558946371E+02  0.16724180712E+03  0.12509000000E+03 0.  0.
         25    1    3    3    0    0 -0.19064289294E+02 -0.16516201033E+02 -0.12598730426E+03  0.17932244968E+03  0.12509000000E+03 0.  0.
<mgrwt>
<rscale>  2 0.46367818E+03</rscale>
<asrwt>0</asrwt>
<pdfrwt beam="1">  1       21 0.19148460E-01 0.46367818E+03</pdfrwt>
<pdfrwt beam="2">  1       21 0.60704607E-01 0.46367818E+03</pdfrwt>
<totfact> 0.58226418E+04</totfact>
</mgrwt>
</event>
<event>
 6    0  0.1572624E-007  0.4566554E+03  0.7546771E-02  0.1025756E+00
         21   -1    0    0  502  501  0.00000000000E+00  0.00000000000E+00  0.11312954183E+04  0.11312954183E+04  0.00000000000E+00 0. -1.
         21   -1    0    0  501  502 -0.00000000000E+00 -0.00000000000E+00 -0.46083044213E+02  0.46083044213E+02  0.00000000000E+00 0. -1.
      99926    2    1    2    0    0  0.00000000000E+00  0.35527136788E-14  0.10852123741E+04  0.11773784626E+04  0.45665539209E+03 0.  0.
         25    1    3    3    0    0 -0.16044931269E+02 -0.47318992050E+02  0.36062422455E+03  0.38495956444E+03  0.12509000000E+03 0.  0.
         25    1    3    3    0    0 -0.60076640087E+02  0.75445778083E+02  0.25726227670E+03  0.30188185641E+03  0.12509000000E+03 0.  0.
         25    1    3    3    0    0  0.76121571356E+02 -0.28126786034E+02  0.46732587288E+03  0.49053704170E+03  0.12509000000E+03 0.  0.
<mgrwt>
<rscale>  2 0.45665539E+03</rscale>
<asrwt>0</asrwt>
<pdfrwt beam="1">  1       21 0.16636696E+00 0.45665539E+03</pdfrwt>
<pdfrwt beam="2">  1       21 0.67769190E-02 0.45665539E+03</pdfrwt>
<totfact> 0.32460585E+04</totfact>
</mgrwt>
</event>
<event>
 6    0  0.1572624E-007  0.4507312E+03  0.7546771E-02  0.1027504E+00
         21   -1    0    0  502  501  0.00000000000E+00  0.00000000000E+00  0.58452364339E+03  0.58452364339E+03  0.00000000000E+00 0.  1.
         21   -1    0    0  501  502 -0.00000000000E+00 -0.00000000000E+00 -0.86890686459E+02  0.86890686459E+02  0.00000000000E+00 0.  1.
      99926    2    1    2    0    0 -0.14210854715E-13  0.00000000000E+00  0.49763295693E+03  0.67141432985E+03  0.45073123089E+03 0.  0.
         25    1    3    3    0    0 -0.26599465071E+02 -0.65404877029E+02  0.20826970589E+03  0.25300021338E+03  0.12509000000E+03 0.  0.
         25    1    3    3    0    0  0.75504523203E+02  0.59701439640E+02  0.10242465043E+03  0.18815821012E+03  0.12509000000E+03 0.  0.
         25    1    3    3    0    0 -0.48905058132E+02  0.57034373893E+01  0.18693860061E+03  0.23025590635E+03  0.12509000000E+03 0.  0.
<mgrwt>
<rscale>  2 0.45073123E+03</rscale>
<asrwt>0</asrwt>
<pdfrwt beam="1">  1       21 0.85959357E-01 0.45073123E+03</pdfrwt>
<pdfrwt beam="2">  1       21 0.12778042E-01 0.45073123E+03</pdfrwt>
<totfact> 0.56354480E+04</totfact>
</mgrwt>
</event>
<event>
 6    0  0.1572624E-007  0.4487187E+03  0.7546771E-02  0.1028105E+00
         21   -1    0    0  502  501  0.00000000000E+00  0.00000000000E+00  0.12799238089E+03  0.12799238089E+03  0.00000000000E+00 0. -1.
         21   -1    0    0  501  502 -0.00000000000E+00 -0.00000000000E+00 -0.39328212287E+03  0.39328212287E+03  0.00000000000E+00 0. -1.
      99926    2    1    2    0    0  0.00000000000E+00  0.00000000000E+00 -0.26528974198E+03  0.52127450377E+03  0.44871868813E+03 0.  0.
         25    1    3    3    0    0  0.76365002933E+02 -0.22430722540E+02 -0.73689053148E+02  0.16556671054E+03  0.12509000000E+03 0.  0.
         25    1    3    3    0    0 -0.10257192575E+02  0.77783127271E+02 -0.99267516062E+02  0.17792406451E+03  0.12509000000E+03 0.  0.
         25    1    3    3    0    0 -0.66107810358E+02 -0.55352404731E+02 -0.92333172772E+02  0.17778372871E+03  0.12509000000E+03 0.  0.
<mgrwt>
<rscale>  2 0.44871869E+03</rscale>
<asrwt>0</asrwt>
<pdfrwt beam="1">  1       21 0.18822409E-01 0.44871869E+03</pdfrwt>
<pdfrwt beam="2">  1       21 0.57835607E-01 0.44871869E+03</pdfrwt>
<totfact> 0.67079453E+04</totfact>
</mgrwt>
</event>
<event>
 6    0  0.1572624E-007  0.4531228E+03  0.7546771E-02  0.1026795E+00
         21   -1    0    0  502  501  0.00000000000E+00  0.00000000000E+00  0.51801451254E+03  0.51801451254E+03  0.00000000000E+00 0.  1.
         21   -1    0    0  501  502 -0.00000000000E+00 -0.00000000000E+00 -0.99090016324E+02  0.99090016324E+02  0.00000000000E+00 0.  1.
      99926    2    1    2    0    0  0.00000000000E+00  0.00000000000E+00  0.41892449622E+03  0.61710452887E+03  0.45312279353E+03 0.  0.
         25    1    3    3    0    0  0.67023436321E+02  0.68262060830E+02  0.19200985663E+03  0.24832869973E+03  0.12509000000E+03 0.  0.
         25    1    3    3    0    0 -0.36492000060E+02 -0.20760581855E+02  0.18113313410E+03  0.22409682773E+03  0.12509000000E+03 0.  0.
         25    1    3    3    0    0 -0.30531436261E+02 -0.47501478975E+02  0.45781505483E+02  0.14467900141E+03  0.12509000000E+03 0.  0.
<mgrwt>
<rscale>  2 0.45312279E+03</rscale>
<asrwt>0</asrwt>
<pdfrwt beam="1">  1       21 0.76178604E-01 0.45312279E+03</pdfrwt>
<pdfrwt beam="2">  1       21 0.14572061E-01 0.45312279E+03</pdfrwt>
<totfact> 0.58500028E+04</totfact>
</mgrwt>
</event>
<event>
 6    0  0.1572624E-007  0.4476128E+03  0.7546771E-02  0.1028436E+00
         21   -1    0    0  502  501  0.00000000000E+00  0.00000000000E+00  0.95286035489E+03  0.95286035489E+03  0.00000000000E+00 0.  1.
         21   -1    0    0  501  502 -0.00000000000E+00 -0.00000000000E+00 -0.52567307193E+02  0.52567307193E+02  0.00000000000E+00 0.  1.
      99926    2    1    2    0    0  0.00000000000E+00  0.00000000000E+00  0.90029304770E+03  0.10054276621E+04  0.44761279244E+03 0.  0.
         25    1    3    3    0    0  0.25994250971E+02  0.34657080571E+01  0.42639153369E+03  0.44513476646E+03  0.12509000000E+03 0.  0.
         25    1    3    3    0    0 -0.86591931727E+02 -0.25556221074E+02  0.29259174022E+03  0.33076988620E+03  0.12509000000E+03 0.  0.
         25    1    3    3    0    0  0.60597680757E+02  0.22090513017E+02  0.18130977380E+03  0.22952300942E+03  0.12509000000E+03 0.  0.
<mgrwt>
<rscale>  2 0.44761279E+03</rscale>
<asrwt>0</asrwt>
<pdfrwt beam="1">  1       21 0.14012651E+00 0.44761279E+03</pdfrwt>
<pdfrwt beam="2">  1       21 0.77304870E-02 0.44761279E+03</pdfrwt>
<totfact> 0.41287183E+04</totfact>
</mgrwt>
</event>
<event>
 6    0  0.1572624E-007  0.4550924E+03  0.7546771E-02  0.1026214E+00
         21   -1    0    0  502  501  0.00000000000E+00  0.00000000000E+00  0.16851851798E+03  0.16851851798E+03  0.00000000000E+00 0.  1.
         21   -1    0    0  501  502 -0.00000000000E+00 -0.00000000000E+00 -0.30724979447E+03  0.30724979447E+03  0.00000000000E+00 0.  1.
      99926    2    1    2    0    0  0.00000000000E+00  0.00000000000E+00 -0.13873127649E+03  0.47576831244E+03  0.45509243023E+03 0.  0.
         25    1    3    3    0    0 -0.87739599235E+02  0.48830138379E+01 -0.76172447985E+02  0.17079763180E+03  0.12509000000E+03 0.  0.
         25    1    3    3    0    0  0.28792919658E+02 -0.23052331691E+02  0.34681310806E+02  0.13494718833E+03  0.12509000000E+03 0.  0.
         25    1    3    3    0    0  0.58946679577E+02  0.18169317853E+02 -0.97240139309E+02  0.17002349231E+03  0.12509000000E+03 0.  0.
<mgrwt>
<rscale>  2 0.45509243E+03</rscale>
<asrwt>0</asrwt>
<pdfrwt beam="1">  1       21 0.24782135E-01 0.45509243E+03</pdfrwt>
<pdfrwt beam="2">  1       21 0.45183793E-01 0.45509243E+03</pdfrwt>
<totfact> 0.66960318E+04</totfact>
</mgrwt>
</event>
<event>
 6    0  0.1572624E-007  0.4484071E+03  0.7546771E-02  0.1028198E+00
         21   -1    0    0  502  501  0.00000000000E+00  0.00000000000E+00  0.76207900574E+02  0.76207900574E+02  0.00000000000E+00 0. -1.
         21   -1    0    0  501  502 -0.00000000000E+00 -0.00000000000E+00 -0.65960666194E+03  0.65960666194E+03  0.00000000000E+00 0. -1.
      99926    2    1    2    0    0  0.71054273576E-14  0.35527136788E-14 -0.58339876137E+03  0.73581456252E+03  0.44840713157E+03 0.  0.
         25    1    3    3    0    0  0.34566276662E+02  0.24865318974E+02 -0.22259817042E+03  0.25886398967E+03  0.12509000000E+03 0.  0.
         25    1    3    3    0    0  0.13843009546E+02  0.37984283034E+02 -0.66156821039E+02  0.14716884093E+03  0.12509000000E+03 0.  0.
         25    1    3    3    0    0 -0.48409286208E+02 -0.62849602008E+02 -0.29464376991E+03  0.32978173192E+03  0.12509000000E+03 0.  0.
<mgrwt>
<rscale>  2 0.44840713E+03</rscale>
<asrwt>0</asrwt>
<pdfrwt beam="1">  1       21 0.11207045E-01 0.44840713E+03</pdfrwt>
<pdfrwt beam="2">  1       21 0.97000977E-01 0.44840713E+03</pdfrwt>
<totfact> 0.53732774E+04</totfact>
</mgrwt>
</event>
<event>
 6    0  0.1572624E-007  0.4572287E+03  0.7546771E-02  0.1025588E+00
         21   -1    0    0  502  501  0.00000000000E+00  0.00000000000E+00  0.12978463037E+04  0.12978463037E+04  0.00000000000E+00 0.  1.
         21   -1    0    0  501  502 -0.00000000000E+00 -0.00000000000E+00 -0.40270187079E+02  0.40270187079E+02  0.00000000000E+00 0.  1.
      99926    2    1    2    0    0 -0.17763568394E-14  0.00000000000E+00  0.12575761166E+04  0.13381164908E+04  0.45722866685E+03 0.  0.
         25    1    3    3    0    0  0.92223873491E+02 -0.30026349089E+02  0.50616509854E+03  0.53033709993E+03  0.12509000000E+03 0.  0.
         25    1    3    3    0    0 -0.80484394928E+02  0.22364636176E+02  0.25876563576E+03  0.29930766299E+03  0.12509000000E+03 0.  0.
         25    1    3    3    0    0 -0.11739478563E+02  0.76617129128E+01  0.49264538230E+03  0.50847172783E+03  0.12509000000E+03 0.  0.
<mgrwt>
<rscale>  2 0.45722867E+03</rscale>
<asrwt>0</asrwt>
<pdfrwt beam="1">  1       21 0.19085972E+00 0.45722867E+03</pdfrwt>
<pdfrwt beam="2">  1       21 0.59220872E-02 0.45722867E+03</pdfrwt>
<totfact> 0.27547114E+04</totfact>
</mgrwt>
</event>
<event>
 6    0  0.1572624E-007  0.4596326E+03  0.7546771E-02  0.1024888E+00
         21   -1    0    0  502  501  0.00000000000E+00  0.00000000000E+00  0.20396076220E+03  0.20396076220E+03  0.00000000000E+00 0. -1.
         21   -1    0    0  501  502 -0.00000000000E+00 -0.00000000000E+00 -0.25894944031E+03  0.25894944031E+03  0.00000000000E+00 0. -1.
      99926    2    1    2    0    0 -0.71054273576E-14  0.00000000000E+00 -0.54988678105E+02  0.46291020251E+03  0.45963257159E+03 0.  0.
         25    1    3    3    0    0 -0.83055807540E+02  0.13545574306E+02 -0.40643100976E+02  0.15614454684E+03  0.12509000000E+03 0.  0.
         25    1    3    3    0    0  0.20389775407E+01 -0.72690852293E+02  0.78025319876E+01  0.14490170821E+03  0.12509000000E+03 0.  0.
         25    1    3    3    0    0  0.81016829999E+02  0.59145277987E+02 -0.22148109117E+02  0.16186394746E+03  0.12509000000E+03 0.  0.
<mgrwt>
<rscale>  2 0.45963257E+03</rscale>
<asrwt>0</asrwt>
<pdfrwt beam="1">  1       21 0.29994230E-01 0.45963257E+03</pdfrwt>
<pdfrwt beam="2">  1       21 0.38080800E-01 0.45963257E+03</pdfrwt>
<totfact> 0.65514866E+04</totfact>
</mgrwt>
</event>
<event>
 6    0  0.1572624E-007  0.4491403E+03  0.7546771E-02  0.1027979E+00
         21   -1    0    0  502  501  0.00000000000E+00  0.00000000000E+00  0.88237599148E+02  0.88237599148E+02  0.00000000000E+00 0.  1.
         21   -1    0    0  501  502 -0.00000000000E+00 -0.00000000000E+00 -0.57154492702E+03  0.57154492702E+03  0.00000000000E+00 0.  1.
      99926    2    1    2    0    0 -0.35527136788E-14 -0.35527136788E-14 -0.48330732787E+03  0.65978252617E+03  0.44914029953E+03 0.  0.
         25    1    3    3    0    0 -0.26555193684E+02 -0.29785530130E+02 -0.21523323788E+03  0.25212142095E+03  0.12509000000E+03 0.  0.
         25    1    3    3    0    0  0.56225913222E+02 -0.59789867184E+02 -0.11607034016E+03  0.18935684170E+03  0.12509000000E+03 0.  0.
         25    1    3    3    0    0 -0.29670719538E+02  0.89575397315E+02 -0.15200374984E+03  0.21830426351E+03  0.12509000000E+03 0.  0.
<mgrwt>
<rscale>  2 0.44914030E+03</rscale>
<asrwt>0</asrwt>
<pdfrwt beam="1">  1       21 0.12976117E-01 0.44914030E+03</pdfrwt>
<pdfrwt beam="2">  1       21 0.84050726E-01 0.44914030E+03</pdfrwt>
<totfact> 0.57764082E+04</totfact>
</mgrwt>
</event>
<event>
 6    0  0.1572624E-007  0.4667710E+03  0.7546771E-02  0.1022836E+00
         21   -1    0    0  502  501  0.00000000000E+00  0.00000000000E+00  0.87864228645E+02  0.87864228645E+02  0.00000000000E+00 0. -1.
         21   -1    0    0  501  502 -0.00000000000E+00 -0.00000000000E+00 -0.61992011893E+03  0.61992011893E+03  0.00000000000E+00 0. -1.
      99926    2    1    2    0    0  0.00000000000E+00  0.14210854715E-13 -0.53205589028E+03  0.70778434757E+03  0.46677104911E+03 0.  0.
         25    1    3    3    0    0  0.19457263258E+02 -0.94106799228E+02 -0.13331019007E+03  0.20652793910E+03  0.12509000000E+03 0.  0.
         25    1    3    3    0    0  0.28819462018E+02  0.58751522742E+02 -0.10343520311E+03  0.17501043442E+03  0.12509000000E+03 0.  0.
         25    1    3    3    0    0 -0.48276725276E+02  0.35355276486E+02 -0.29531049711E+03  0.32624597404E+03  0.12509000000E+03 0.  0.
<mgrwt>
<rscale>  2 0.46677105E+03</rscale>
<asrwt>0</asrwt>
<pdfrwt beam="1">  1       21 0.12921210E-01 0.46677105E+03</pdfrwt>
<pdfrwt beam="2">  1       21 0.91164724E-01 0.46677105E+03</pdfrwt>
<totfact> 0.47890183E+04</totfact>
</mgrwt>
</event>
<event>
 6    0  0.1572624E-007  0.4532808E+03  0.7546771E-02  0.1026748E+00
         21   -1    0    0  502  501  0.00000000000E+00  0.00000000000E+00  0.91222019927E+02  0.91222019927E+02  0.00000000000E+00 0.  1.
         21   -1    0    0  501  502 -0.00000000000E+00 -0.00000000000E+00 -0.56308621930E+03  0.56308621930E+03  0.00000000000E+00 0.  1.
      99926    2    1    2    0    0  0.00000000000E+00  0.00000000000E+00 -0.47186419938E+03  0.65430823923E+03  0.45328076208E+03 0.  0.
         25    1    3    3    0    0 -0.99886395798E+02  0.23642389304E+01 -0.25024729475E+03  0.29707591340E+03  0.12509000000E+03 0.  0.
         25    1    3    3    0    0  0.14800268906E+02 -0.10410703675E+02 -0.12365465728E+03  0.17682028469E+03  0.12509000000E+03 0.  0.
         25    1    3    3    0    0  0.85086126893E+02  0.80464647445E+01 -0.97962247347E+02  0.18041204114E+03  0.12509000000E+03 0.  0.
<mgrwt>
<rscale>  2 0.45328076E+03</rscale>
<asrwt>0</asrwt>
<pdfrwt beam="1">  1       21 0.13415004E-01 0.45328076E+03</pdfrwt>
<pdfrwt beam="2">  1       21 0.82806793E-01 0.45328076E+03</pdfrwt>
<totfact> 0.56212397E+04</totfact>
</mgrwt>
</event>
<event>
 6    0  0.1572624E-007  0.4589419E+03  0.7546771E-02  0.1025089E+00
         21   -1    0    0  502  501  0.00000000000E+00  0.00000000000E+00  0.35064432139E+03  0.35064432139E+03  0.00000000000E+00 0. -1.
         21   -1    0    0  501  502 -0.00000000000E+00 -0.00000000000E+00 -0.15017191187E+03  0.15017191187E+03  0.00000000000E+00 0. -1.
      99926    2    1    2    0    0 -0.10658141036E-13 -0.17763568394E-14  0.20047240952E+03  0.50081623326E+03  0.45894194896E+03 0.  0.
         25    1    3    3    0    0 -0.87951625254E+02 -0.19643587885E+02  0.10929068707E+03  0.18897968491E+03  0.12509000000E+03 0.  0.
         25    1    3    3    0    0 -0.26121455065E+02  0.15235920922E+02  0.34256492453E+02  0.13317461874E+03  0.12509000000E+03 0.  0.
         25    1    3    3    0    0  0.11407308032E+03  0.44076669624E+01  0.56925229998E+02  0.17866192961E+03  0.12509000000E+03 0.  0.
<mgrwt>
<rscale>  2 0.45894195E+03</rscale>
<asrwt>0</asrwt>
<pdfrwt beam="1">  1       21 0.51565341E-01 0.45894195E+03</pdfrwt>
<pdfrwt beam="2">  1       21 0.22084105E-01 0.45894195E+03</pdfrwt>
<totfact> 0.63212045E+04</totfact>
</mgrwt>
</event>
<event>
 6    0  0.1572624E-007  0.4479306E+03  0.7546771E-02  0.1028341E+00
         21   -1    0    0  502  501  0.00000000000E+00  0.00000000000E+00  0.63416350232E+03  0.63416350232E+03  0.00000000000E+00 0.  1.
         21   -1    0    0  501  502 -0.00000000000E+00 -0.00000000000E+00 -0.79097035581E+02  0.79097035581E+02  0.00000000000E+00 0.  1.
      99926    2    1    2    0    0 -0.35527136788E-14 -0.13322676296E-14  0.55506646674E+03  0.71326053790E+03  0.44793058885E+03 0.  0.
         25    1    3    3    0    0 -0.26280843759E+02  0.19043147394E+01  0.19227365735E+03  0.23089169880E+03  0.12509000000E+03 0.  0.
         25    1    3    3    0    0  0.77769724637E+02  0.71272306031E+02  0.20013844502E+03  0.25851649261E+03  0.12509000000E+03 0.  0.
         25    1    3    3    0    0 -0.51488880878E+02 -0.73176620770E+02  0.16265436437E+03  0.22385234649E+03  0.12509000000E+03 0.  0.
<mgrwt>
<rscale>  2 0.44793059E+03</rscale>
<asrwt>0</asrwt>
<pdfrwt beam="1">  1       21 0.93259336E-01 0.44793059E+03</pdfrwt>
<pdfrwt beam="2">  1       21 0.11631917E-01 0.44793059E+03</pdfrwt>
<totfact> 0.55195104E+04</totfact>
</mgrwt>
</event>
<event>
 6    0  0.1572624E-007  0.4558280E+03  0.7546771E-02  0.1025998E+00
         21   -1    0    0  502  501  0.00000000000E+00  0.00000000000E+00  0.36244469832E+03  0.36244469832E+03  0.00000000000E+00 0. -1.
         21   -1    0    0  501  502 -0.00000000000E+00 -0.00000000000E+00 -0.14331782638E+03  0.14331782638E+03  0.00000000000E+00 0. -1.
      99926    2    1    2    0    0 -0.17763568394E-14  0.71054273576E-14  0.21912687194E+03  0.50576252470E+03  0.45582797784E+03 0.  0.
         25    1    3    3    0    0 -0.28894660643E+02 -0.84978215751E+02  0.46170350761E+02  0.16073396640E+03  0.12509000000E+03 0.  0.
         25    1    3    3    0    0  0.23531528403E+02  0.31306410613E+02  0.83196767636E+01  0.13134134648E+03  0.12509000000E+03 0.  0.
         25    1    3    3    0    0  0.53631322399E+01  0.53671805138E+02  0.16463684441E+03  0.21368721181E+03  0.12509000000E+03 0.  0.
<mgrwt>
<rscale>  2 0.45582798E+03</rscale>
<asrwt>0</asrwt>
<pdfrwt beam="1">  1       21 0.53300691E-01 0.45582798E+03</pdfrwt>
<pdfrwt beam="2">  1       21 0.21076151E-01 0.45582798E+03</pdfrwt>
<totfact> 0.64443141E+04</totfact>
</mgrwt>
</event>
<event>
 6    0  0.1572624E-007  0.4421919E+03  0.7546771E-02  0.1030076E+00
         21   -1    0    0  502  501  0.00000000000E+00  0.00000000000E+00  0.17945767257E+03  0.17945767257E+03  0.00000000000E+00 0.  1.
         21   -1    0    0  501  502 -0.00000000000E+00 -0.00000000000E+00 -0.27239528428E+03  0.27239528428E+03  0.00000000000E+00 0.  1.
      99926    2    1    2    0    0 -0.17763568394E-14  0.71054273576E-14 -0.92937611710E+02  0.45185295685E+03  0.44219192094E+03 0.  0.
         25    1    3    3    0    0 -0.12526452623E+02  0.20271936959E+02 -0.13653582529E+03  0.18670137420E+03  0.12509000000E+03 0.  0.
         25    1    3    3    0    0  0.94012863243E+01 -0.44659334507E+02  0.33280205434E+02  0.13725130424E+03  0.12509000000E+03 0.  0.
         25    1    3    3    0    0  0.31251662983E+01  0.24387397547E+02  0.10318008143E+02  0.12790027840E+03  0.12509000000E+03 0.  0.
<mgrwt>
<rscale>  2 0.44219192E+03</rscale>
<asrwt>0</asrwt>
<pdfrwt beam="1">  1       21 0.26390834E-01 0.44219192E+03</pdfrwt>
<pdfrwt beam="2">  1       21 0.40058130E-01 0.44219192E+03</pdfrwt>
<totfact> 0.76268527E+04</totfact>
</mgrwt>
</event>
<event>
 6    0  0.1572624E-007  0.4577222E+03  0.7546771E-02  0.1025444E+00
         21   -1    0    0  502  501  0.00000000000E+00  0.00000000000E+00  0.34405179001E+03  0.34405179001E+03  0.00000000000E+00 0. -1.
         21   -1    0    0  501  502 -0.00000000000E+00 -0.00000000000E+00 -0.15223693986E+03  0.15223693986E+03  0.00000000000E+00 0. -1.
      99926    2    1    2    0    0  0.14210854715E-13  0.00000000000E+00  0.19181485015E+03  0.49628872988E+03  0.45772215007E+03 0.  0.
         25    1    3    3    0    0 -0.85985341914E+02  0.73673952907E+02  0.79016771449E+02  0.18631287833E+03  0.12509000000E+03 0.  0.
         25    1    3    3    0    0  0.72810376486E+02 -0.39959065398E+02  0.97095954415E+02  0.17881054302E+03  0.12509000000E+03 0.  0.
         25    1    3    3    0    0  0.13174965428E+02 -0.33714887509E+02  0.15702124283E+02  0.13116530853E+03  0.12509000000E+03 0.  0.
<mgrwt>
<rscale>  2 0.45772215E+03</rscale>
<asrwt>0</asrwt>
<pdfrwt beam="1">  1       21 0.50595851E-01 0.45772215E+03</pdfrwt>
<pdfrwt beam="2">  1       21 0.22387785E-01 0.45772215E+03</pdfrwt>
<totfact> 0.64134982E+04</totfact>
</mgrwt>
</event>
<event>
 6    0  0.1572624E-007  0.4451339E+03  0.7546771E-02  0.1029183E+00
         21   -1    0    0  502  501  0.00000000000E+00  0.00000000000E+00  0.92711544778E+02  0.92711544778E+02  0.00000000000E+00 0. -1.
         21   -1    0    0  501  502 -0.00000000000E+00 -0.00000000000E+00 -0.53430285489E+03  0.53430285489E+03  0.00000000000E+00 0. -1.
      99926    2    1    2    0    0 -0.71054273576E-14  0.00000000000E+00 -0.44159131011E+03  0.62701439967E+03  0.44513388124E+03 0.  0.
         25    1    3    3    0    0  0.15089082956E+00  0.17890763924E+02 -0.11446867638E+03  0.17050128496E+03  0.12509000000E+03 0.  0.
         25    1    3    3    0    0  0.62303829395E+02 -0.57223742314E+02 -0.82642599994E+02  0.17214421650E+03  0.12509000000E+03 0.  0.
         25    1    3    3    0    0 -0.62454720224E+02  0.39332978390E+02 -0.24448003374E+03  0.28436889820E+03  0.12509000000E+03 0.  0.
<mgrwt>
<rscale>  2 0.44513388E+03</rscale>
<asrwt>0</asrwt>
<pdfrwt beam="1">  1       21 0.13634051E-01 0.44513388E+03</pdfrwt>
<pdfrwt beam="2">  1       21 0.78573948E-01 0.44513388E+03</pdfrwt>
<totfact> 0.61713489E+04</totfact>
</mgrwt>
</event>
<event>
 6    0  0.1572624E-007  0.4407573E+03  0.7546771E-02  0.1030515E+00
         21   -1    0    0  502  501  0.00000000000E+00  0.00000000000E+00  0.85715166861E+03  0.85715166861E+03  0.00000000000E+00 0. -1.
         21   -1    0    0  501  502 -0.00000000000E+00 -0.00000000000E+00 -0.56660629662E+02  0.56660629662E+02  0.00000000000E+00 0. -1.
      99926    2    1    2    0    0  0.00000000000E+00  0.00000000000E+00  0.80049103895E+03  0.91381229827E+03  0.44075731762E+03 0.  0.
         25    1    3    3    0    0  0.13533557942E+02 -0.14768822095E+02  0.10820189971E+03  0.16660262452E+03  0.12509000000E+03 0.  0.
         25    1    3    3    0    0  0.38616251244E+02 -0.14685286472E+02  0.44018772434E+03  0.45947754381E+03  0.12509000000E+03 0.  0.
         25    1    3    3    0    0 -0.52149809187E+02  0.29454108567E+02  0.25210141490E+03  0.28773212995E+03  0.12509000000E+03 0.  0.
<mgrwt>
<rscale>  2 0.44075732E+03</rscale>
<asrwt>0</asrwt>
<pdfrwt beam="1">  1       21 0.12605171E+00 0.44075732E+03</pdfrwt>
<pdfrwt beam="2">  1       21 0.83324461E-02 0.44075732E+03</pdfrwt>
<totfact> 0.47743687E+04</totfact>
</mgrwt>
</event>
<event>
 6    0  0.1572624E-007  0.4576970E+03  0.7546771E-02  0.1025451E+00
         21   -1    0    0  502  501  0.00000000000E+00  0.00000000000E+00  0.40343823771E+03  0.40343823771E+03  0.00000000000E+00 0. -1.
         21   -1    0    0  501  502 -0.00000000000E+00 -0.00000000000E+00 -0.12981328365E+03  0.12981328365E+03  0.00000000000E+00 0. -1.
      99926    2    1    2    0    0  0.71054273576E-14  0.00000000000E+00  0.27362495406E+03  0.53325152136E+03  0.45769702812E+03 0.  0.
         25    1    3    3    0    0 -0.33006498647E+02  0.70365105644E+02  0.18264820054E+03  0.23462427476E+03  0.12509000000E+03 0.  0.
         25    1    3    3    0    0  0.61086489847E+02 -0.52149856767E+02  0.17341324652E+02  0.14966427912E+03  0.12509000000E+03 0.  0.
         25    1    3    3    0    0 -0.28079991200E+02 -0.18215248877E+02  0.73635428872E+02  0.14896296749E+03  0.12509000000E+03 0.  0.
<mgrwt>
<rscale>  2 0.45769703E+03</rscale>
<asrwt>0</asrwt>
<pdfrwt beam="1">  1       21 0.59329152E-01 0.45769703E+03</pdfrwt>
<pdfrwt beam="2">  1       21 0.19090189E-01 0.45769703E+03</pdfrwt>
<totfact> 0.61658370E+04</totfact>
</mgrwt>
</event>
<event>
 6    0  0.1572624E-007  0.4552945E+03  0.7546771E-02  0.1026155E+00
         21   -1    0    0  502  501  0.00000000000E+00  0.00000000000E+00  0.16143252046E+04  0.16143252046E+04  0.00000000000E+00 0. -1.
         21   -1    0    0  501  502 -0.00000000000E+00 -0.00000000000E+00 -0.32102123343E+02  0.32102123343E+02  0.00000000000E+00 0. -1.
      99926    2    1    2    0    0  0.00000000000E+00  0.00000000000E+00  0.15822230812E+04  0.16464273279E+04  0.45529448419E+03 0.  0.
         25    1    3    3    0    0  0.71247875836E+02  0.21512802824E+02  0.60076274514E+03  0.61814435575E+03  0.12509000000E+03 0.  0.
         25    1    3    3    0    0 -0.10446725863E+03 -0.11974280695E+02  0.39185416314E+03  0.42456328715E+03  0.12509000000E+03 0.  0.
         25    1    3    3    0    0  0.33219382796E+02 -0.95385221284E+01  0.58960617296E+03  0.60371968503E+03  0.12509000000E+03 0.  0.
<mgrwt>
<rscale>  2 0.45529448E+03</rscale>
<asrwt>0</asrwt>
<pdfrwt beam="1">  1       21 0.23740071E+00 0.45529448E+03</pdfrwt>
<pdfrwt beam="2">  1       21 0.47209016E-02 0.45529448E+03</pdfrwt>
<totfact> 0.20354103E+04</totfact>
</mgrwt>
</event>
<event>
 6    0  0.1572624E-007  0.4561940E+03  0.7546771E-02  0.1025891E+00
         21   -1    0    0  502  501  0.00000000000E+00  0.00000000000E+00  0.58610455383E+02  0.58610455383E+02  0.00000000000E+00 0. -1.
         21   -1    0    0  501  502 -0.00000000000E+00 -0.00000000000E+00 -0.88769561937E+03  0.88769561937E+03  0.00000000000E+00 0. -1.
      99926    2    1    2    0    0 -0.53290705182E-14  0.00000000000E+00 -0.82908516399E+03  0.94630607475E+03  0.45619401352E+03 0.  0.
         25    1    3    3    0    0  0.85806743407E+02 -0.13027563011E+02 -0.28425380071E+03  0.32245968109E+03  0.12509000000E+03 0.  0.
         25    1    3    3    0    0 -0.10227686613E+02  0.69278879749E+02 -0.21080222391E+03  0.25492990107E+03  0.12509000000E+03 0.  0.
         25    1    3    3    0    0 -0.75579056795E+02 -0.56251316738E+02 -0.33402913937E+03  0.36891649259E+03  0.12509000000E+03 0.  0.
<mgrwt>
<rscale>  2 0.45619401E+03</rscale>
<asrwt>0</asrwt>
<pdfrwt beam="1">  1       21 0.86191850E-02 0.45619401E+03</pdfrwt>
<pdfrwt beam="2">  1       21 0.13054347E+00 0.45619401E+03</pdfrwt>
<totfact> 0.40907438E+04</totfact>
</mgrwt>
</event>
<event>
 6    0  0.1572624E-007  0.4657666E+03  0.7546771E-02  0.1023122E+00
         21   -1    0    0  502  501  0.00000000000E+00  0.00000000000E+00  0.31072939465E+03  0.31072939465E+03  0.00000000000E+00 0. -1.
         21   -1    0    0  501  502 -0.00000000000E+00 -0.00000000000E+00 -0.17453972986E+03  0.17453972986E+03  0.00000000000E+00 0. -1.
      99926    2    1    2    0    0  0.00000000000E+00  0.00000000000E+00  0.13618966480E+03  0.48526912451E+03  0.46576657072E+03 0.  0.
         25    1    3    3    0    0 -0.39027987297E+02 -0.71774338770E+02 -0.31210631349E+02  0.15263142241E+03  0.12509000000E+03 0.  0.
         25    1    3    3    0    0  0.17485024212E+02  0.98441834842E+01  0.13992409529E+03  0.18875617755E+03  0.12509000000E+03 0.  0.
         25    1    3    3    0    0  0.21542963085E+02  0.61930155286E+02  0.27476200857E+02  0.14388152455E+03  0.12509000000E+03 0.  0.
<mgrwt>
<rscale>  2 0.46576657E+03</rscale>
<asrwt>0</asrwt>
<pdfrwt beam="1">  1       21 0.45695499E-01 0.46576657E+03</pdfrwt>
<pdfrwt beam="2">  1       21 0.25667607E-01 0.46576657E+03</pdfrwt>
<totfact> 0.60941815E+04</totfact>
</mgrwt>
</event>
<event>
 6    0  0.1572624E-007  0.4727332E+03  0.7546771E-02  0.1021152E+00
         21   -1    0    0  502  501  0.00000000000E+00  0.00000000000E+00  0.35726382417E+02  0.35726382417E+02  0.00000000000E+00 0.  1.
         21   -1    0    0  501  502 -0.00000000000E+00 -0.00000000000E+00 -0.15638069963E+04  0.15638069963E+04  0.00000000000E+00 0.  1.
      99926    2    1    2    0    0 -0.71054273576E-14  0.00000000000E+00 -0.15280806139E+04  0.15995333787E+04  0.47273318807E+03 0.  0.
         25    1    3    3    0    0  0.43730996176E+02  0.37723549604E+02 -0.46135829022E+03  0.48149189638E+03  0.12509000000E+03 0.  0.
         25    1    3    3    0    0 -0.96502643734E+02  0.38621739896E+02 -0.37078845719E+03  0.40489009264E+03  0.12509000000E+03 0.  0.
         25    1    3    3    0    0  0.52771647558E+02 -0.76345289500E+02 -0.69593386647E+03  0.71315138968E+03  0.12509000000E+03 0.  0.
<mgrwt>
<rscale>  2 0.47273319E+03</rscale>
<asrwt>0</asrwt>
<pdfrwt beam="1">  1       21 0.52538792E-02 0.47273319E+03</pdfrwt>
<pdfrwt beam="2">  1       21 0.22997164E+00 0.47273319E+03</pdfrwt>
<totfact> 0.18726105E+04</totfact>
</mgrwt>
</event>
<event>
 6    0  0.1572624E-007  0.4893368E+03  0.7546771E-02  0.1016600E+00
         21   -1    0    0  502  501  0.00000000000E+00  0.00000000000E+00  0.17682386358E+03  0.17682386358E+03  0.00000000000E+00 0.  1.
         21   -1    0    0  501  502 -0.00000000000E+00 -0.00000000000E+00 -0.33854384625E+03  0.33854384625E+03  0.00000000000E+00 0.  1.
      99926    2    1    2    0    0 -0.71054273576E-14  0.00000000000E+00 -0.16171998267E+03  0.51536770983E+03  0.48933682014E+03 0.  0.
         25    1    3    3    0    0  0.78079832957E+02 -0.10074516376E+03 -0.59786058298E+02  0.18832931052E+03  0.12509000000E+03 0.  0.
         25    1    3    3    0    0 -0.21525583514E+02  0.63629635713E+02 -0.11707213839E+03  0.18402574541E+03  0.12509000000E+03 0.  0.
         25    1    3    3    0    0 -0.56554249443E+02  0.37115528047E+02  0.15138214014E+02  0.14301265390E+03  0.12509000000E+03 0.  0.
<mgrwt>
<rscale>  2 0.48933682E+03</rscale>
<asrwt>0</asrwt>
<pdfrwt beam="1">  1       21 0.26003509E-01 0.48933682E+03</pdfrwt>
<pdfrwt beam="2">  1       21 0.49785860E-01 0.48933682E+03</pdfrwt>
<totfact> 0.49325281E+04</totfact>
</mgrwt>
</event>
<event>
 6    0  0.1572624E-007  0.4554561E+03  0.7546771E-02  0.1026107E+00
         21   -1    0    0  502  501  0.00000000000E+00  0.00000000000E+00  0.26636529261E+03  0.26636529261E+03  0.00000000000E+00 0. -1.
         21   -1    0    0  501  502 -0.00000000000E+00 -0.00000000000E+00 -0.19469530820E+03  0.19469530820E+03  0.00000000000E+00 0. -1.
      99926    2    1    2    0    0  0.00000000000E+00  0.71054273576E-14  0.71669984404E+02  0.46106060081E+03  0.45545613505E+03 0.  0.
         25    1    3    3    0    0 -0.83937912311E+02 -0.55467470345E+02  0.47393294488E+02  0.16737934715E+03  0.12509000000E+03 0.  0.
         25    1    3    3    0    0  0.15203050616E+01  0.29276682466E+01  0.46278224608E+02  0.13341688327E+03  0.12509000000E+03 0.  0.
         25    1    3    3    0    0  0.82417607249E+02  0.52539802099E+02 -0.22001534691E+02  0.16026437039E+03  0.12509000000E+03 0.  0.
<mgrwt>
<rscale>  2 0.45545614E+03</rscale>
<asrwt>0</asrwt>
<pdfrwt beam="1">  1       21 0.39171367E-01 0.45545614E+03</pdfrwt>
<pdfrwt beam="2">  1       21 0.28631663E-01 0.45545614E+03</pdfrwt>
<totfact> 0.67856157E+04</totfact>
</mgrwt>
</event>
<event>
 6    0  0.1572624E-007  0.4403573E+03  0.7546771E-02  0.1030637E+00
         21   -1    0    0  502  501  0.00000000000E+00  0.00000000000E+00  0.74214411637E+02  0.74214411637E+02  0.00000000000E+00 0.  1.
         21   -1    0    0  501  502 -0.00000000000E+00 -0.00000000000E+00 -0.65322417106E+03  0.65322417106E+03  0.00000000000E+00 0.  1.
      99926    2    1    2    0    0  0.10658141036E-13  0.71054273576E-14 -0.57900975943E+03  0.72743858270E+03  0.44035734363E+03 0.  0.
         25    1    3    3    0    0 -0.40526521639E+02  0.67645780837E+02 -0.14152522233E+03  0.20468328529E+03  0.12509000000E+03 0.  0.
         25    1    3    3    0    0  0.70599730159E+02 -0.88437195739E+01 -0.20129884661E+03  0.24744952419E+03  0.12509000000E+03 0.  0.
         25    1    3    3    0    0 -0.30073208520E+02 -0.58802061263E+02 -0.23618569048E+03  0.27530577322E+03  0.12509000000E+03 0.  0.
<mgrwt>
<rscale>  2 0.44035734E+03</rscale>
<asrwt>0</asrwt>
<pdfrwt beam="1">  1       21 0.10913884E-01 0.44035734E+03</pdfrwt>
<pdfrwt beam="2">  1       21 0.96062375E-01 0.44035734E+03</pdfrwt>
<totfact> 0.57813530E+04</totfact>
</mgrwt>
</event>
<event>
 6    0  0.1572624E-007  0.4598140E+03  0.7546771E-02  0.1024835E+00
         21   -1    0    0  502  501  0.00000000000E+00  0.00000000000E+00  0.88424207832E+03  0.88424207832E+03  0.00000000000E+00 0.  1.
         21   -1    0    0  501  502 -0.00000000000E+00 -0.00000000000E+00 -0.59776873297E+02  0.59776873297E+02  0.00000000000E+00 0.  1.
      99926    2    1    2    0    0  0.00000000000E+00 -0.14210854715E-13  0.82446520502E+03  0.94401895161E+03  0.45981399143E+03 0.  0.
         25    1    3    3    0    0  0.36141429404E+02  0.15613272127E+02  0.19216512904E+03  0.23264763507E+03  0.12509000000E+03 0.  0.
         25    1    3    3    0    0 -0.52483086761E+02  0.81637529263E+02  0.39519595787E+03  0.42573056479E+03  0.12509000000E+03 0.  0.
         25    1    3    3    0    0  0.16341657357E+02 -0.97250801390E+02  0.23710411811E+03  0.28564075175E+03  0.12509000000E+03 0.  0.
<mgrwt>
<rscale>  2 0.45981399E+03</rscale>
<asrwt>0</asrwt>
<pdfrwt beam="1">  1       21 0.13003559E+00 0.45981399E+03</pdfrwt>
<pdfrwt beam="2">  1       21 0.87907172E-02 0.45981399E+03</pdfrwt>
<totfact> 0.39861955E+04</totfact>
</mgrwt>
</event>
<event>
 6    0  0.1572624E-007  0.4546011E+03  0.7546771E-02  0.1026359E+00
         21   -1    0    0  502  501  0.00000000000E+00  0.00000000000E+00  0.10296899137E+03  0.10296899137E+03  0.00000000000E+00 0.  1.
         21   -1    0    0  501  502 -0.00000000000E+00 -0.00000000000E+00 -0.50175823933E+03  0.50175823933E+03  0.00000000000E+00 0.  1.
      99926    2    1    2    0    0  0.14210854715E-13  0.35527136788E-14 -0.39878924796E+03  0.60472723070E+03  0.45460109906E+03 0.  0.
         25    1    3    3    0    0 -0.93169376009E+02 -0.42366939777E+02 -0.14708298398E+03  0.21853238316E+03  0.12509000000E+03 0.  0.
         25    1    3    3    0    0  0.99855023381E+01  0.64334005591E+02 -0.11727468650E+03  0.18341056329E+03  0.12509000000E+03 0.  0.
         25    1    3    3    0    0  0.83183873671E+02 -0.21967065814E+02 -0.13443157748E+03  0.20278428426E+03  0.12509000000E+03 0.  0.
<mgrwt>
<rscale>  2 0.45460110E+03</rscale>
<asrwt>0</asrwt>
<pdfrwt beam="1">  1       21 0.15142499E-01 0.45460110E+03</pdfrwt>
<pdfrwt beam="2">  1       21 0.73787975E-01 0.45460110E+03</pdfrwt>
<totfact> 0.58572601E+04</totfact>
</mgrwt>
</event>
<event>
 6    0  0.1572624E-007  0.4574675E+03  0.7546771E-02  0.1025518E+00
         21   -1    0    0  502  501  0.00000000000E+00  0.00000000000E+00  0.23866063870E+04  0.23866063870E+04  0.00000000000E+00 0.  1.
         21   -1    0    0  501  502 -0.00000000000E+00 -0.00000000000E+00 -0.21921979077E+02  0.21921979077E+02  0.00000000000E+00 0.  1.
      99926    2    1    2    0    0 -0.14210854715E-13  0.14210854715E-13  0.23646844079E+04  0.24085283660E+04  0.45746753013E+03 0.  0.
         25    1    3    3    0    0  0.17571719441E+02 -0.63182738362E+02  0.50256987184E+03  0.52203908660E+03  0.12509000000E+03 0.  0.
         25    1    3    3    0    0  0.53699521488E+02 -0.12127923192E+02  0.71746195547E+03  0.73036284871E+03  0.12509000000E+03 0.  0.
         25    1    3    3    0    0 -0.71271240929E+02  0.75310661554E+02  0.11446525806E+04  0.11561264307E+04  0.12509000000E+03 0.  0.
<mgrwt>
<rscale>  2 0.45746753E+03</rscale>
<asrwt>0</asrwt>
<pdfrwt beam="1">  1       21 0.35097135E+00 0.45746753E+03</pdfrwt>
<pdfrwt beam="2">  1       21 0.32238221E-02 0.45746753E+03</pdfrwt>
<totfact> 0.79597336E+03</totfact>
</mgrwt>
</event>
<event>
 6    0  0.1572624E-007  0.4537786E+03  0.7546771E-02  0.1026601E+00
         21   -1    0    0  502  501  0.00000000000E+00  0.00000000000E+00  0.48047673619E+02  0.48047673619E+02  0.00000000000E+00 0. -1.
         21   -1    0    0  501  502 -0.00000000000E+00 -0.00000000000E+00 -0.10714098698E+04  0.10714098698E+04  0.00000000000E+00 0. -1.
      99926    2    1    2    0    0  0.00000000000E+00  0.00000000000E+00 -0.10233621962E+04  0.11194575434E+04  0.45377858802E+03 0.  0.
         25    1    3    3    0    0 -0.33221263807E+02 -0.13612290618E+02 -0.24454549100E+03  0.27701796349E+03  0.12509000000E+03 0.  0.
         25    1    3    3    0    0 -0.10372374313E+02 -0.61945158601E+02 -0.54947284424E+03  0.56702090216E+03  0.12509000000E+03 0.  0.
         25    1    3    3    0    0  0.43593638121E+02  0.75557449219E+02 -0.22934386092E+03  0.27541867776E+03  0.12509000000E+03 0.  0.
<mgrwt>
<rscale>  2 0.45377859E+03</rscale>
<asrwt>0</asrwt>
<pdfrwt beam="1">  1       21 0.70658350E-02 0.45377859E+03</pdfrwt>
<pdfrwt beam="2">  1       21 0.15756026E+00 0.45377859E+03</pdfrwt>
<totfact> 0.35152155E+04</totfact>
</mgrwt>
</event>
<event>
 6    0  0.1572624E-007  0.4545637E+03  0.7546771E-02  0.1026370E+00
         21   -1    0    0  502  501  0.00000000000E+00  0.00000000000E+00  0.29898614718E+03  0.29898614718E+03  0.00000000000E+00 0.  1.
         21   -1    0    0  501  502 -0.00000000000E+00 -0.00000000000E+00 -0.17277404662E+03  0.17277404662E+03  0.00000000000E+00 0.  1.
      99926    2    1    2    0    0 -0.17763568394E-14 -0.14210854715E-13  0.12621210056E+03  0.47176019380E+03  0.45456373165E+03 0.  0.
         25    1    3    3    0    0 -0.90397263687E+01 -0.84558215025E+02  0.73844849783E+02  0.16832224547E+03  0.12509000000E+03 0.  0.
         25    1    3    3    0    0  0.10737536055E+02  0.11485038597E+03  0.31116457564E+02  0.17297874976E+03  0.12509000000E+03 0.  0.
         25    1    3    3    0    0 -0.16978096864E+01 -0.30292170947E+02  0.21250793209E+02  0.13045919857E+03  0.12509000000E+03 0.  0.
<mgrwt>
<rscale>  2 0.45456373E+03</rscale>
<asrwt>0</asrwt>
<pdfrwt beam="1">  1       21 0.43968551E-01 0.45456373E+03</pdfrwt>
<pdfrwt beam="2">  1       21 0.25407948E-01 0.45456373E+03</pdfrwt>
<totfact> 0.67538520E+04</totfact>
</mgrwt>
</event>
<event>
 6    0  0.1572624E-007  0.4538181E+03  0.7546771E-02  0.1026590E+00
         21   -1    0    0  502  501  0.00000000000E+00  0.00000000000E+00  0.28391959807E+03  0.28391959807E+03  0.00000000000E+00 0. -1.
         21   -1    0    0  501  502 -0.00000000000E+00 -0.00000000000E+00 -0.18134611911E+03  0.18134611911E+03  0.00000000000E+00 0. -1.
      99926    2    1    2    0    0  0.00000000000E+00  0.00000000000E+00  0.10257347896E+03  0.46526571718E+03  0.45381810122E+03 0.  0.
         25    1    3    3    0    0 -0.39604392116E+02 -0.41042042306E+02  0.42030702284E+02  0.14376037405E+03  0.12509000000E+03 0.  0.
         25    1    3    3    0    0  0.15378683711E+02  0.43111106086E+02 -0.60002486279E+02  0.14609201840E+03  0.12509000000E+03 0.  0.
         25    1    3    3    0    0  0.24225708406E+02 -0.20690637804E+01  0.12054526296E+03  0.17541332473E+03  0.12509000000E+03 0.  0.
<mgrwt>
<rscale>  2 0.45381810E+03</rscale>
<asrwt>0</asrwt>
<pdfrwt beam="1">  1       21 0.41752882E-01 0.45381810E+03</pdfrwt>
<pdfrwt beam="2">  1       21 0.26668547E-01 0.45381810E+03</pdfrwt>
<totfact> 0.68429087E+04</totfact>
</mgrwt>
</event>
<event>
 6    0  0.1572624E-007  0.4633544E+03  0.7546771E-02  0.1023813E+00
         21   -1    0    0  502  501  0.00000000000E+00  0.00000000000E+00  0.70957159033E+03  0.70957159033E+03  0.00000000000E+00 0. -1.
         21   -1    0    0  501  502 -0.00000000000E+00 -0.00000000000E+00 -0.75643267668E+02  0.75643267668E+02  0.00000000000E+00 0. -1.
      99926    2    1    2    0    0  0.00000000000E+00  0.71054273576E-14  0.63392832267E+03  0.78521485800E+03  0.46335435139E+03 0.  0.
         25    1    3    3    0    0  0.68734767707E+02 -0.54590691810E+02  0.32786097849E+03  0.36172495248E+03  0.12509000000E+03 0.  0.
         25    1    3    3    0    0 -0.88772810290E+02  0.21792229885E+01  0.13570710805E+03  0.20481525367E+03  0.12509000000E+03 0.  0.
         25    1    3    3    0    0  0.20038042583E+02  0.52411468821E+02  0.17036023612E+03  0.21867465186E+03  0.12509000000E+03 0.  0.
<mgrwt>
<rscale>  2 0.46335435E+03</rscale>
<asrwt>0</asrwt>
<pdfrwt beam="1">  1       21 0.10434876E+00 0.46335435E+03</pdfrwt>
<pdfrwt beam="2">  1       21 0.11124010E-01 0.46335435E+03</pdfrwt>
<totfact> 0.45435022E+04</totfact>
</mgrwt>
</event>
<event>
 6    0  0.1572624E-007  0.4560590E+03  0.7546771E-02  0.1025930E+00
         21   -1    0    0  502  501  0.00000000000E+00  0.00000000000E+00  0.59342264342E+03  0.59342264342E+03  0.00000000000E+00 0. -1.
         21   -1    0    0  501  502 -0.00000000000E+00 -0.00000000000E+00 -0.87622970676E+02  0.87622970676E+02  0.00000000000E+00 0. -1.
      99926    2    1    2    0    0  0.00000000000E+00 -0.71054273576E-14  0.50579967274E+03  0.68104561409E+03  0.45605900882E+03 0.  0.
         25    1    3    3    0    0 -0.74209576327E+02 -0.43700034422E+02  0.22830541454E+03  0.27420361893E+03  0.12509000000E+03 0.  0.
         25    1    3    3    0    0  0.89502437972E+02  0.55895077683E+02  0.19990271990E+03  0.25834773395E+03  0.12509000000E+03 0.  0.
         25    1    3    3    0    0 -0.15292861645E+02 -0.12195043262E+02  0.77591538300E+02  0.14849426121E+03  0.12509000000E+03 0.  0.
<mgrwt>
<rscale>  2 0.45605901E+03</rscale>
<asrwt>0</asrwt>
<pdfrwt beam="1">  1       21 0.87268034E-01 0.45605901E+03</pdfrwt>
<pdfrwt beam="2">  1       21 0.12885731E-01 0.45605901E+03</pdfrwt>
<totfact> 0.53497076E+04</totfact>
</mgrwt>
</event>
<event>
 6    0  0.1572624E-007  0.4536017E+03  0.7546771E-02  0.1026653E+00
         21   -1    0    0  502  501  0.00000000000E+00  0.00000000000E+00  0.14499873203E+03  0.14499873203E+03  0.00000000000E+00 0.  1.
         21   -1    0    0  501  502 -0.00000000000E+00 -0.00000000000E+00 -0.35475226488E+03  0.35475226488E+03  0.00000000000E+00 0.  1.
      99926    2    1    2    0    0  0.00000000000E+00  0.17763568394E-14 -0.20975353285E+03  0.49975099690E+03  0.45360171336E+03 0.  0.
         25    1    3    3    0    0 -0.11323638036E+02 -0.89036445271E+02 -0.93401888511E+02  0.18007535712E+03  0.12509000000E+03 0.  0.
         25    1    3    3    0    0 -0.50886148925E+02  0.79144817124E+02 -0.47264385910E+02  0.16350759158E+03  0.12509000000E+03 0.  0.
         25    1    3    3    0    0  0.62209786961E+02  0.98916281471E+01 -0.69087258430E+02  0.15616804820E+03  0.12509000000E+03 0.  0.
<mgrwt>
<rscale>  2 0.45360171E+03</rscale>
<asrwt>0</asrwt>
<pdfrwt beam="1">  1       21 0.21323343E-01 0.45360171E+03</pdfrwt>
<pdfrwt beam="2">  1       21 0.52169450E-01 0.45360171E+03</pdfrwt>
<totfact> 0.66017891E+04</totfact>
</mgrwt>
</event>
<event>
 6    0  0.1572624E-007  0.4580463E+03  0.7546771E-02  0.1025349E+00
         21   -1    0    0  502  501  0.00000000000E+00  0.00000000000E+00  0.11324296697E+04  0.11324296697E+04  0.00000000000E+00 0.  1.
         21   -1    0    0  501  502 -0.00000000000E+00 -0.00000000000E+00 -0.46317765897E+02  0.46317765897E+02  0.00000000000E+00 0.  1.
      99926    2    1    2    0    0  0.00000000000E+00 -0.71054273576E-14  0.10861119038E+04  0.11787474356E+04  0.45804633974E+03 0.  0.
         25    1    3    3    0    0 -0.83346719744E+01  0.11017917849E+02  0.29827587174E+03  0.32373888403E+03  0.12509000000E+03 0.  0.
         25    1    3    3    0    0  0.91807342888E+02 -0.44992057434E+02  0.26934662783E+03  0.31408277168E+03  0.12509000000E+03 0.  0.
         25    1    3    3    0    0 -0.83472670914E+02  0.33974139584E+02  0.51848940426E+03  0.54092577992E+03  0.12509000000E+03 0.  0.
<mgrwt>
<rscale>  2 0.45804634E+03</rscale>
<asrwt>0</asrwt>
<pdfrwt beam="1">  1       21 0.16653376E+00 0.45804634E+03</pdfrwt>
<pdfrwt beam="2">  1       21 0.68114369E-02 0.45804634E+03</pdfrwt>
<totfact> 0.32068948E+04</totfact>
</mgrwt>
</event>
<event>
 6    0  0.1572624E-007  0.4480732E+03  0.7546771E-02  0.1028298E+00
         21   -1    0    0  502  501  0.00000000000E+00  0.00000000000E+00  0.10885789759E+03  0.10885789759E+03  0.00000000000E+00 0.  1.
         21   -1    0    0  501  502 -0.00000000000E+00 -0.00000000000E+00 -0.46108179009E+03  0.46108179009E+03  0.00000000000E+00 0.  1.
      99926    2    1    2    0    0  0.00000000000E+00  0.00000000000E+00 -0.35222389250E+03  0.56993968768E+03  0.44807318281E+03 0.  0.
         25    1    3    3    0    0  0.69147350812E+02 -0.53246891285E+02 -0.15064763832E+03  0.21438005175E+03  0.12509000000E+03 0.  0.
         25    1    3    3    0    0 -0.59581889103E+00  0.17026847513E+02 -0.30470918286E+02  0.12987014090E+03  0.12509000000E+03 0.  0.
         25    1    3    3    0    0 -0.68551531921E+02  0.36220043772E+02 -0.17110533589E+03  0.22568949503E+03  0.12509000000E+03 0.  0.
<mgrwt>
<rscale>  2 0.44807318E+03</rscale>
<asrwt>0</asrwt>
<pdfrwt beam="1">  1       21 0.16008515E-01 0.44807318E+03</pdfrwt>
<pdfrwt beam="2">  1       21 0.67806145E-01 0.44807318E+03</pdfrwt>
<totfact> 0.64002138E+04</totfact>
</mgrwt>
</event>
<event>
 6    0  0.1572624E-007  0.4531004E+03  0.7546771E-02  0.1026801E+00
         21   -1    0    0  502  501  0.00000000000E+00  0.00000000000E+00  0.60600388198E+03  0.60600388198E+03  0.00000000000E+00 0. -1.
         21   -1    0    0  501  502 -0.00000000000E+00 -0.00000000000E+00 -0.84694168409E+02  0.84694168409E+02  0.00000000000E+00 0. -1.
      99926    2    1    2    0    0  0.00000000000E+00 -0.71054273576E-14  0.52130971358E+03  0.69069805039E+03  0.45310040758E+03 0.  0.
         25    1    3    3    0    0  0.39663673254E+02 -0.70148784297E+02  0.18259188812E+03  0.23554482508E+03  0.12509000000E+03 0.  0.
         25    1    3    3    0    0  0.47562948775E+02  0.29672595088E+02  0.21352963158E+03  0.25374220906E+03  0.12509000000E+03 0.  0.
         25    1    3    3    0    0 -0.87226622028E+02  0.40476189209E+02  0.12518819388E+03  0.20141101626E+03  0.12509000000E+03 0.  0.
<mgrwt>
<rscale>  2 0.45310041E+03</rscale>
<asrwt>0</asrwt>
<pdfrwt beam="1">  1       21 0.89118216E-01 0.45310041E+03</pdfrwt>
<pdfrwt beam="2">  1       21 0.12455025E-01 0.45310041E+03</pdfrwt>
<totfact> 0.54217180E+04</totfact>
</mgrwt>
</event>
<event>
 6    0  0.1572624E-007  0.4281989E+03  0.7546771E-02  0.1034430E+00
         21   -1    0    0  502  501  0.00000000000E+00  0.00000000000E+00  0.17438385236E+03  0.17438385236E+03  0.00000000000E+00 0.  1.
         21   -1    0    0  501  502 -0.00000000000E+00 -0.00000000000E+00 -0.26286020397E+03  0.26286020397E+03  0.00000000000E+00 0.  1.
      99926    2    1    2    0    0  0.00000000000E+00  0.00000000000E+00 -0.88476351609E+02  0.43724405632E+03  0.42819890238E+03 0.  0.
         25    1    3    3    0    0 -0.10342525517E+02  0.53642701003E+02 -0.22530874133E+01  0.13651773404E+03  0.12509000000E+03 0.  0.
         25    1    3    3    0    0  0.46288024349E+02  0.19879141170E+02 -0.65149454903E+02  0.14976555354E+03  0.12509000000E+03 0.  0.
         25    1    3    3    0    0 -0.35945498831E+02 -0.73521842172E+02 -0.21073809293E+02  0.15096076875E+03  0.12509000000E+03 0.  0.
<mgrwt>
<rscale>  2 0.42819890E+03</rscale>
<asrwt>0</asrwt>
<pdfrwt beam="1">  1       21 0.25644685E-01 0.42819890E+03</pdfrwt>
<pdfrwt beam="2">  1       21 0.38655912E-01 0.42819890E+03</pdfrwt>
<totfact> 0.87028234E+04</totfact>
</mgrwt>
</event>
<event>
 6    0  0.1572624E-007  0.4610600E+03  0.7546771E-02  0.1024474E+00
         21   -1    0    0  502  501  0.00000000000E+00  0.00000000000E+00  0.69614822025E+02  0.69614822025E+02  0.00000000000E+00 0.  1.
         21   -1    0    0  501  502 -0.00000000000E+00 -0.00000000000E+00 -0.76340185355E+03  0.76340185355E+03  0.00000000000E+00 0.  1.
      99926    2    1    2    0    0  0.00000000000E+00  0.00000000000E+00 -0.69378703153E+03  0.83301667558E+03  0.46106001418E+03 0.  0.
         25    1    3    3    0    0 -0.18428944899E+02 -0.29155699328E+02 -0.35801499938E+03  0.38080431812E+03  0.12509000000E+03 0.  0.
         25    1    3    3    0    0 -0.56795888734E+02  0.41486086598E+02 -0.23161825150E+03  0.27247273420E+03  0.12509000000E+03 0.  0.
         25    1    3    3    0    0  0.75224833633E+02 -0.12330387270E+02 -0.10415378065E+03  0.17973962326E+03  0.12509000000E+03 0.  0.
<mgrwt>
<rscale>  2 0.46106001E+03</rscale>
<asrwt>0</asrwt>
<pdfrwt beam="1">  1       21 0.10237474E-01 0.46106001E+03</pdfrwt>
<pdfrwt beam="2">  1       21 0.11226498E+00 0.46106001E+03</pdfrwt>
<totfact> 0.44075614E+04</totfact>
</mgrwt>
</event>
<event>
 6    0  0.1572624E-007  0.4491994E+03  0.7546771E-02  0.1027961E+00
         21   -1    0    0  502  501  0.00000000000E+00  0.00000000000E+00  0.22739624529E+02  0.22739624529E+02  0.00000000000E+00 0. -1.
         21   -1    0    0  501  502 -0.00000000000E+00 -0.00000000000E+00 -0.22183749847E+04  0.22183749847E+04  0.00000000000E+00 0. -1.
      99926    2    1    2    0    0  0.00000000000E+00  0.00000000000E+00 -0.21956353602E+04  0.22411146092E+04  0.44919935092E+03 0.  0.
         25    1    3    3    0    0  0.83150733738E+02 -0.38070060004E+02 -0.61640722160E+03  0.63558535613E+03  0.12509000000E+03 0.  0.
         25    1    3    3    0    0 -0.23856951165E+02  0.13603934893E+02 -0.10562951680E+04  0.10640306439E+04  0.12509000000E+03 0.  0.
         25    1    3    3    0    0 -0.59293782573E+02  0.24466125111E+02 -0.52293297061E+03  0.54149860922E+03  0.12509000000E+03 0.  0.
<mgrwt>
<rscale>  2 0.44919935E+03</rscale>
<asrwt>0</asrwt>
<pdfrwt beam="1">  1       21 0.33440628E-02 0.44919935E+03</pdfrwt>
<pdfrwt beam="2">  1       21 0.32623158E+00 0.44919935E+03</pdfrwt>
<totfact> 0.10628374E+04</totfact>
</mgrwt>
</event>
<event>
 6    0  0.1572624E-007  0.4571408E+03  0.7546771E-02  0.1025614E+00
         21   -1    0    0  502  501  0.00000000000E+00  0.00000000000E+00  0.16635207759E+03  0.16635207759E+03  0.00000000000E+00 0. -1.
         21   -1    0    0  501  502 -0.00000000000E+00 -0.00000000000E+00 -0.31405940783E+03  0.31405940783E+03  0.00000000000E+00 0. -1.
      99926    2    1    2    0    0  0.00000000000E+00  0.35527136788E-14 -0.14770733025E+03  0.48041148542E+03  0.45714083160E+03 0.  0.
         25    1    3    3    0    0 -0.52269193718E+02  0.51752395285E+02 -0.82481493698E+02  0.16691639803E+03  0.12509000000E+03 0.  0.
         25    1    3    3    0    0  0.93885241888E+02  0.17428719478E+02 -0.25688552920E+02  0.15945409608E+03  0.12509000000E+03 0.  0.
         25    1    3    3    0    0 -0.41616048169E+02 -0.69181114762E+02 -0.39537283629E+02  0.15404099130E+03  0.12509000000E+03 0.  0.
<mgrwt>
<rscale>  2 0.45714083E+03</rscale>
<asrwt>0</asrwt>
<pdfrwt beam="1">  1       21 0.24463541E-01 0.45714083E+03</pdfrwt>
<pdfrwt beam="2">  1       21 0.46185207E-01 0.45714083E+03</pdfrwt>
<totfact> 0.65549225E+04</totfact>
</mgrwt>
</event>
<event>
 6    0  0.1572624E-007  0.4587272E+03  0.7546771E-02  0.1025151E+00
         21   -1    0    0  502  501  0.00000000000E+00  0.00000000000E+00  0.32749053213E+03  0.32749053213E+03  0.00000000000E+00 0. -1.
         21   -1    0    0  501  502 -0.00000000000E+00 -0.00000000000E+00 -0.16063869569E+03  0.16063869569E+03  0.00000000000E+00 0. -1.
      99926    2    1    2    0    0  0.00000000000E+00  0.00000000000E+00  0.16685183644E+03  0.48812922782E+03  0.45872716045E+03 0.  0.
         25    1    3    3    0    0  0.70308752102E+02 -0.16091638545E+02  0.79535495794E+02  0.16485043113E+03  0.12509000000E+03 0.  0.
         25    1    3    3    0    0  0.25192934014E+02  0.52500370349E+02 -0.33842157298E+01  0.13802149770E+03  0.12509000000E+03 0.  0.
         25    1    3    3    0    0 -0.95501686116E+02 -0.36408731804E+02  0.90700556375E+02  0.18525729899E+03  0.12509000000E+03 0.  0.
<mgrwt>
<rscale>  2 0.45872716E+03</rscale>
<asrwt>0</asrwt>
<pdfrwt beam="1">  1       21 0.48160372E-01 0.45872716E+03</pdfrwt>
<pdfrwt beam="2">  1       21 0.23623338E-01 0.45872716E+03</pdfrwt>
<totfact> 0.64192498E+04</totfact>
</mgrwt>
</event>
<event>
 6    0  0.1572624E-007  0.4610503E+03  0.7546771E-02  0.1024477E+00
         21   -1    0    0  502  501  0.00000000000E+00  0.00000000000E+00  0.58578293867E+02  0.58578293867E+02  0.00000000000E+00 0. -1.
         21   -1    0    0  501  502 -0.00000000000E+00 -0.00000000000E+00 -0.90719332145E+03  0.90719332145E+03  0.00000000000E+00 0. -1.
      99926    2    1    2    0    0 -0.71054273576E-14  0.00000000000E+00 -0.84861502759E+03  0.96577161532E+03  0.46105026615E+03 0.  0.
         25    1    3    3    0    0 -0.49557867629E+02 -0.64439656450E+02 -0.18186108480E+03  0.23522205218E+03  0.12509000000E+03 0.  0.
         25    1    3    3    0    0 -0.10153495029E+02 -0.31023276159E+02 -0.26057302141E+03  0.29088029275E+03  0.12509000000E+03 0.  0.
         25    1    3    3    0    0  0.59711362657E+02  0.95462932609E+02 -0.40618092138E+03  0.43966927039E+03  0.12509000000E+03 0.  0.
<mgrwt>
<rscale>  2 0.46105027E+03</rscale>
<asrwt>0</asrwt>
<pdfrwt beam="1">  1       21 0.86144554E-02 0.46105027E+03</pdfrwt>
<pdfrwt beam="2">  1       21 0.13341078E+00 0.46105027E+03</pdfrwt>
<totfact> 0.38647874E+04</totfact>
</mgrwt>
</event>
<event>
 6    0  0.1572624E-007  0.4628000E+03  0.7546771E-02  0.1023972E+00
         21   -1    0    0  502  501  0.00000000000E+00  0.00000000000E+00  0.48456968778E+03  0.48456968778E+03  0.00000000000E+00 0. -1.
         21   -1    0    0  501  502 -0.00000000000E+00 -0.00000000000E+00 -0.11050209565E+03  0.11050209565E+03  0.00000000000E+00 0. -1.
      99926    2    1    2    0    0  0.00000000000E+00  0.71054273576E-14  0.37406759213E+03  0.59507178343E+03  0.46280002588E+03 0.  0.
         25    1    3    3    0    0  0.14574287009E+02  0.82957762882E+02  0.41527120521E+02  0.15641742263E+03  0.12509000000E+03 0.  0.
         25    1    3    3    0    0  0.44101822949E+02 -0.58405889292E+02  0.18540609691E+03  0.23532774499E+03  0.12509000000E+03 0.  0.
         25    1    3    3    0    0 -0.58676109958E+02 -0.24551873590E+02  0.14713437470E+03  0.20332661581E+03  0.12509000000E+03 0.  0.
<mgrwt>
<rscale>  2 0.46280003E+03</rscale>
<asrwt>0</asrwt>
<pdfrwt beam="1">  1       21 0.71260247E-01 0.46280003E+03</pdfrwt>
<pdfrwt beam="2">  1       21 0.16250308E-01 0.46280003E+03</pdfrwt>
<totfact> 0.55482720E+04</totfact>
</mgrwt>
</event>
<event>
 6    0  0.1572624E-007  0.4526750E+03  0.7546771E-02  0.1026927E+00
         21   -1    0    0  502  501  0.00000000000E+00  0.00000000000E+00  0.16195256079E+03  0.16195256079E+03  0.00000000000E+00 0.  1.
         21   -1    0    0  501  502 -0.00000000000E+00 -0.00000000000E+00 -0.31631892331E+03  0.31631892331E+03  0.00000000000E+00 0.  1.
      99926    2    1    2    0    0 -0.28421709430E-13  0.00000000000E+00 -0.15436636252E+03  0.47827148410E+03  0.45267498122E+03 0.  0.
         25    1    3    3    0    0 -0.96527181180E+02  0.14989388702E+02 -0.59364057401E+02  0.16945140274E+03  0.12509000000E+03 0.  0.
         25    1    3    3    0    0  0.32399311360E+01  0.25345756576E+02 -0.70349365823E+02  0.14577189682E+03  0.12509000000E+03 0.  0.
         25    1    3    3    0    0  0.93287250043E+02 -0.40335145278E+02 -0.24652939300E+02  0.16304818454E+03  0.12509000000E+03 0.  0.
<mgrwt>
<rscale>  2 0.45267498E+03</rscale>
<asrwt>0</asrwt>
<pdfrwt beam="1">  1       21 0.23816553E-01 0.45267498E+03</pdfrwt>
<pdfrwt beam="2">  1       21 0.46517488E-01 0.45267498E+03</pdfrwt>
<totfact> 0.68073753E+04</totfact>
</mgrwt>
</event>
<event>
 6    0  0.1572624E-007  0.4553536E+03  0.7546771E-02  0.1026137E+00
         21   -1    0    0  502  501  0.00000000000E+00  0.00000000000E+00  0.10911428422E+03  0.10911428422E+03  0.00000000000E+00 0. -1.
         21   -1    0    0  501  502 -0.00000000000E+00 -0.00000000000E+00 -0.47506821807E+03  0.47506821807E+03  0.00000000000E+00 0. -1.
      99926    2    1    2    0    0  0.71054273576E-14  0.00000000000E+00 -0.36595393385E+03  0.58418250229E+03  0.45535361454E+03 0.  0.
         25    1    3    3    0    0 -0.20852765719E+02  0.33230899511E+02 -0.21430989428E+03  0.25122772420E+03  0.12509000000E+03 0.  0.
         25    1    3    3    0    0 -0.32804129161E+02  0.45399292540E+02 -0.50659201943E+02  0.14612005165E+03  0.12509000000E+03 0.  0.
         25    1    3    3    0    0  0.53656894880E+02 -0.78630192051E+02 -0.10098483763E+03  0.18683472643E+03  0.12509000000E+03 0.  0.
<mgrwt>
<rscale>  2 0.45535361E+03</rscale>
<asrwt>0</asrwt>
<pdfrwt beam="1">  1       21 0.16046218E-01 0.45535361E+03</pdfrwt>
<pdfrwt beam="2">  1       21 0.69862974E-01 0.45535361E+03</pdfrwt>
<totfact> 0.59496110E+04</totfact>
</mgrwt>
</event>
<event>
 6    0  0.1572624E-007  0.4471344E+03  0.7546771E-02  0.1028580E+00
         21   -1    0    0  502  501  0.00000000000E+00  0.00000000000E+00  0.44531909152E+03  0.44531909152E+03  0.00000000000E+00 0. -1.
         21   -1    0    0  501  502 -0.00000000000E+00 -0.00000000000E+00 -0.11223926228E+03  0.11223926228E+03  0.00000000000E+00 0. -1.
      99926    2    1    2    0    0  0.00000000000E+00  0.00000000000E+00  0.33307982924E+03  0.55755835380E+03  0.44713437046E+03 0.  0.
         25    1    3    3    0    0 -0.53444957047E+02 -0.45479286238E+02  0.90838738438E+02  0.16977606843E+03  0.12509000000E+03 0.  0.
         25    1    3    3    0    0 -0.40568876513E+02  0.20712110791E+02  0.16356826817E+03  0.21089549954E+03  0.12509000000E+03 0.  0.
         25    1    3    3    0    0  0.94013833560E+02  0.24767175447E+02  0.78672822632E+02  0.17688678583E+03  0.12509000000E+03 0.  0.
<mgrwt>
<rscale>  2 0.44713437E+03</rscale>
<asrwt>0</asrwt>
<pdfrwt beam="1">  1       21 0.65488101E-01 0.44713437E+03</pdfrwt>
<pdfrwt beam="2">  1       21 0.16505774E-01 0.44713437E+03</pdfrwt>
<totfact> 0.65341370E+04</totfact>
</mgrwt>
</event>
<event>
 6    0  0.1572624E-007  0.4511208E+03  0.7546771E-02  0.1027388E+00
         21   -1    0    0  502  501  0.00000000000E+00  0.00000000000E+00  0.41587484508E+03  0.41587484508E+03  0.00000000000E+00 0. -1.
         21   -1    0    0  501  502 -0.00000000000E+00 -0.00000000000E+00 -0.12233845289E+03  0.12233845289E+03  0.00000000000E+00 0. -1.
      99926    2    1    2    0    0  0.00000000000E+00  0.00000000000E+00  0.29353639219E+03  0.53821329797E+03  0.45112076052E+03 0.  0.
         25    1    3    3    0    0 -0.37198057246E+02  0.45782034980E+02  0.13285122466E+03  0.19177238118E+03  0.12509000000E+03 0.  0.
         25    1    3    3    0    0  0.72991584959E+02 -0.86919651433E+02  0.10611029103E+03  0.19947355525E+03  0.12509000000E+03 0.  0.
         25    1    3    3    0    0 -0.35793527713E+02  0.41137616453E+02  0.54574876493E+02  0.14696736154E+03  0.12509000000E+03 0.  0.
<mgrwt>
<rscale>  2 0.45112076E+03</rscale>
<asrwt>0</asrwt>
<pdfrwt beam="1">  1       21 0.61158065E-01 0.45112076E+03</pdfrwt>
<pdfrwt beam="2">  1       21 0.17990949E-01 0.45112076E+03</pdfrwt>
<totfact> 0.64613137E+04</totfact>
</mgrwt>
</event>
<event>
 6    0  0.1572624E-007  0.4612246E+03  0.7546771E-02  0.1024427E+00
         21   -1    0    0  502  501  0.00000000000E+00  0.00000000000E+00  0.33929928465E+02  0.33929928465E+02  0.00000000000E+00 0.  1.
         21   -1    0    0  501  502 -0.00000000000E+00 -0.00000000000E+00 -0.15674075114E+04  0.15674075114E+04  0.00000000000E+00 0.  1.
      99926    2    1    2    0    0  0.00000000000E+00  0.88817841970E-15 -0.15334775829E+04  0.16013374399E+04  0.46122456456E+03 0.  0.
         25    1    3    3    0    0 -0.70444273470E+02 -0.74850959008E+02 -0.44938639807E+03  0.47766170518E+03  0.12509000000E+03 0.  0.
         25    1    3    3    0    0 -0.68142117645E+00  0.72822002889E+02 -0.66480033359E+03  0.68037526416E+03  0.12509000000E+03 0.  0.
         25    1    3    3    0    0  0.71125694647E+02  0.20289561191E+01 -0.41929085128E+03  0.44330047053E+03  0.12509000000E+03 0.  0.
<mgrwt>
<rscale>  2 0.46122456E+03</rscale>
<asrwt>0</asrwt>
<pdfrwt beam="1">  1       21 0.49896961E-02 0.46122456E+03</pdfrwt>
<pdfrwt beam="2">  1       21 0.23050107E+00 0.46122456E+03</pdfrwt>
<totfact> 0.20395850E+04</totfact>
</mgrwt>
</event>
<event>
 6    0  0.1572624E-007  0.4727987E+03  0.7546771E-02  0.1021133E+00
         21   -1    0    0  502  501  0.00000000000E+00  0.00000000000E+00  0.47857539965E+02  0.47857539965E+02  0.00000000000E+00 0.  1.
         21   -1    0    0  501  502 -0.00000000000E+00 -0.00000000000E+00 -0.11677294490E+04  0.11677294490E+04  0.00000000000E+00 0.  1.
      99926    2    1    2    0    0  0.00000000000E+00 -0.17763568394E-14 -0.11198719090E+04  0.12155869890E+04  0.47279872578E+03 0.  0.
         25    1    3    3    0    0  0.72418270357E+02 -0.97958162989E+02 -0.53497556503E+03  0.56274911893E+03  0.12509000000E+03 0.  0.
         25    1    3    3    0    0 -0.42398954832E+02  0.13121811718E+02 -0.22319755003E+03  0.25968155066E+03  0.12509000000E+03 0.  0.
         25    1    3    3    0    0 -0.30019315525E+02  0.84836351272E+02 -0.36169879398E+03  0.39315631938E+03  0.12509000000E+03 0.  0.
<mgrwt>
<rscale>  2 0.47279873E+03</rscale>
<asrwt>0</asrwt>
<pdfrwt beam="1">  1       21 0.70378724E-02 0.47279873E+03</pdfrwt>
<pdfrwt beam="2">  1       21 0.17172495E+00 0.47279873E+03</pdfrwt>
<totfact> 0.27631713E+04</totfact>
</mgrwt>
</event>
<event>
 6    0  0.1572624E-007  0.4527052E+03  0.7546771E-02  0.1026918E+00
         21   -1    0    0  502  501  0.00000000000E+00  0.00000000000E+00  0.23730245569E+02  0.23730245569E+02  0.00000000000E+00 0.  1.
         21   -1    0    0  501  502 -0.00000000000E+00 -0.00000000000E+00 -0.21590800949E+04  0.21590800949E+04  0.00000000000E+00 0.  1.
      99926    2    1    2    0    0  0.00000000000E+00  0.00000000000E+00 -0.21353498493E+04  0.21828103405E+04  0.45270520587E+03 0.  0.
         25    1    3    3    0    0  0.69755719453E+02  0.50180558371E+02 -0.52672139170E+03  0.54814859427E+03  0.12509000000E+03 0.  0.
         25    1    3    3    0    0  0.89069907052E+01  0.19951129812E+02 -0.69247210944E+03  0.70401882966E+03  0.12509000000E+03 0.  0.
         25    1    3    3    0    0 -0.78662710159E+02 -0.70131688182E+02 -0.91615634818E+03  0.93064291652E+03  0.12509000000E+03 0.  0.
<mgrwt>
<rscale>  2 0.45270521E+03</rscale>
<asrwt>0</asrwt>
<pdfrwt beam="1">  1       21 0.34897410E-02 0.45270521E+03</pdfrwt>
<pdfrwt beam="2">  1       21 0.31751187E+00 0.45270521E+03</pdfrwt>
<totfact> 0.11145574E+04</totfact>
</mgrwt>
</event>
<event>
 6    0  0.1572624E-007  0.4621604E+03  0.7546771E-02  0.1024157E+00
         21   -1    0    0  502  501  0.00000000000E+00  0.00000000000E+00  0.39084645283E+03  0.39084645283E+03  0.00000000000E+00 0.  1.
         21   -1    0    0  501  502 -0.00000000000E+00 -0.00000000000E+00 -0.13662154787E+03  0.13662154787E+03  0.00000000000E+00 0.  1.
      99926    2    1    2    0    0  0.00000000000E+00  0.35527136788E-14  0.25422490496E+03  0.52746800070E+03  0.46216035038E+03 0.  0.
         25    1    3    3    0    0 -0.56892012061E+02  0.52610179060E+02  0.59320260443E+02  0.15865350099E+03  0.12509000000E+03 0.  0.
         25    1    3    3    0    0 -0.26632781109E+02  0.24400316592E+02  0.13988520100E+03  0.19110221882E+03  0.12509000000E+03 0.  0.
         25    1    3    3    0    0  0.83524793169E+02 -0.77010495652E+02  0.55019443518E+02  0.17771228089E+03  0.12509000000E+03 0.  0.
<mgrwt>
<rscale>  2 0.46216035E+03</rscale>
<asrwt>0</asrwt>
<pdfrwt beam="1">  1       21 0.57477419E-01 0.46216035E+03</pdfrwt>
<pdfrwt beam="2">  1       21 0.20091404E-01 0.46216035E+03</pdfrwt>
<totfact> 0.59904832E+04</totfact>
</mgrwt>
</event>
<event>
 6    0  0.1572624E-007  0.4740402E+03  0.7546771E-02  0.1020786E+00
         21   -1    0    0  502  501  0.00000000000E+00  0.00000000000E+00  0.12972139237E+03  0.12972139237E+03  0.00000000000E+00 0. -1.
         21   -1    0    0  501  502 -0.00000000000E+00 -0.00000000000E+00 -0.43307063272E+03  0.43307063272E+03  0.00000000000E+00 0. -1.
      99926    2    1    2    0    0  0.53290705182E-14  0.71054273576E-14 -0.30334924034E+03  0.56279202509E+03  0.47404019016E+03 0.  0.
         25    1    3    3    0    0  0.74179512177E+02 -0.88737747081E+02 -0.18840764897E+03  0.25401168885E+03  0.12509000000E+03 0.  0.
         25    1    3    3    0    0 -0.65341445507E+02  0.26755850618E+02 -0.35699479551E+02  0.14801128668E+03  0.12509000000E+03 0.  0.
         25    1    3    3    0    0 -0.88380666703E+01  0.61981896463E+02 -0.79242111827E+02  0.16076904957E+03  0.12509000000E+03 0.  0.
<mgrwt>
<rscale>  2 0.47404019E+03</rscale>
<asrwt>0</asrwt>
<pdfrwt beam="1">  1       21 0.19076675E-01 0.47404019E+03</pdfrwt>
<pdfrwt beam="2">  1       21 0.63686859E-01 0.47404019E+03</pdfrwt>
<totfact> 0.52640108E+04</totfact>
</mgrwt>
</event>
<event>
 6    0  0.1572624E-007  0.4866469E+03  0.7546771E-02  0.1017324E+00
         21   -1    0    0  502  501  0.00000000000E+00  0.00000000000E+00  0.87879802654E+03  0.87879802654E+03  0.00000000000E+00 0.  1.
         21   -1    0    0  501  502 -0.00000000000E+00 -0.00000000000E+00 -0.67371907045E+02  0.67371907045E+02  0.00000000000E+00 0.  1.
      99926    2    1    2    0    0  0.00000000000E+00 -0.14210854715E-13  0.81142611950E+03  0.94616993359E+03  0.48664689028E+03 0.  0.
         25    1    3    3    0    0 -0.92544704615E+02  0.81877695385E+02  0.25862691832E+03  0.31273610334E+03  0.12509000000E+03 0.  0.
         25    1    3    3    0    0  0.79432336694E+02 -0.10023078551E+03  0.36750449706E+03  0.40873312801E+03  0.12509000000E+03 0.  0.
         25    1    3    3    0    0  0.13112367921E+02  0.18353090122E+02  0.18529470412E+03  0.22470070223E+03  0.12509000000E+03 0.  0.
<mgrwt>
<rscale>  2 0.48664689E+03</rscale>
<asrwt>0</asrwt>
<pdfrwt beam="1">  1       21 0.12923500E+00 0.48664689E+03</pdfrwt>
<pdfrwt beam="2">  1       21 0.99076339E-02 0.48664689E+03</pdfrwt>
<totfact> 0.32476386E+04</totfact>
</mgrwt>
</event>
<event>
 6    0  0.1572624E-007  0.4572984E+03  0.7546771E-02  0.1025568E+00
         21   -1    0    0  502  501  0.00000000000E+00  0.00000000000E+00  0.15251068493E+03  0.15251068493E+03  0.00000000000E+00 0.  1.
         21   -1    0    0  501  502 -0.00000000000E+00 -0.00000000000E+00 -0.34279870188E+03  0.34279870188E+03  0.00000000000E+00 0.  1.
      99926    2    1    2    0    0  0.71054273576E-14  0.35527136788E-14 -0.19028801695E+03  0.49530938680E+03  0.45729843566E+03 0.  0.
         25    1    3    3    0    0 -0.33484599550E+02 -0.82682855689E+01 -0.11074540687E+03  0.17059201680E+03  0.12509000000E+03 0.  0.
         25    1    3    3    0    0  0.13400945642E+02  0.68296468721E+02  0.30659860460E+02  0.14639510964E+03  0.12509000000E+03 0.  0.
         25    1    3    3    0    0  0.20083653908E+02 -0.60028183152E+02 -0.11020247054E+03  0.17832226036E+03  0.12509000000E+03 0.  0.
<mgrwt>
<rscale>  2 0.45729844E+03</rscale>
<asrwt>0</asrwt>
<pdfrwt beam="1">  1       21 0.22428042E-01 0.45729844E+03</pdfrwt>
<pdfrwt beam="2">  1       21 0.50411573E-01 0.45729844E+03</pdfrwt>
<totfact> 0.64418017E+04</totfact>
</mgrwt>
</event>
<event>
 6    0  0.1572624E-007  0.4542004E+03  0.7546771E-02  0.1026477E+00
         21   -1    0    0  502  501  0.00000000000E+00  0.00000000000E+00  0.79871768643E+03  0.79871768643E+03  0.00000000000E+00 0. -1.
         21   -1    0    0  501  502 -0.00000000000E+00 -0.00000000000E+00 -0.64571614748E+02  0.64571614748E+02  0.00000000000E+00 0. -1.
      99926    2    1    2    0    0 -0.35527136788E-14 -0.35527136788E-14  0.73414607168E+03  0.86328930118E+03  0.45420035553E+03 0.  0.
         25    1    3    3    0    0 -0.33267372371E+02  0.52575290564E+02  0.42368801684E+03  0.44612769803E+03  0.12509000000E+03 0.  0.
         25    1    3    3    0    0  0.39712799187E+01  0.25352620776E+02  0.15722708257E+03  0.20254972238E+03  0.12509000000E+03 0.  0.
         25    1    3    3    0    0  0.29296092452E+02 -0.77927911340E+02  0.15323097228E+03  0.21461188076E+03  0.12509000000E+03 0.  0.
<mgrwt>
<rscale>  2 0.45420036E+03</rscale>
<asrwt>0</asrwt>
<pdfrwt beam="1">  1       21 0.11745848E+00 0.45420036E+03</pdfrwt>
<pdfrwt beam="2">  1       21 0.94958262E-02 0.45420036E+03</pdfrwt>
<totfact> 0.45132965E+04</totfact>
</mgrwt>
</event>
<event>
 6    0  0.1572624E-007  0.4238887E+03  0.7546771E-02  0.1035808E+00
         21   -1    0    0  502  501  0.00000000000E+00  0.00000000000E+00  0.12521444212E+03  0.12521444212E+03  0.00000000000E+00 0.  1.
         21   -1    0    0  501  502 -0.00000000000E+00 -0.00000000000E+00 -0.35874786746E+03  0.35874786746E+03  0.00000000000E+00 0.  1.
      99926    2    1    2    0    0  0.00000000000E+00  0.00000000000E+00 -0.23353342535E+03  0.48396230958E+03  0.42388873109E+03 0.  0.
         25    1    3    3    0    0 -0.36898049863E+02 -0.13869249331E+02 -0.12886413971E+02  0.13178539345E+03  0.12509000000E+03 0.  0.
         25    1    3    3    0    0  0.42505402979E+02 -0.31807070717E+02 -0.14582236664E+03  0.19932403203E+03  0.12509000000E+03 0.  0.
         25    1    3    3    0    0 -0.56073531157E+01  0.45676320048E+02 -0.74824644732E+02  0.15285288411E+03  0.12509000000E+03 0.  0.
<mgrwt>
<rscale>  2 0.42388873E+03</rscale>
<asrwt>0</asrwt>
<pdfrwt beam="1">  1       21 0.18413889E-01 0.42388873E+03</pdfrwt>
<pdfrwt beam="2">  1       21 0.52757039E-01 0.42388873E+03</pdfrwt>
<totfact> 0.85697395E+04</totfact>
</mgrwt>
</event>
<event>
 6    0  0.1572624E-007  0.4560855E+03  0.7546771E-02  0.1025923E+00
         21   -1    0    0  502  501  0.00000000000E+00  0.00000000000E+00  0.13093589309E+03  0.13093589309E+03  0.00000000000E+00 0.  1.
         21   -1    0    0  501  502 -0.00000000000E+00 -0.00000000000E+00 -0.39716759104E+03  0.39716759104E+03  0.00000000000E+00 0.  1.
      99926    2    1    2    0    0  0.00000000000E+00  0.17763568394E-14 -0.26623169795E+03  0.52810348412E+03  0.45608548864E+03 0.  0.
         25    1    3    3    0    0 -0.11978849838E+02 -0.23042514166E+02 -0.11221047090E+03  0.17003866673E+03  0.12509000000E+03 0.  0.
         25    1    3    3    0    0  0.99436044520E+02  0.30351355343E+02 -0.11833990276E+03  0.20114813548E+03  0.12509000000E+03 0.  0.
         25    1    3    3    0    0 -0.87457194682E+02 -0.73088411776E+01 -0.35681324289E+02  0.15691668192E+03  0.12509000000E+03 0.  0.
<mgrwt>
<rscale>  2 0.45608549E+03</rscale>
<asrwt>0</asrwt>
<pdfrwt beam="1">  1       21 0.19255278E-01 0.45608549E+03</pdfrwt>
<pdfrwt beam="2">  1       21 0.58406999E-01 0.45608549E+03</pdfrwt>
<totfact> 0.62793074E+04</totfact>
</mgrwt>
</event>
<event>
 6    0  0.1572624E-007  0.4515214E+03  0.7546771E-02  0.1027269E+00
         21   -1    0    0  502  501  0.00000000000E+00  0.00000000000E+00  0.99083299433E+02  0.99083299433E+02  0.00000000000E+00 0.  1.
         21   -1    0    0  501  502 -0.00000000000E+00 -0.00000000000E+00 -0.51439435900E+03  0.51439435900E+03  0.00000000000E+00 0.  1.
      99926    2    1    2    0    0  0.71054273576E-14  0.00000000000E+00 -0.41531105957E+03  0.61347765844E+03  0.45152138510E+03 0.  0.
         25    1    3    3    0    0  0.48190498564E+01  0.77511624391E+02 -0.10743366055E+03  0.18226567059E+03  0.12509000000E+03 0.  0.
         25    1    3    3    0    0  0.45257782704E+02 -0.94090390801E+02 -0.13635227695E+03  0.21246345584E+03  0.12509000000E+03 0.  0.
         25    1    3    3    0    0 -0.50076832560E+02  0.16578766409E+02 -0.17152512206E+03  0.21874853200E+03  0.12509000000E+03 0.  0.
<mgrwt>
<rscale>  2 0.45152139E+03</rscale>
<asrwt>0</asrwt>
<pdfrwt beam="1">  1       21 0.14571073E-01 0.45152139E+03</pdfrwt>
<pdfrwt beam="2">  1       21 0.75646230E-01 0.45152139E+03</pdfrwt>
<totfact> 0.59473462E+04</totfact>
</mgrwt>
</event>
<event>
 6    0  0.1572624E-007  0.4564280E+03  0.7546771E-02  0.1025822E+00
         21   -1    0    0  502  501  0.00000000000E+00  0.00000000000E+00  0.53385890361E+02  0.53385890361E+02  0.00000000000E+00 0.  1.
         21   -1    0    0  501  502 -0.00000000000E+00 -0.00000000000E+00 -0.97556915685E+03  0.97556915685E+03  0.00000000000E+00 0.  1.
      99926    2    1    2    0    0  0.71054273576E-14  0.00000000000E+00 -0.92218326649E+03  0.10289550472E+04  0.45642799234E+03 0.  0.
         25    1    3    3    0    0  0.27017670691E+02 -0.25172761950E+02 -0.31939121451E+03  0.34499547602E+03  0.12509000000E+03 0.  0.
         25    1    3    3    0    0  0.45041011108E+02  0.79402195028E+02 -0.20203563307E+03  0.25455707884E+03  0.12509000000E+03 0.  0.
         25    1    3    3    0    0 -0.72058681799E+02 -0.54229433078E+02 -0.40075641892E+03  0.42940249235E+03  0.12509000000E+03 0.  0.
<mgrwt>
<rscale>  2 0.45642799E+03</rscale>
<asrwt>0</asrwt>
<pdfrwt beam="1">  1       21 0.78508664E-02 0.45642799E+03</pdfrwt>
<pdfrwt beam="2">  1       21 0.14346605E+00 0.45642799E+03</pdfrwt>
<totfact> 0.37637846E+04</totfact>
</mgrwt>
</event>
<event>
 6    0  0.1572624E-007  0.4524748E+03  0.7546771E-02  0.1026987E+00
         21   -1    0    0  502  501  0.00000000000E+00  0.00000000000E+00  0.86008719273E+02  0.86008719273E+02  0.00000000000E+00 0.  1.
         21   -1    0    0  501  502 -0.00000000000E+00 -0.00000000000E+00 -0.59509490154E+03  0.59509490154E+03  0.00000000000E+00 0.  1.
      99926    2    1    2    0    0  0.35527136788E-14  0.00000000000E+00 -0.50908618227E+03  0.68110362082E+03  0.45247475213E+03 0.  0.
         25    1    3    3    0    0  0.32429555266E+02 -0.18812357219E+02 -0.26899389744E+03  0.29901639721E+03  0.12509000000E+03 0.  0.
         25    1    3    3    0    0 -0.45586256192E+02 -0.34079858756E+02 -0.46184466982E+02  0.14498295285E+03  0.12509000000E+03 0.  0.
         25    1    3    3    0    0  0.13156700926E+02  0.52892215975E+02 -0.19390781785E+03  0.23710427076E+03  0.12509000000E+03 0.  0.
<mgrwt>
<rscale>  2 0.45247475E+03</rscale>
<asrwt>0</asrwt>
<pdfrwt beam="1">  1       21 0.12648341E-01 0.45247475E+03</pdfrwt>
<pdfrwt beam="2">  1       21 0.87513955E-01 0.45247475E+03</pdfrwt>
<totfact> 0.55027339E+04</totfact>
</mgrwt>
</event>
<event>
 6    0  0.1572624E-007  0.4401685E+03  0.7546771E-02  0.1030695E+00
         21   -1    0    0  502  501  0.00000000000E+00  0.00000000000E+00  0.25717569047E+03  0.25717569047E+03  0.00000000000E+00 0.  1.
         21   -1    0    0  501  502 -0.00000000000E+00 -0.00000000000E+00 -0.18834232921E+03  0.18834232921E+03  0.00000000000E+00 0.  1.
      99926    2    1    2    0    0 -0.88817841970E-15 -0.17763568394E-14  0.68833361259E+02  0.44551801968E+03  0.44016846120E+03 0.  0.
         25    1    3    3    0    0 -0.73096628735E+01 -0.73111502499E+01 -0.36681614865E+02  0.13076671235E+03  0.12509000000E+03 0.  0.
         25    1    3    3    0    0 -0.12824215887E+02  0.62885148697E+02  0.10653072126E+03  0.17639530921E+03  0.12509000000E+03 0.  0.
         25    1    3    3    0    0  0.20133878761E+02 -0.55573998447E+02 -0.10157451375E+01  0.13835599812E+03  0.12509000000E+03 0.  0.
<mgrwt>
<rscale>  2 0.44016846E+03</rscale>
<asrwt>0</asrwt>
<pdfrwt beam="1">  1       21 0.37819955E-01 0.44016846E+03</pdfrwt>
<pdfrwt beam="2">  1       21 0.27697401E-01 0.44016846E+03</pdfrwt>
<totfact> 0.78083764E+04</totfact>
</mgrwt>
</event>
<event>
 6    0  0.1572624E-007  0.4615104E+03  0.7546771E-02  0.1024344E+00
         21   -1    0    0  502  501  0.00000000000E+00  0.00000000000E+00  0.56490869238E+03  0.56490869238E+03  0.00000000000E+00 0. -1.
         21   -1    0    0  501  502 -0.00000000000E+00 -0.00000000000E+00 -0.94259403376E+02  0.94259403376E+02  0.00000000000E+00 0. -1.
      99926    2    1    2    0    0  0.71054273576E-14  0.00000000000E+00  0.47064928901E+03  0.65916809576E+03  0.46151037391E+03 0.  0.
         25    1    3    3    0    0  0.39851746986E+02 -0.46353482335E+01  0.56851996259E+02  0.14314085989E+03  0.12509000000E+03 0.  0.
         25    1    3    3    0    0 -0.70433066013E+02 -0.65986496170E+02  0.17582739063E+03  0.23638488501E+03  0.12509000000E+03 0.  0.
         25    1    3    3    0    0  0.30581319027E+02  0.70621844404E+02  0.23796990212E+03  0.27964235086E+03  0.12509000000E+03 0.  0.
<mgrwt>
<rscale>  2 0.46151037E+03</rscale>
<asrwt>0</asrwt>
<pdfrwt beam="1">  1       21 0.83074806E-01 0.46151037E+03</pdfrwt>
<pdfrwt beam="2">  1       21 0.13861677E-01 0.46151037E+03</pdfrwt>
<totfact> 0.52431803E+04</totfact>
</mgrwt>
</event>
<event>
 6    0  0.1572624E-007  0.4673887E+03  0.7546771E-02  0.1022660E+00
         21   -1    0    0  502  501  0.00000000000E+00  0.00000000000E+00  0.18320814542E+04  0.18320814542E+04  0.00000000000E+00 0. -1.
         21   -1    0    0  501  502 -0.00000000000E+00 -0.00000000000E+00 -0.29809289920E+02  0.29809289920E+02  0.00000000000E+00 0. -1.
      99926    2    1    2    0    0  0.00000000000E+00  0.71054273576E-14  0.18022721643E+04  0.18618907442E+04  0.46738869146E+03 0.  0.
         25    1    3    3    0    0  0.63360088811E+02  0.12449368043E+02  0.37671109827E+03  0.40215450673E+03  0.12509000000E+03 0.  0.
         25    1    3    3    0    0 -0.37966447934E+02  0.33218880984E+02  0.34053152294E+03  0.36627062596E+03  0.12509000000E+03 0.  0.
         25    1    3    3    0    0 -0.25393640877E+02 -0.45668249026E+02  0.10850295431E+04  0.10934656115E+04  0.12509000000E+03 0.  0.
<mgrwt>
<rscale>  2 0.46738869E+03</rscale>
<asrwt>0</asrwt>
<pdfrwt beam="1">  1       21 0.26942367E+00 0.46738869E+03</pdfrwt>
<pdfrwt beam="2">  1       21 0.43837204E-02 0.46738869E+03</pdfrwt>
<totfact> 0.14639432E+04</totfact>
</mgrwt>
</event>
<event>
 6    0  0.1572624E-007  0.4469345E+03  0.7546771E-02  0.1028640E+00
         21   -1    0    0  502  501  0.00000000000E+00  0.00000000000E+00  0.74500193458E+03  0.74500193458E+03  0.00000000000E+00 0.  1.
         21   -1    0    0  501  502 -0.00000000000E+00 -0.00000000000E+00 -0.67030162568E+02  0.67030162568E+02  0.00000000000E+00 0.  1.
      99926    2    1    2    0    0  0.00000000000E+00 -0.35527136788E-14  0.67797177201E+03  0.81203209715E+03  0.44693445062E+03 0.  0.
         25    1    3    3    0    0 -0.34322704509E+02 -0.19515798504E+02  0.84713156703E+02  0.15614974049E+03  0.12509000000E+03 0.  0.
         25    1    3    3    0    0 -0.36406396878E+02  0.32301929375E+02  0.25576274935E+03  0.28884413172E+03  0.12509000000E+03 0.  0.
         25    1    3    3    0    0  0.70729101387E+02 -0.12786130871E+02  0.33749586595E+03  0.36703822493E+03  0.12509000000E+03 0.  0.
<mgrwt>
<rscale>  2 0.44693445E+03</rscale>
<asrwt>0</asrwt>
<pdfrwt beam="1">  1       21 0.10955910E+00 0.44693445E+03</pdfrwt>
<pdfrwt beam="2">  1       21 0.98573773E-02 0.44693445E+03</pdfrwt>
<totfact> 0.50296941E+04</totfact>
</mgrwt>
</event>
<event>
 6    0  0.1572624E-007  0.4581810E+03  0.7546771E-02  0.1025310E+00
         21   -1    0    0  502  501  0.00000000000E+00  0.00000000000E+00  0.31901815622E+02  0.31901815622E+02  0.00000000000E+00 0.  1.
         21   -1    0    0  501  502 -0.00000000000E+00 -0.00000000000E+00 -0.16451247424E+04  0.16451247424E+04  0.00000000000E+00 0.  1.
      99926    2    1    2    0    0  0.71054273576E-14  0.00000000000E+00 -0.16132229267E+04  0.16770265580E+04  0.45818103936E+03 0.  0.
         25    1    3    3    0    0 -0.22790992053E+02 -0.44535023236E+02 -0.95871177339E+03  0.96813148391E+03  0.12509000000E+03 0.  0.
         25    1    3    3    0    0  0.55662837986E+02  0.21619975268E+02 -0.38222703618E+03  0.40658429649E+03  0.12509000000E+03 0.  0.
         25    1    3    3    0    0 -0.32871845933E+02  0.22915047968E+02 -0.27228411717E+03  0.30231077758E+03  0.12509000000E+03 0.  0.
<mgrwt>
<rscale>  2 0.45818104E+03</rscale>
<asrwt>0</asrwt>
<pdfrwt beam="1">  1       21 0.46914424E-02 0.45818104E+03</pdfrwt>
<pdfrwt beam="2">  1       21 0.24193016E+00 0.45818104E+03</pdfrwt>
<totfact> 0.19263697E+04</totfact>
</mgrwt>
</event>
<event>
 6    0  0.1572624E-007  0.4625271E+03  0.7546771E-02  0.1024051E+00
         21   -1    0    0  502  501  0.00000000000E+00  0.00000000000E+00  0.17886791302E+03  0.17886791302E+03  0.00000000000E+00 0. -1.
         21   -1    0    0  501  502 -0.00000000000E+00 -0.00000000000E+00 -0.29900739979E+03  0.29900739979E+03  0.00000000000E+00 0. -1.
      99926    2    1    2    0    0  0.00000000000E+00 -0.71054273576E-14 -0.12013948677E+03  0.47787531281E+03  0.46252710009E+03 0.  0.
         25    1    3    3    0    0  0.55262569774E+02  0.97325290107E+01 -0.90208620561E+02  0.16411513356E+03  0.12509000000E+03 0.  0.
         25    1    3    3    0    0  0.39714312748E+02 -0.54849113329E+02 -0.46155515042E+02  0.14954427953E+03  0.12509000000E+03 0.  0.
         25    1    3    3    0    0 -0.94976882522E+02  0.45116584319E+02  0.16224648837E+02  0.16421589973E+03  0.12509000000E+03 0.  0.
<mgrwt>
<rscale>  2 0.46252710E+03</rscale>
<asrwt>0</asrwt>
<pdfrwt beam="1">  1       21 0.26304105E-01 0.46252710E+03</pdfrwt>
<pdfrwt beam="2">  1       21 0.43971677E-01 0.46252710E+03</pdfrwt>
<totfact> 0.63006904E+04</totfact>
</mgrwt>
</event>
<event>
 6    0  0.1572624E-007  0.4536552E+03  0.7546771E-02  0.1026638E+00
         21   -1    0    0  502  501  0.00000000000E+00  0.00000000000E+00  0.61610575663E+02  0.61610575663E+02  0.00000000000E+00 0. -1.
         21   -1    0    0  501  502 -0.00000000000E+00 -0.00000000000E+00 -0.83509642074E+03  0.83509642074E+03  0.00000000000E+00 0. -1.
      99926    2    1    2    0    0  0.35527136788E-14  0.71054273576E-14 -0.77348584508E+03  0.89670699640E+03  0.45365524891E+03 0.  0.
         25    1    3    3    0    0 -0.13643876468E+02  0.53196677740E+02 -0.11465578169E+03  0.17835217482E+03  0.12509000000E+03 0.  0.
         25    1    3    3    0    0 -0.28887119245E+02  0.20404071257E+02 -0.37259344841E+03  0.39461902854E+03  0.12509000000E+03 0.  0.
         25    1    3    3    0    0  0.42530995713E+02 -0.73600748998E+02 -0.28623661497E+03  0.32373579305E+03  0.12509000000E+03 0.  0.
<mgrwt>
<rscale>  2 0.45365525E+03</rscale>
<asrwt>0</asrwt>
<pdfrwt beam="1">  1       21 0.90603785E-02 0.45365525E+03</pdfrwt>
<pdfrwt beam="2">  1       21 0.12280830E+00 0.45365525E+03</pdfrwt>
<totfact> 0.43836104E+04</totfact>
</mgrwt>
</event>
<event>
 6    0  0.1572624E-007  0.4546287E+03  0.7546771E-02  0.1026351E+00
         21   -1    0    0  502  501  0.00000000000E+00  0.00000000000E+00  0.43165673507E+03  0.43165673507E+03  0.00000000000E+00 0.  1.
         21   -1    0    0  501  502 -0.00000000000E+00 -0.00000000000E+00 -0.11970581876E+03  0.11970581876E+03  0.00000000000E+00 0.  1.
      99926    2    1    2    0    0  0.00000000000E+00  0.00000000000E+00  0.31195091631E+03  0.55136255382E+03  0.45462874037E+03 0.  0.
         25    1    3    3    0    0  0.57624424022E+02 -0.23949995322E+02  0.94705167319E+02  0.16885127579E+03  0.12509000000E+03 0.  0.
         25    1    3    3    0    0 -0.44820859500E+02  0.27025856295E+02  0.48733204285E+01  0.13568553242E+03  0.12509000000E+03 0.  0.
         25    1    3    3    0    0 -0.12803564521E+02 -0.30758609734E+01  0.21237242856E+03  0.24682574562E+03  0.12509000000E+03 0.  0.
<mgrwt>
<rscale>  2 0.45462874E+03</rscale>
<asrwt>0</asrwt>
<pdfrwt beam="1">  1       21 0.63478931E-01 0.45462874E+03</pdfrwt>
<pdfrwt beam="2">  1       21 0.17603797E-01 0.45462874E+03</pdfrwt>
<totfact> 0.61958351E+04</totfact>
</mgrwt>
</event>
<event>
 6    0  0.1572624E-007  0.4502096E+03  0.7546771E-02  0.1027660E+00
         21   -1    0    0  502  501  0.00000000000E+00  0.00000000000E+00  0.95662011852E+02  0.95662011852E+02  0.00000000000E+00 0. -1.
         21   -1    0    0  501  502 -0.00000000000E+00 -0.00000000000E+00 -0.52970006288E+03  0.52970006288E+03  0.00000000000E+00 0. -1.
      99926    2    1    2    0    0  0.00000000000E+00  0.00000000000E+00 -0.43403805103E+03  0.62536207473E+03  0.45020961204E+03 0.  0.
         25    1    3    3    0    0  0.81631102211E+01  0.23200760296E+01 -0.83395655710E+02  0.15058008704E+03  0.12509000000E+03 0.  0.
         25    1    3    3    0    0 -0.81765157428E+02  0.57218602114E+02 -0.14349724152E+03  0.21493830701E+03  0.12509000000E+03 0.  0.
         25    1    3    3    0    0  0.73602047207E+02 -0.59538678144E+02 -0.20714515379E+03  0.25984368068E+03  0.12509000000E+03 0.  0.
<mgrwt>
<rscale>  2 0.45020961E+03</rscale>
<asrwt>0</asrwt>
<pdfrwt beam="1">  1       21 0.14067943E-01 0.45020961E+03</pdfrwt>
<pdfrwt beam="2">  1       21 0.77897069E-01 0.45020961E+03</pdfrwt>
<totfact> 0.59356923E+04</totfact>
</mgrwt>
</event>
<event>
 6    0  0.1572624E-007  0.4537144E+03  0.7546771E-02  0.1026620E+00
         21   -1    0    0  502  501  0.00000000000E+00  0.00000000000E+00  0.14251300486E+04  0.14251300486E+04  0.00000000000E+00 0.  1.
         21   -1    0    0  501  502 -0.00000000000E+00 -0.00000000000E+00 -0.36111930529E+02  0.36111930529E+02  0.00000000000E+00 0.  1.
      99926    2    1    2    0    0  0.88817841970E-15  0.71054273576E-14  0.13890181181E+04  0.14612419791E+04  0.45371443579E+03 0.  0.
         25    1    3    3    0    0  0.12483023263E+02  0.70848680376E+02  0.82662331563E+03  0.83912393330E+03  0.12509000000E+03 0.  0.
         25    1    3    3    0    0 -0.75022680444E+01 -0.89405754697E+01  0.24417368065E+03  0.27459882072E+03  0.12509000000E+03 0.  0.
         25    1    3    3    0    0 -0.49807552190E+01 -0.61908104906E+02  0.31822112178E+03  0.34751922511E+03  0.12509000000E+03 0.  0.
<mgrwt>
<rscale>  2 0.45371444E+03</rscale>
<asrwt>0</asrwt>
<pdfrwt beam="1">  1       21 0.20957791E+00 0.45371444E+03</pdfrwt>
<pdfrwt beam="2">  1       21 0.53105790E-02 0.45371444E+03</pdfrwt>
<totfact> 0.24993305E+04</totfact>
</mgrwt>
</event>
<event>
 6    0  0.1572624E-007  0.4763537E+03  0.7546771E-02  0.1020142E+00
         21   -1    0    0  502  501  0.00000000000E+00  0.00000000000E+00  0.66756506698E+02  0.66756506698E+02  0.00000000000E+00 0. -1.
         21   -1    0    0  501  502 -0.00000000000E+00 -0.00000000000E+00 -0.84977789451E+03  0.84977789451E+03  0.00000000000E+00 0. -1.
      99926    2    1    2    0    0  0.00000000000E+00  0.00000000000E+00 -0.78302138782E+03  0.91653440121E+03  0.47635366570E+03 0.  0.
         25    1    3    3    0    0 -0.20544683927E+02  0.80873463763E+02 -0.43866143357E+03  0.46371754612E+03  0.12509000000E+03 0.  0.
         25    1    3    3    0    0  0.10121016704E+01 -0.78372404310E+02 -0.26509506141E+03  0.30342405606E+03  0.12509000000E+03 0.  0.
         25    1    3    3    0    0  0.19532582257E+02 -0.25010594537E+01 -0.79264892830E+02  0.14939279903E+03  0.12509000000E+03 0.  0.
<mgrwt>
<rscale>  2 0.47635367E+03</rscale>
<asrwt>0</asrwt>
<pdfrwt beam="1">  1       21 0.98171340E-02 0.47635367E+03</pdfrwt>
<pdfrwt beam="2">  1       21 0.12496733E+00 0.47635367E+03</pdfrwt>
<totfact> 0.36102723E+04</totfact>
</mgrwt>
</event>
<event>
 6    0  0.1572624E-007  0.4579500E+03  0.7546771E-02  0.1025377E+00
         21   -1    0    0  502  501  0.00000000000E+00  0.00000000000E+00  0.12056803807E+03  0.12056803807E+03  0.00000000000E+00 0. -1.
         21   -1    0    0  501  502 -0.00000000000E+00 -0.00000000000E+00 -0.43485441153E+03  0.43485441153E+03  0.00000000000E+00 0. -1.
      99926    2    1    2    0    0  0.13322676296E-14  0.00000000000E+00 -0.31428637346E+03  0.55542244960E+03  0.45794996777E+03 0.  0.
         25    1    3    3    0    0 -0.27296959706E+02 -0.59662323362E+02 -0.14277156586E+03  0.20083810633E+03  0.12509000000E+03 0.  0.
         25    1    3    3    0    0 -0.33713167924E+01  0.49026394010E+02 -0.18049998269E+03  0.22503934086E+03  0.12509000000E+03 0.  0.
         25    1    3    3    0    0  0.30668276499E+02  0.10635929351E+02  0.89851750820E+01  0.12954500240E+03  0.12509000000E+03 0.  0.
<mgrwt>
<rscale>  2 0.45794997E+03</rscale>
<asrwt>0</asrwt>
<pdfrwt beam="1">  1       21 0.17730594E-01 0.45794997E+03</pdfrwt>
<pdfrwt beam="2">  1       21 0.63949177E-01 0.45794997E+03</pdfrwt>
<totfact> 0.60094860E+04</totfact>
</mgrwt>
</event>
<event>
 6    0  0.1572624E-007  0.4606312E+03  0.7546771E-02  0.1024598E+00
         21   -1    0    0  502  501  0.00000000000E+00  0.00000000000E+00  0.48364882712E+03  0.48364882712E+03  0.00000000000E+00 0.  1.
         21   -1    0    0  501  502 -0.00000000000E+00 -0.00000000000E+00 -0.10967727719E+03  0.10967727719E+03  0.00000000000E+00 0.  1.
      99926    2    1    2    0    0  0.35527136788E-14 -0.18873791419E-14  0.37397154993E+03  0.59332610430E+03  0.46063124719E+03 0.  0.
         25    1    3    3    0    0 -0.17795262059E+02 -0.48334080741E+00  0.14638434147E+03  0.19337215026E+03  0.12509000000E+03 0.  0.
         25    1    3    3    0    0  0.68541304104E+02  0.27928103404E+02  0.21781288699E+03  0.26185463747E+03  0.12509000000E+03 0.  0.
         25    1    3    3    0    0 -0.50746042045E+02 -0.27444762597E+02  0.97743214778E+01  0.13809931657E+03  0.12509000000E+03 0.  0.
<mgrwt>
<rscale>  2 0.46063125E+03</rscale>
<asrwt>0</asrwt>
<pdfrwt beam="1">  1       21 0.71124827E-01 0.46063125E+03</pdfrwt>
<pdfrwt beam="2">  1       21 0.16129012E-01 0.46063125E+03</pdfrwt>
<totfact> 0.56532724E+04</totfact>
</mgrwt>
</event>
<event>
 6    0  0.1572624E-007  0.4618058E+03  0.7546771E-02  0.1024259E+00
         21   -1    0    0  502  501  0.00000000000E+00  0.00000000000E+00  0.10691954738E+04  0.10691954738E+04  0.00000000000E+00 0. -1.
         21   -1    0    0  501  502 -0.00000000000E+00 -0.00000000000E+00 -0.49865676619E+02  0.49865676619E+02  0.00000000000E+00 0. -1.
      99926    2    1    2    0    0  0.00000000000E+00 -0.32196467714E-14  0.10193297972E+04  0.11190611505E+04  0.46180582820E+03 0.  0.
         25    1    3    3    0    0 -0.65511306331E+02  0.61706968134E+02  0.44754410133E+03  0.47333150319E+03  0.12509000000E+03 0.  0.
         25    1    3    3    0    0  0.87346673331E+02  0.77665033660E+00  0.36017044652E+03  0.39115253185E+03  0.12509000000E+03 0.  0.
         25    1    3    3    0    0 -0.21835366999E+02 -0.62483618470E+02  0.21161524936E+03  0.25457711541E+03  0.12509000000E+03 0.  0.
<mgrwt>
<rscale>  2 0.46180583E+03</rscale>
<asrwt>0</asrwt>
<pdfrwt beam="1">  1       21 0.15723461E+00 0.46180583E+03</pdfrwt>
<pdfrwt beam="2">  1       21 0.73331884E-02 0.46180583E+03</pdfrwt>
<totfact> 0.33043839E+04</totfact>
</mgrwt>
</event>
<event>
 6    0  0.1572624E-007  0.4511797E+03  0.7546771E-02  0.1027371E+00
         21   -1    0    0  502  501  0.00000000000E+00  0.00000000000E+00  0.27998193055E+03  0.27998193055E+03  0.00000000000E+00 0. -1.
         21   -1    0    0  501  502 -0.00000000000E+00 -0.00000000000E+00 -0.18176451049E+03  0.18176451049E+03  0.00000000000E+00 0. -1.
      99926    2    1    2    0    0 -0.88817841970E-15  0.14210854715E-13  0.98217420059E+02  0.46174644105E+03  0.45117969171E+03 0.  0.
         25    1    3    3    0    0 -0.30293330902E+02  0.14992536142E+02  0.46201280239E+01  0.12965845796E+03  0.12509000000E+03 0.  0.
         25    1    3    3    0    0  0.32495833134E+01 -0.81863266671E+02  0.11158214994E+03  0.18657502113E+03  0.12509000000E+03 0.  0.
         25    1    3    3    0    0  0.27043747588E+02  0.66870730529E+02 -0.17984857909E+02  0.14551296196E+03  0.12509000000E+03 0.  0.
<mgrwt>
<rscale>  2 0.45117969E+03</rscale>
<asrwt>0</asrwt>
<pdfrwt beam="1">  1       21 0.41173813E-01 0.45117969E+03</pdfrwt>
<pdfrwt beam="2">  1       21 0.26730075E-01 0.45117969E+03</pdfrwt>
<totfact> 0.70157014E+04</totfact>
</mgrwt>
</event>
<event>
 6    0  0.1572624E-007  0.4536180E+03  0.7546771E-02  0.1026649E+00
         21   -1    0    0  502  501  0.00000000000E+00  0.00000000000E+00  0.43827538504E+03  0.43827538504E+03  0.00000000000E+00 0. -1.
         21   -1    0    0  501  502 -0.00000000000E+00 -0.00000000000E+00 -0.11737444437E+03  0.11737444437E+03  0.00000000000E+00 0. -1.
      99926    2    1    2    0    0  0.00000000000E+00 -0.17763568394E-14  0.32090094067E+03  0.55564982941E+03  0.45361803227E+03 0.  0.
         25    1    3    3    0    0  0.81195531504E+01 -0.27630606753E+02 -0.27044329924E+01  0.12839080820E+03  0.12509000000E+03 0.  0.
         25    1    3    3    0    0  0.53963912630E+02  0.13541968174E+02  0.18347534513E+03  0.22892400298E+03  0.12509000000E+03 0.  0.
         25    1    3    3    0    0 -0.62083465780E+02  0.14088638579E+02  0.14013002852E+03  0.19833501823E+03  0.12509000000E+03 0.  0.
<mgrwt>
<rscale>  2 0.45361803E+03</rscale>
<asrwt>0</asrwt>
<pdfrwt beam="1">  1       21 0.64452262E-01 0.45361803E+03</pdfrwt>
<pdfrwt beam="2">  1       21 0.17260948E-01 0.45361803E+03</pdfrwt>
<totfact> 0.62171605E+04</totfact>
</mgrwt>
</event>
<event>
 6    0  0.1572624E-007  0.4513261E+03  0.7546771E-02  0.1027327E+00
         21   -1    0    0  502  501  0.00000000000E+00  0.00000000000E+00  0.42274114417E+03  0.42274114417E+03  0.00000000000E+00 0.  1.
         21   -1    0    0  501  502 -0.00000000000E+00 -0.00000000000E+00 -0.12046098137E+03  0.12046098137E+03  0.00000000000E+00 0.  1.
      99926    2    1    2    0    0  0.00000000000E+00  0.00000000000E+00  0.30228016280E+03  0.54320212554E+03  0.45132610424E+03 0.  0.
         25    1    3    3    0    0  0.53568837866E+00  0.93247148110E+02  0.98162603011E+02  0.18433318291E+03  0.12509000000E+03 0.  0.
         25    1    3    3    0    0 -0.33392299154E+02 -0.28630899269E+02  0.15980654910E+03  0.20765455755E+03  0.12509000000E+03 0.  0.
         25    1    3    3    0    0  0.32856610775E+02 -0.64616248840E+02  0.44311010689E+02  0.15121438508E+03  0.12509000000E+03 0.  0.
<mgrwt>
<rscale>  2 0.45132610E+03</rscale>
<asrwt>0</asrwt>
<pdfrwt beam="1">  1       21 0.62167815E-01 0.45132610E+03</pdfrwt>
<pdfrwt beam="2">  1       21 0.17714850E-01 0.45132610E+03</pdfrwt>
<totfact> 0.64163092E+04</totfact>
</mgrwt>
</event>
<event>
 6    0  0.1572624E-007  0.4575574E+03  0.7546771E-02  0.1025492E+00
         21   -1    0    0  502  501  0.00000000000E+00  0.00000000000E+00  0.18248067917E+03  0.18248067917E+03  0.00000000000E+00 0.  1.
         21   -1    0    0  501  502 -0.00000000000E+00 -0.00000000000E+00 -0.28682314679E+03  0.28682314679E+03  0.00000000000E+00 0.  1.
      99926    2    1    2    0    0 -0.24424906542E-14 -0.71054273576E-14 -0.10434246762E+03  0.46930382596E+03  0.45755735216E+03 0.  0.
         25    1    3    3    0    0 -0.16404551024E+01 -0.39237241456E+02 -0.10569610004E+03  0.16840850891E+03  0.12509000000E+03 0.  0.
         25    1    3    3    0    0 -0.22574093006E+02 -0.55284704902E+02  0.23893672892E+02  0.14065704382E+03  0.12509000000E+03 0.  0.
         25    1    3    3    0    0  0.24214548108E+02  0.94521946359E+02 -0.22540040471E+02  0.16023827323E+03  0.12509000000E+03 0.  0.
<mgrwt>
<rscale>  2 0.45755735E+03</rscale>
<asrwt>0</asrwt>
<pdfrwt beam="1">  1       21 0.26835394E-01 0.45755735E+03</pdfrwt>
<pdfrwt beam="2">  1       21 0.42179874E-01 0.45755735E+03</pdfrwt>
<totfact> 0.66135949E+04</totfact>
</mgrwt>
</event>
<event>
 6    0  0.1572624E-007  0.4577788E+03  0.7546771E-02  0.1025427E+00
         21   -1    0    0  502  501  0.00000000000E+00  0.00000000000E+00  0.46653775043E+03  0.46653775043E+03  0.00000000000E+00 0.  1.
         21   -1    0    0  501  502 -0.00000000000E+00 -0.00000000000E+00 -0.11229607620E+03  0.11229607620E+03  0.00000000000E+00 0.  1.
      99926    2    1    2    0    0 -0.17763568394E-14  0.71054273576E-14  0.35424167424E+03  0.57883382663E+03  0.45777880585E+03 0.  0.
         25    1    3    3    0    0 -0.44572554495E+02 -0.70322063305E+02  0.57168629981E+02  0.16077209197E+03  0.12509000000E+03 0.  0.
         25    1    3    3    0    0  0.50518219026E+02  0.34262748486E+02  0.68930621975E+02  0.15532213343E+03  0.12509000000E+03 0.  0.
         25    1    3    3    0    0 -0.59456645311E+01  0.36059314819E+02  0.22814242228E+03  0.26273960123E+03  0.12509000000E+03 0.  0.
<mgrwt>
<rscale>  2 0.45777881E+03</rscale>
<asrwt>0</asrwt>
<pdfrwt beam="1">  1       21 0.68608492E-01 0.45777881E+03</pdfrwt>
<pdfrwt beam="2">  1       21 0.16514129E-01 0.45777881E+03</pdfrwt>
<totfact> 0.58700119E+04</totfact>
</mgrwt>
</event>
<event>
 6    0  0.1572624E-007  0.4471649E+03  0.7546771E-02  0.1028571E+00
         21   -1    0    0  502  501  0.00000000000E+00  0.00000000000E+00  0.42155234764E+03  0.42155234764E+03  0.00000000000E+00 0.  1.
         21   -1    0    0  501  502 -0.00000000000E+00 -0.00000000000E+00 -0.11858340902E+03  0.11858340902E+03  0.00000000000E+00 0.  1.
      99926    2    1    2    0    0  0.13322676296E-14 -0.26645352591E-14  0.30296893862E+03  0.54013575667E+03  0.44716491126E+03 0.  0.
         25    1    3    3    0    0 -0.99349705322E+02  0.20368365560E+02  0.97741797362E+02  0.18837781535E+03  0.12509000000E+03 0.  0.
         25    1    3    3    0    0  0.35240933385E+01  0.63287438019E+01  0.79277780872E+02  0.14827321697E+03  0.12509000000E+03 0.  0.
         25    1    3    3    0    0  0.95825611984E+02 -0.26697109362E+02  0.12594936039E+03  0.20348472435E+03  0.12509000000E+03 0.  0.
<mgrwt>
<rscale>  2 0.44716491E+03</rscale>
<asrwt>0</asrwt>
<pdfrwt beam="1">  1       21 0.61992992E-01 0.44716491E+03</pdfrwt>
<pdfrwt beam="2">  1       21 0.17438737E-01 0.44716491E+03</pdfrwt>
<totfact> 0.66554836E+04</totfact>
</mgrwt>
</event>
<event>
 6    0  0.1572624E-007  0.4782491E+03  0.7546771E-02  0.1019617E+00
         21   -1    0    0  502  501  0.00000000000E+00  0.00000000000E+00  0.31870021557E+02  0.31870021557E+02  0.00000000000E+00 0. -1.
         21   -1    0    0  501  502 -0.00000000000E+00 -0.00000000000E+00 -0.17941801899E+04  0.17941801899E+04  0.00000000000E+00 0. -1.
      99926    2    1    2    0    0  0.00000000000E+00  0.44408920985E-14 -0.17623101684E+04  0.18260502115E+04  0.47824914566E+03 0.  0.
         25    1    3    3    0    0  0.97178132837E+02 -0.42637223880E+02 -0.51397724040E+03  0.53951981809E+03  0.12509000000E+03 0.  0.
         25    1    3    3    0    0 -0.10106559982E+03 -0.73918004008E+01 -0.47496497121E+03  0.50150585855E+03  0.12509000000E+03 0.  0.
         25    1    3    3    0    0  0.38874669871E+01  0.50029024281E+02 -0.77336795678E+03  0.78502453486E+03  0.12509000000E+03 0.  0.
<mgrwt>
<rscale>  2 0.47824915E+03</rscale>
<asrwt>0</asrwt>
<pdfrwt beam="1">  1       21 0.46867667E-02 0.47824915E+03</pdfrwt>
<pdfrwt beam="2">  1       21 0.26385009E+00 0.47824915E+03</pdfrwt>
<totfact> 0.14051696E+04</totfact>
</mgrwt>
</event>
<event>
 6    0  0.1572624E-007  0.4548348E+03  0.7546771E-02  0.1026290E+00
         21   -1    0    0  502  501  0.00000000000E+00  0.00000000000E+00  0.20626573978E+03  0.20626573978E+03  0.00000000000E+00 0.  1.
         21   -1    0    0  501  502 -0.00000000000E+00 -0.00000000000E+00 -0.25073808989E+03  0.25073808989E+03  0.00000000000E+00 0.  1.
      99926    2    1    2    0    0 -0.35527136788E-14  0.00000000000E+00 -0.44472350108E+02  0.45700382966E+03  0.45483481661E+03 0.  0.
         25    1    3    3    0    0  0.46300292826E+02 -0.58770933279E+02  0.36623433939E+02  0.15028813569E+03  0.12509000000E+03 0.  0.
         25    1    3    3    0    0 -0.11933196489E+02  0.77760124391E+02  0.83423549134E+01  0.14800723330E+03  0.12509000000E+03 0.  0.
         25    1    3    3    0    0 -0.34367096337E+02 -0.18989191111E+02 -0.89438138960E+02  0.15870846068E+03  0.12509000000E+03 0.  0.
<mgrwt>
<rscale>  2 0.45483482E+03</rscale>
<asrwt>0</asrwt>
<pdfrwt beam="1">  1       21 0.30333197E-01 0.45483482E+03</pdfrwt>
<pdfrwt beam="2">  1       21 0.36873248E-01 0.45483482E+03</pdfrwt>
<totfact> 0.68489460E+04</totfact>
</mgrwt>
</event>
<event>
 6    0  0.1572624E-007  0.4569445E+03  0.7546771E-02  0.1025671E+00
         21   -1    0    0  502  501  0.00000000000E+00  0.00000000000E+00  0.19611317223E+04  0.19611317223E+04  0.00000000000E+00 0. -1.
         21   -1    0    0  501  502 -0.00000000000E+00 -0.00000000000E+00 -0.26617062861E+02  0.26617062861E+02  0.00000000000E+00 0. -1.
      99926    2    1    2    0    0 -0.35527136788E-14  0.00000000000E+00  0.19345146594E+04  0.19877487852E+04  0.45694448823E+03 0.  0.
         25    1    3    3    0    0 -0.14081858956E+02 -0.41038098623E+01  0.43378998182E+03  0.45170388136E+03  0.12509000000E+03 0.  0.
         25    1    3    3    0    0  0.51751292772E+02 -0.50831053913E+02  0.38329012345E+03  0.40965939411E+03  0.12509000000E+03 0.  0.
         25    1    3    3    0    0 -0.37669433816E+02  0.54934863776E+02  0.11174345542E+04  0.11263855097E+04  0.12509000000E+03 0.  0.
<mgrwt>
<rscale>  2 0.45694449E+03</rscale>
<asrwt>0</asrwt>
<pdfrwt beam="1">  1       21 0.28840163E+00 0.45694449E+03</pdfrwt>
<pdfrwt beam="2">  1       21 0.39142753E-02 0.45694449E+03</pdfrwt>
<totfact> 0.13702806E+04</totfact>
</mgrwt>
</event>
<event>
 6    0  0.1572624E-007  0.4454163E+03  0.7546771E-02  0.1029098E+00
         21   -1    0    0  502  501  0.00000000000E+00  0.00000000000E+00  0.79780231235E+02  0.79780231235E+02  0.00000000000E+00 0. -1.
         21   -1    0    0  501  502 -0.00000000000E+00 -0.00000000000E+00 -0.62169424407E+03  0.62169424407E+03  0.00000000000E+00 0. -1.
      99926    2    1    2    0    0 -0.53290705182E-14  0.71054273576E-14 -0.54191401283E+03  0.70147447530E+03  0.44541625722E+03 0.  0.
         25    1    3    3    0    0 -0.10417950891E+02  0.37289939331E+02 -0.17239844360E+03  0.21648973355E+03  0.12509000000E+03 0.  0.
         25    1    3    3    0    0  0.87557821549E+02  0.24318841253E+02 -0.18941165284E+03  0.24450370240E+03  0.12509000000E+03 0.  0.
         25    1    3    3    0    0 -0.77139870658E+02 -0.61608780584E+02 -0.18010391640E+03  0.24048103936E+03  0.12509000000E+03 0.  0.
<mgrwt>
<rscale>  2 0.44541626E+03</rscale>
<asrwt>0</asrwt>
<pdfrwt beam="1">  1       21 0.11732387E-01 0.44541626E+03</pdfrwt>
<pdfrwt beam="2">  1       21 0.91425623E-01 0.44541626E+03</pdfrwt>
<totfact> 0.57001799E+04</totfact>
</mgrwt>
</event>
<event>
 6    0  0.1572624E-007  0.4573929E+03  0.7546771E-02  0.1025540E+00
         21   -1    0    0  502  501  0.00000000000E+00  0.00000000000E+00  0.24349251789E+03  0.24349251789E+03  0.00000000000E+00 0. -1.
         21   -1    0    0  501  502 -0.00000000000E+00 -0.00000000000E+00 -0.21479949823E+03  0.21479949823E+03  0.00000000000E+00 0. -1.
      99926    2    1    2    0    0 -0.17763568394E-14  0.00000000000E+00  0.28693019660E+02  0.45829201612E+03  0.45739291934E+03 0.  0.
         25    1    3    3    0    0  0.11861739438E+02 -0.11569139674E+03  0.15240178780E+02  0.17147877796E+03  0.12509000000E+03 0.  0.
         25    1    3    3    0    0  0.23440613264E+02  0.47131615503E+02  0.29829609149E+02  0.13895382403E+03  0.12509000000E+03 0.  0.
         25    1    3    3    0    0 -0.35302352702E+02  0.68559781233E+02 -0.16376768269E+02  0.14785941413E+03  0.12509000000E+03 0.  0.
<mgrwt>
<rscale>  2 0.45739292E+03</rscale>
<asrwt>0</asrwt>
<pdfrwt beam="1">  1       21 0.35807723E-01 0.45739292E+03</pdfrwt>
<pdfrwt beam="2">  1       21 0.31588161E-01 0.45739292E+03</pdfrwt>
<totfact> 0.67016634E+04</totfact>
</mgrwt>
</event>
<event>
 6    0  0.1572624E-007  0.4640403E+03  0.7546771E-02  0.1023616E+00
         21   -1    0    0  502  501  0.00000000000E+00  0.00000000000E+00  0.11767631561E+03  0.11767631561E+03  0.00000000000E+00 0.  1.
         21   -1    0    0  501  502 -0.00000000000E+00 -0.00000000000E+00 -0.45746965364E+03  0.45746965364E+03  0.00000000000E+00 0.  1.
      99926    2    1    2    0    0  0.71054273576E-14  0.71054273576E-14 -0.33979333803E+03  0.57514596924E+03  0.46404027128E+03 0.  0.
         25    1    3    3    0    0  0.43947097617E+02  0.19775246233E+02 -0.11066108172E+03  0.17382689913E+03  0.12509000000E+03 0.  0.
         25    1    3    3    0    0 -0.97373321338E+02 -0.70810346511E+02 -0.73850789509E+02  0.18867198015E+03  0.12509000000E+03 0.  0.
         25    1    3    3    0    0  0.53426223721E+02  0.51035100278E+02 -0.15528146680E+03  0.21264708997E+03  0.12509000000E+03 0.  0.
<mgrwt>
<rscale>  2 0.46404027E+03</rscale>
<asrwt>0</asrwt>
<pdfrwt beam="1">  1       21 0.17305341E-01 0.46404027E+03</pdfrwt>
<pdfrwt beam="2">  1       21 0.67274947E-01 0.46404027E+03</pdfrwt>
<totfact> 0.56114769E+04</totfact>
</mgrwt>
</event>
<event>
 6    0  0.1572624E-007  0.4462169E+03  0.7546771E-02  0.1028856E+00
         21   -1    0    0  502  501  0.00000000000E+00  0.00000000000E+00  0.10892369871E+04  0.10892369871E+04  0.00000000000E+00 0. -1.
         21   -1    0    0  501  502 -0.00000000000E+00 -0.00000000000E+00 -0.45699301829E+02  0.45699301829E+02  0.00000000000E+00 0. -1.
      99926    2    1    2    0    0  0.00000000000E+00  0.00000000000E+00  0.10435376853E+04  0.11349362889E+04  0.44621685238E+03 0.  0.
         25    1    3    3    0    0  0.36221033696E+02 -0.33378319425E+01  0.39199409777E+03  0.41307382536E+03  0.12509000000E+03 0.  0.
         25    1    3    3    0    0 -0.51587583800E+02  0.53022420782E+02  0.48967341069E+03  0.51078392021E+03  0.12509000000E+03 0.  0.
         25    1    3    3    0    0  0.15366550103E+02 -0.49684588840E+02  0.16187017682E+03  0.21107854338E+03  0.12509000000E+03 0.  0.
<mgrwt>
<rscale>  2 0.44621685E+03</rscale>
<asrwt>0</asrwt>
<pdfrwt beam="1">  1       21 0.16018189E+00 0.44621685E+03</pdfrwt>
<pdfrwt beam="2">  1       21 0.67204863E-02 0.44621685E+03</pdfrwt>
<totfact> 0.36741020E+04</totfact>
</mgrwt>
</event>
<event>
 6    0  0.1572624E-007  0.4527647E+03  0.7546771E-02  0.1026901E+00
         21   -1    0    0  502  501  0.00000000000E+00  0.00000000000E+00  0.50770618401E+02  0.50770618401E+02  0.00000000000E+00 0. -1.
         21   -1    0    0  501  502 -0.00000000000E+00 -0.00000000000E+00 -0.10094217671E+04  0.10094217671E+04  0.00000000000E+00 0. -1.
      99926    2    1    2    0    0  0.28865798640E-14  0.35527136788E-14 -0.95865114870E+03  0.10601923855E+04  0.45276469537E+03 0.  0.
         25    1    3    3    0    0 -0.11284752938E+01  0.10920116016E+02 -0.32522965519E+03  0.34862925738E+03  0.12509000000E+03 0.  0.
         25    1    3    3    0    0 -0.97178718635E+02 -0.32968374662E+02 -0.35504911107E+03  0.39017687842E+03  0.12509000000E+03 0.  0.
         25    1    3    3    0    0  0.98307193928E+02  0.22048258647E+02 -0.27837238244E+03  0.32138624970E+03  0.12509000000E+03 0.  0.
<mgrwt>
<rscale>  2 0.45276470E+03</rscale>
<asrwt>0</asrwt>
<pdfrwt beam="1">  1       21 0.74662682E-02 0.45276470E+03</pdfrwt>
<pdfrwt beam="2">  1       21 0.14844436E+00 0.45276470E+03</pdfrwt>
<totfact> 0.37556526E+04</totfact>
</mgrwt>
</event>
<event>
 6    0  0.1572624E-007  0.4434075E+03  0.7546771E-02  0.1029706E+00
         21   -1    0    0  502  501  0.00000000000E+00  0.00000000000E+00  0.90646992428E+02  0.90646992428E+02  0.00000000000E+00 0.  1.
         21   -1    0    0  501  502 -0.00000000000E+00 -0.00000000000E+00 -0.54224138606E+03  0.54224138606E+03  0.00000000000E+00 0.  1.
      99926    2    1    2    0    0  0.00000000000E+00 -0.71054273576E-14 -0.45159439364E+03  0.63288837849E+03  0.44340749122E+03 0.  0.
         25    1    3    3    0    0  0.20596836021E+02  0.18130223927E+00 -0.26260295296E+03  0.29160260892E+03  0.12509000000E+03 0.  0.
         25    1    3    3    0    0 -0.56538332961E+02 -0.47468472573E+02 -0.10639916396E+03  0.18005035177E+03  0.12509000000E+03 0.  0.
         25    1    3    3    0    0  0.35941496940E+02  0.47287170334E+02 -0.82592276717E+02  0.16123541780E+03  0.12509000000E+03 0.  0.
<mgrwt>
<rscale>  2 0.44340749E+03</rscale>
<asrwt>0</asrwt>
<pdfrwt beam="1">  1       21 0.13330440E-01 0.44340749E+03</pdfrwt>
<pdfrwt beam="2">  1       21 0.79741378E-01 0.44340749E+03</pdfrwt>
<totfact> 0.62196563E+04</totfact>
</mgrwt>
</event>
<event>
 6    0  0.1572624E-007  0.4562442E+03  0.7546771E-02  0.1025876E+00
         21   -1    0    0  502  501  0.00000000000E+00  0.00000000000E+00  0.23340412102E+03  0.23340412102E+03  0.00000000000E+00 0.  1.
         21   -1    0    0  501  502 -0.00000000000E+00 -0.00000000000E+00 -0.22295957678E+03  0.22295957678E+03  0.00000000000E+00 0.  1.
      99926    2    1    2    0    0  0.71054273576E-14  0.35527136788E-14  0.10444544241E+02  0.45636369781E+03  0.45624416289E+03 0.  0.
         25    1    3    3    0    0  0.46689782382E+02  0.22512340481E+02 -0.33379393947E+02  0.13945763978E+03  0.12509000000E+03 0.  0.
         25    1    3    3    0    0  0.30159844329E+02 -0.54755090588E+02  0.81620612101E+02  0.16191716578E+03  0.12509000000E+03 0.  0.
         25    1    3    3    0    0 -0.76849626711E+02  0.32242750107E+02 -0.37796673913E+02  0.15498889224E+03  0.12509000000E+03 0.  0.
<mgrwt>
<rscale>  2 0.45624416E+03</rscale>
<asrwt>0</asrwt>
<pdfrwt beam="1">  1       21 0.34324136E-01 0.45624416E+03</pdfrwt>
<pdfrwt beam="2">  1       21 0.32788173E-01 0.45624416E+03</pdfrwt>
<totfact> 0.67770740E+04</totfact>
</mgrwt>
</event>
<event>
 6    0  0.1572624E-007  0.4516452E+03  0.7546771E-02  0.1027233E+00
         21   -1    0    0  502  501  0.00000000000E+00  0.00000000000E+00  0.46506643630E+03  0.46506643630E+03  0.00000000000E+00 0.  1.
         21   -1    0    0  501  502 -0.00000000000E+00 -0.00000000000E+00 -0.10965281281E+03  0.10965281281E+03  0.00000000000E+00 0.  1.
      99926    2    1    2    0    0  0.00000000000E+00  0.00000000000E+00  0.35541362349E+03  0.57471924911E+03  0.45164518323E+03 0.  0.
         25    1    3    3    0    0  0.11002436679E+01  0.41394882740E+02  0.43011122137E+02  0.13860812235E+03  0.12509000000E+03 0.  0.
         25    1    3    3    0    0 -0.58968562990E+02  0.40108920293E+02  0.15551605797E+03  0.21194048526E+03  0.12509000000E+03 0.  0.
         25    1    3    3    0    0  0.57868319322E+02 -0.81503803034E+02  0.15688644339E+03  0.22417064150E+03  0.12509000000E+03 0.  0.
<mgrwt>
<rscale>  2 0.45164518E+03</rscale>
<asrwt>0</asrwt>
<pdfrwt beam="1">  1       21 0.68392122E-01 0.45164518E+03</pdfrwt>
<pdfrwt beam="2">  1       21 0.16125414E-01 0.45164518E+03</pdfrwt>
<totfact> 0.61887329E+04</totfact>
</mgrwt>
</event>
<event>
 6    0  0.1572624E-007  0.4536537E+03  0.7546771E-02  0.1026638E+00
         21   -1    0    0  502  501  0.00000000000E+00  0.00000000000E+00  0.99970300862E+02  0.99970300862E+02  0.00000000000E+00 0. -1.
         21   -1    0    0  501  502 -0.00000000000E+00 -0.00000000000E+00 -0.51465697273E+03  0.51465697273E+03  0.00000000000E+00 0. -1.
      99926    2    1    2    0    0 -0.35527136788E-14  0.00000000000E+00 -0.41468667187E+03  0.61462727359E+03  0.45365366704E+03 0.  0.
         25    1    3    3    0    0  0.71671502887E+02  0.62924477061E+01 -0.68701633909E+02  0.15982434679E+03  0.12509000000E+03 0.  0.
         25    1    3    3    0    0  0.85361766566E+01  0.51679912339E+02 -0.15383009819E+03  0.20507288183E+03  0.12509000000E+03 0.  0.
         25    1    3    3    0    0 -0.80207679544E+02 -0.57972360045E+02 -0.19215493977E+03  0.24973004498E+03  0.12509000000E+03 0.  0.
<mgrwt>
<rscale>  2 0.45365367E+03</rscale>
<asrwt>0</asrwt>
<pdfrwt beam="1">  1       21 0.14701515E-01 0.45365367E+03</pdfrwt>
<pdfrwt beam="2">  1       21 0.75684848E-01 0.45365367E+03</pdfrwt>
<totfact> 0.58405390E+04</totfact>
</mgrwt>
</event>
<event>
 6    0  0.1572624E-007  0.4515154E+03  0.7546771E-02  0.1027271E+00
         21   -1    0    0  502  501  0.00000000000E+00  0.00000000000E+00  0.14137139996E+03  0.14137139996E+03  0.00000000000E+00 0. -1.
         21   -1    0    0  501  502 -0.00000000000E+00 -0.00000000000E+00 -0.36051519675E+03  0.36051519675E+03  0.00000000000E+00 0. -1.
      99926    2    1    2    0    0  0.00000000000E+00  0.14210854715E-13 -0.21914379679E+03  0.50188659671E+03  0.45151539541E+03 0.  0.
         25    1    3    3    0    0 -0.45291085742E+02  0.78426420315E+02 -0.53538743499E+02  0.16344996484E+03  0.12509000000E+03 0.  0.
         25    1    3    3    0    0  0.10005877494E+02 -0.74057970122E+02 -0.26666454696E+02  0.14813273922E+03  0.12509000000E+03 0.  0.
         25    1    3    3    0    0  0.35285208248E+02 -0.43684501933E+01 -0.13893859860E+03  0.19030389265E+03  0.12509000000E+03 0.  0.
<mgrwt>
<rscale>  2 0.45151540E+03</rscale>
<asrwt>0</asrwt>
<pdfrwt beam="1">  1       21 0.20789912E-01 0.45151540E+03</pdfrwt>
<pdfrwt beam="2">  1       21 0.53016940E-01 0.45151540E+03</pdfrwt>
<totfact> 0.66971611E+04</totfact>
</mgrwt>
</event>
<event>
 6    0  0.1572624E-007  0.4602296E+03  0.7546771E-02  0.1024715E+00
         21   -1    0    0  502  501  0.00000000000E+00  0.00000000000E+00  0.82131732864E+03  0.82131732864E+03  0.00000000000E+00 0. -1.
         21   -1    0    0  501  502 -0.00000000000E+00 -0.00000000000E+00 -0.64473042085E+02  0.64473042085E+02  0.00000000000E+00 0. -1.
      99926    2    1    2    0    0  0.00000000000E+00  0.00000000000E+00  0.75684428656E+03  0.88579037073E+03  0.46022962397E+03 0.  0.
         25    1    3    3    0    0  0.15464733795E+02 -0.69042408405E+02  0.36045262240E+03  0.38804589064E+03  0.12509000000E+03 0.  0.
         25    1    3    3    0    0 -0.46234593830E+02 -0.31326482738E+02  0.19831075349E+03  0.24102624180E+03  0.12509000000E+03 0.  0.
         25    1    3    3    0    0  0.30769860035E+02  0.10036889114E+03  0.19808091067E+03  0.25671823828E+03  0.12509000000E+03 0.  0.
<mgrwt>
<rscale>  2 0.46022962E+03</rscale>
<asrwt>0</asrwt>
<pdfrwt beam="1">  1       21 0.12078195E+00 0.46022962E+03</pdfrwt>
<pdfrwt beam="2">  1       21 0.94813302E-02 0.46022962E+03</pdfrwt>
<totfact> 0.42102826E+04</totfact>
</mgrwt>
</event>
<event>
 6    0  0.1572624E-007  0.4592385E+03  0.7546771E-02  0.1025002E+00
         21   -1    0    0  502  501  0.00000000000E+00  0.00000000000E+00  0.66599378100E+02  0.66599378100E+02  0.00000000000E+00 0.  1.
         21   -1    0    0  501  502 -0.00000000000E+00 -0.00000000000E+00 -0.79167408756E+03  0.79167408756E+03  0.00000000000E+00 0.  1.
      99926    2    1    2    0    0  0.00000000000E+00 -0.44408920985E-15 -0.72507470946E+03  0.85827346566E+03  0.45923850836E+03 0.  0.
         25    1    3    3    0    0 -0.11114277520E+03 -0.13732636466E+02 -0.39115934053E+03  0.42566940173E+03  0.12509000000E+03 0.  0.
         25    1    3    3    0    0  0.45337371083E+02  0.11180290170E+02 -0.16938717474E+03  0.21568495351E+03  0.12509000000E+03 0.  0.
         25    1    3    3    0    0  0.65805404114E+02  0.25523462958E+01 -0.16452819418E+03  0.21691911042E+03  0.12509000000E+03 0.  0.
<mgrwt>
<rscale>  2 0.45923851E+03</rscale>
<asrwt>0</asrwt>
<pdfrwt beam="1">  1       21 0.97940266E-02 0.45923851E+03</pdfrwt>
<pdfrwt beam="2">  1       21 0.11642265E+00 0.45923851E+03</pdfrwt>
<totfact> 0.43603664E+04</totfact>
</mgrwt>
</event>
<event>
 6    0  0.1572624E-007  0.4579351E+03  0.7546771E-02  0.1025382E+00
         21   -1    0    0  502  501  0.00000000000E+00  0.00000000000E+00  0.48772582288E+02  0.48772582288E+02  0.00000000000E+00 0.  1.
         21   -1    0    0  501  502 -0.00000000000E+00 -0.00000000000E+00 -0.10749102619E+04  0.10749102619E+04  0.00000000000E+00 0.  1.
      99926    2    1    2    0    0 -0.35527136788E-14  0.00000000000E+00 -0.10261376796E+04  0.11236828442E+04  0.45793514475E+03 0.  0.
         25    1    3    3    0    0  0.99908775669E+02  0.10288624907E+02 -0.36020973956E+03  0.39431736435E+03  0.12509000000E+03 0.  0.
         25    1    3    3    0    0 -0.86628433539E+02 -0.28680275283E+02 -0.24651727659E+03  0.29111049353E+03  0.12509000000E+03 0.  0.
         25    1    3    3    0    0 -0.13280342130E+02  0.18391650376E+02 -0.41941066346E+03  0.43825498629E+03  0.12509000000E+03 0.  0.
<mgrwt>
<rscale>  2 0.45793514E+03</rscale>
<asrwt>0</asrwt>
<pdfrwt beam="1">  1       21 0.71724384E-02 0.45793514E+03</pdfrwt>
<pdfrwt beam="2">  1       21 0.15807504E+00 0.45793514E+03</pdfrwt>
<totfact> 0.33891118E+04</totfact>
</mgrwt>
</event>
<event>
 6    0  0.1572624E-007  0.4582909E+03  0.7546771E-02  0.1025278E+00
         21   -1    0    0  502  501  0.00000000000E+00  0.00000000000E+00  0.78701353465E+02  0.78701353465E+02  0.00000000000E+00 0.  1.
         21   -1    0    0  501  502 -0.00000000000E+00 -0.00000000000E+00 -0.66717573631E+03  0.66717573631E+03  0.00000000000E+00 0.  1.
      99926    2    1    2    0    0 -0.35527136788E-14  0.00000000000E+00 -0.58847438285E+03  0.74587708978E+03  0.45829088338E+03 0.  0.
         25    1    3    3    0    0  0.29539011180E+02 -0.79480116519E+02 -0.26906884343E+03  0.30860199725E+03  0.12509000000E+03 0.  0.
         25    1    3    3    0    0  0.27213062389E+02  0.53240617303E+02 -0.23806205592E+03  0.27549258549E+03  0.12509000000E+03 0.  0.
         25    1    3    3    0    0 -0.56752073569E+02  0.26239499217E+02 -0.81343483506E+02  0.16178250703E+03  0.12509000000E+03 0.  0.
<mgrwt>
<rscale>  2 0.45829088E+03</rscale>
<asrwt>0</asrwt>
<pdfrwt beam="1">  1       21 0.11573728E-01 0.45829088E+03</pdfrwt>
<pdfrwt beam="2">  1       21 0.98114082E-01 0.45829088E+03</pdfrwt>
<totfact> 0.49196885E+04</totfact>
</mgrwt>
</event>
<event>
 6    0  0.1572624E-007  0.4320714E+03  0.7546771E-02  0.1033208E+00
         21   -1    0    0  502  501  0.00000000000E+00  0.00000000000E+00  0.48457396537E+03  0.48457396537E+03  0.00000000000E+00 0.  1.
         21   -1    0    0  501  502 -0.00000000000E+00 -0.00000000000E+00 -0.96314350727E+02  0.96314350727E+02  0.00000000000E+00 0.  1.
      99926    2    1    2    0    0  0.88817841970E-15  0.14210854715E-13  0.38825961464E+03  0.58088831609E+03  0.43207141471E+03 0.  0.
         25    1    3    3    0    0 -0.16850269491E+02 -0.29264414321E+02  0.12865075529E+03  0.18258932736E+03  0.12509000000E+03 0.  0.
         25    1    3    3    0    0  0.14849342314E+02 -0.68406042347E+02  0.12175526609E+03  0.18807376882E+03  0.12509000000E+03 0.  0.
         25    1    3    3    0    0  0.20009271769E+01  0.97670456668E+02  0.13785359326E+03  0.21022521992E+03  0.12509000000E+03 0.  0.
<mgrwt>
<rscale>  2 0.43207141E+03</rscale>
<asrwt>0</asrwt>
<pdfrwt beam="1">  1       21 0.71260876E-01 0.43207141E+03</pdfrwt>
<pdfrwt beam="2">  1       21 0.14163875E-01 0.43207141E+03</pdfrwt>
<totfact> 0.72071632E+04</totfact>
</mgrwt>
</event>
<event>
 6    0  0.1572624E-007  0.4463241E+03  0.7546771E-02  0.1028824E+00
         21   -1    0    0  502  501  0.00000000000E+00  0.00000000000E+00  0.25233224433E+03  0.25233224433E+03  0.00000000000E+00 0. -1.
         21   -1    0    0  501  502 -0.00000000000E+00 -0.00000000000E+00 -0.19736401330E+03  0.19736401330E+03  0.00000000000E+00 0. -1.
      99926    2    1    2    0    0  0.00000000000E+00  0.00000000000E+00  0.54968231028E+02  0.44969625763E+03  0.44632411733E+03 0.  0.
         25    1    3    3    0    0 -0.21419597910E+02  0.19249471688E+02  0.64256536444E+02  0.14354703728E+03  0.12509000000E+03 0.  0.
         25    1    3    3    0    0  0.89097463082E+02 -0.82696618867E+01 -0.42748395576E+02  0.15962981758E+03  0.12509000000E+03 0.  0.
         25    1    3    3    0    0 -0.67677865172E+02 -0.10979809801E+02  0.33460090160E+02  0.14651940278E+03  0.12509000000E+03 0.  0.
<mgrwt>
<rscale>  2 0.44632412E+03</rscale>
<asrwt>0</asrwt>
<pdfrwt beam="1">  1       21 0.37107683E-01 0.44632412E+03</pdfrwt>
<pdfrwt beam="2">  1       21 0.29024119E-01 0.44632412E+03</pdfrwt>
<totfact> 0.73921768E+04</totfact>
</mgrwt>
</event>
<event>
 6    0  0.1572624E-007  0.4446176E+03  0.7546771E-02  0.1029339E+00
         21   -1    0    0  502  501  0.00000000000E+00  0.00000000000E+00  0.14527256450E+03  0.14527256450E+03  0.00000000000E+00 0. -1.
         21   -1    0    0  501  502 -0.00000000000E+00 -0.00000000000E+00 -0.34019632774E+03  0.34019632774E+03  0.00000000000E+00 0. -1.
      99926    2    1    2    0    0  0.00000000000E+00  0.00000000000E+00 -0.19492376324E+03  0.48546889223E+03  0.44461755684E+03 0.  0.
         25    1    3    3    0    0 -0.72281818105E+01 -0.30951568685E+02 -0.77871387794E+02  0.15073721290E+03  0.12509000000E+03 0.  0.
         25    1    3    3    0    0  0.88396092321E+02 -0.23151189584E+02 -0.61098553167E+02  0.16652443669E+03  0.12509000000E+03 0.  0.
         25    1    3    3    0    0 -0.81167910510E+02  0.54102758269E+02 -0.55953822278E+02  0.16820724264E+03  0.12509000000E+03 0.  0.
<mgrwt>
<rscale>  2 0.44461756E+03</rscale>
<asrwt>0</asrwt>
<pdfrwt beam="1">  1       21 0.21363613E-01 0.44461756E+03</pdfrwt>
<pdfrwt beam="2">  1       21 0.50028871E-01 0.44461756E+03</pdfrwt>
<totfact> 0.72063068E+04</totfact>
</mgrwt>
</event>
<event>
 6    0  0.1572624E-007  0.4558281E+03  0.7546771E-02  0.1025998E+00
         21   -1    0    0  502  501  0.00000000000E+00  0.00000000000E+00  0.11462241405E+03  0.11462241405E+03  0.00000000000E+00 0. -1.
         21   -1    0    0  501  502 -0.00000000000E+00 -0.00000000000E+00 -0.45318198872E+03  0.45318198872E+03  0.00000000000E+00 0. -1.
      99926    2    1    2    0    0  0.00000000000E+00  0.00000000000E+00 -0.33855957467E+03  0.56780440277E+03  0.45582809722E+03 0.  0.
         25    1    3    3    0    0  0.25759681135E+01  0.11320584950E+03 -0.84133302844E+02  0.18854209270E+03  0.12509000000E+03 0.  0.
         25    1    3    3    0    0 -0.13254728432E+02 -0.86998212345E+02 -0.13432879567E+03  0.20355861618E+03  0.12509000000E+03 0.  0.
         25    1    3    3    0    0  0.10678760319E+02 -0.26207637157E+02 -0.12009747615E+03  0.17570369389E+03  0.12509000000E+03 0.  0.
<mgrwt>
<rscale>  2 0.45582810E+03</rscale>
<asrwt>0</asrwt>
<pdfrwt beam="1">  1       21 0.16856238E-01 0.45582810E+03</pdfrwt>
<pdfrwt beam="2">  1       21 0.66644409E-01 0.45582810E+03</pdfrwt>
<totfact> 0.60309163E+04</totfact>
</mgrwt>
</event>
<event>
 6    0  0.1572624E-007  0.4477190E+03  0.7546771E-02  0.1028404E+00
         21   -1    0    0  502  501  0.00000000000E+00  0.00000000000E+00  0.21104381698E+03  0.21104381698E+03  0.00000000000E+00 0. -1.
         21   -1    0    0  501  502 -0.00000000000E+00 -0.00000000000E+00 -0.23745346188E+03  0.23745346188E+03  0.00000000000E+00 0. -1.
      99926    2    1    2    0    0 -0.14210854715E-13 -0.35527136788E-14 -0.26409644903E+02  0.44849727886E+03  0.44771904114E+03 0.  0.
         25    1    3    3    0    0 -0.11891862930E+02  0.22316460449E+02 -0.80019689617E+02  0.15063233264E+03  0.12509000000E+03 0.  0.
         25    1    3    3    0    0  0.79003953307E+02  0.51345075609E+01  0.19577821597E+02  0.14932778377E+03  0.12509000000E+03 0.  0.
         25    1    3    3    0    0 -0.67112090377E+02 -0.27450968010E+02  0.34032223118E+02  0.14853716245E+03  0.12509000000E+03 0.  0.
<mgrwt>
<rscale>  2 0.44771904E+03</rscale>
<asrwt>0</asrwt>
<pdfrwt beam="1">  1       21 0.31035856E-01 0.44771904E+03</pdfrwt>
<pdfrwt beam="2">  1       21 0.34919626E-01 0.44771904E+03</pdfrwt>
<totfact> 0.73184908E+04</totfact>
</mgrwt>
</event>
<event>
 6    0  0.1572624E-007  0.4612254E+03  0.7546771E-02  0.1024426E+00
         21   -1    0    0  502  501  0.00000000000E+00  0.00000000000E+00  0.33858611305E+03  0.33858611305E+03  0.00000000000E+00 0.  1.
         21   -1    0    0  501  502 -0.00000000000E+00 -0.00000000000E+00 -0.15707147719E+03  0.15707147719E+03  0.00000000000E+00 0.  1.
      99926    2    1    2    0    0 -0.35527136788E-14  0.88817841970E-15  0.18151463586E+03  0.49565759024E+03  0.46122541532E+03 0.  0.
         25    1    3    3    0    0  0.28050210087E+02  0.20814244510E+01  0.12354440453E+02  0.12880716949E+03  0.12509000000E+03 0.  0.
         25    1    3    3    0    0  0.79838592116E+02  0.42485266176E+02  0.83938484118E+02  0.17570536659E+03  0.12509000000E+03 0.  0.
         25    1    3    3    0    0 -0.10788880220E+03 -0.44566690627E+02  0.85221711290E+02  0.19114505416E+03  0.12509000000E+03 0.  0.
<mgrwt>
<rscale>  2 0.46122542E+03</rscale>
<asrwt>0</asrwt>
<pdfrwt beam="1">  1       21 0.49792075E-01 0.46122542E+03</pdfrwt>
<pdfrwt beam="2">  1       21 0.23098747E-01 0.46122542E+03</pdfrwt>
<totfact> 0.62433736E+04</totfact>
</mgrwt>
</event>
<event>
 6    0  0.1572624E-007  0.4390889E+03  0.7546771E-02  0.1031027E+00
         21   -1    0    0  502  501  0.00000000000E+00  0.00000000000E+00  0.12381015111E+03  0.12381015111E+03  0.00000000000E+00 0.  1.
         21   -1    0    0  501  502 -0.00000000000E+00 -0.00000000000E+00 -0.38930380256E+03  0.38930380256E+03  0.00000000000E+00 0.  1.
      99926    2    1    2    0    0  0.00000000000E+00  0.00000000000E+00 -0.26549365146E+03  0.51311395367E+03  0.43908888678E+03 0.  0.
         25    1    3    3    0    0  0.24326119828E+02  0.83873467393E+01 -0.23249598849E+02  0.12980816476E+03  0.12509000000E+03 0.  0.
         25    1    3    3    0    0 -0.47462133623E+02 -0.27957166452E+02 -0.37956626669E+02  0.14185369538E+03  0.12509000000E+03 0.  0.
         25    1    3    3    0    0  0.23136013795E+02  0.19569819712E+02 -0.20428742594E+03  0.24145209354E+03  0.12509000000E+03 0.  0.
<mgrwt>
<rscale>  2 0.43908889E+03</rscale>
<asrwt>0</asrwt>
<pdfrwt beam="1">  1       21 0.18207375E-01 0.43908889E+03</pdfrwt>
<pdfrwt beam="2">  1       21 0.57250560E-01 0.43908889E+03</pdfrwt>
<totfact> 0.73163974E+04</totfact>
</mgrwt>
</event>
<event>
 6    0  0.1572624E-007  0.4679778E+03  0.7546771E-02  0.1022493E+00
         21   -1    0    0  502  501  0.00000000000E+00  0.00000000000E+00  0.49365600751E+03  0.49365600751E+03  0.00000000000E+00 0. -1.
         21   -1    0    0  501  502 -0.00000000000E+00 -0.00000000000E+00 -0.11090884325E+03  0.11090884325E+03  0.00000000000E+00 0. -1.
      99926    2    1    2    0    0  0.00000000000E+00  0.00000000000E+00  0.38274716425E+03  0.60456485076E+03  0.46797784887E+03 0.  0.
         25    1    3    3    0    0  0.18857638412E+02 -0.65579659529E+02  0.56502567628E+02  0.15328519341E+03  0.12509000000E+03 0.  0.
         25    1    3    3    0    0  0.29632807764E+01  0.27497568451E+02  0.37387000372E+02  0.13345483581E+03  0.12509000000E+03 0.  0.
         25    1    3    3    0    0 -0.21820919189E+02  0.38082091078E+02  0.28885759625E+03  0.31782482154E+03  0.12509000000E+03 0.  0.
<mgrwt>
<rscale>  2 0.46797785E+03</rscale>
<asrwt>0</asrwt>
<pdfrwt beam="1">  1       21 0.72596471E-01 0.46797785E+03</pdfrwt>
<pdfrwt beam="2">  1       21 0.16310124E-01 0.46797785E+03</pdfrwt>
<totfact> 0.52775119E+04</totfact>
</mgrwt>
</event>
<event>
 6    0  0.1572624E-007  0.4519224E+03  0.7546771E-02  0.1027150E+00
         21   -1    0    0  502  501  0.00000000000E+00  0.00000000000E+00  0.97521367631E+03  0.97521367631E+03  0.00000000000E+00 0.  1.
         21   -1    0    0  501  502 -0.00000000000E+00 -0.00000000000E+00 -0.52356184467E+02  0.52356184467E+02  0.00000000000E+00 0.  1.
      99926    2    1    2    0    0  0.00000000000E+00 -0.17763568394E-14  0.92285749185E+03  0.10275698608E+04  0.45192241428E+03 0.  0.
         25    1    3    3    0    0  0.23723884380E+02 -0.56301525733E+02  0.35337022459E+03  0.37980351264E+03  0.12509000000E+03 0.  0.
         25    1    3    3    0    0 -0.69367543721E+02  0.40694504503E+02  0.42684173865E+03  0.45200583710E+03  0.12509000000E+03 0.  0.
         25    1    3    3    0    0  0.45643659341E+02  0.15607021229E+02  0.14264552861E+03  0.19576051104E+03  0.12509000000E+03 0.  0.
<mgrwt>
<rscale>  2 0.45192241E+03</rscale>
<asrwt>0</asrwt>
<pdfrwt beam="1">  1       21 0.14341376E+00 0.45192241E+03</pdfrwt>
<pdfrwt beam="2">  1       21 0.76994395E-02 0.45192241E+03</pdfrwt>
<totfact> 0.39040981E+04</totfact>
</mgrwt>
</event>
<event>
 6    0  0.1572624E-007  0.4567928E+03  0.7546771E-02  0.1025716E+00
         21   -1    0    0  502  501  0.00000000000E+00  0.00000000000E+00  0.26638997184E+03  0.26638997184E+03  0.00000000000E+00 0.  1.
         21   -1    0    0  501  502 -0.00000000000E+00 -0.00000000000E+00 -0.19582162403E+03  0.19582162403E+03  0.00000000000E+00 0.  1.
      99926    2    1    2    0    0 -0.71054273576E-14  0.14210854715E-13  0.70568347805E+02  0.46221159587E+03  0.45679280603E+03 0.  0.
         25    1    3    3    0    0 -0.28291881714E+02  0.26018069851E+02  0.22646593894E+02  0.13280717919E+03  0.12509000000E+03 0.  0.
         25    1    3    3    0    0 -0.33472261718E+02  0.58295431617E+02  0.80408220671E+02  0.16319233960E+03  0.12509000000E+03 0.  0.
         25    1    3    3    0    0  0.61764143431E+02 -0.84313501468E+02 -0.32486466759E+02  0.16621207708E+03  0.12509000000E+03 0.  0.
<mgrwt>
<rscale>  2 0.45679281E+03</rscale>
<asrwt>0</asrwt>
<pdfrwt beam="1">  1       21 0.39174996E-01 0.45679281E+03</pdfrwt>
<pdfrwt beam="2">  1       21 0.28797298E-01 0.45679281E+03</pdfrwt>
<totfact> 0.67055847E+04</totfact>
</mgrwt>
</event>
<event>
 6    0  0.1572624E-007  0.4425216E+03  0.7546771E-02  0.1029976E+00
         21   -1    0    0  502  501  0.00000000000E+00  0.00000000000E+00  0.10420512338E+04  0.10420512338E+04  0.00000000000E+00 0. -1.
         21   -1    0    0  501  502 -0.00000000000E+00 -0.00000000000E+00 -0.46980738077E+02  0.46980738077E+02  0.00000000000E+00 0. -1.
      99926    2    1    2    0    0  0.71054273576E-14  0.00000000000E+00  0.99507049574E+03  0.10890319719E+04  0.44252157497E+03 0.  0.
         25    1    3    3    0    0 -0.32533363490E+01 -0.17862832804E+02  0.24316401538E+03  0.27405457754E+03  0.12509000000E+03 0.  0.
         25    1    3    3    0    0  0.33808677235E+02 -0.25089883486E+02  0.58568120478E+03  0.60036864562E+03  0.12509000000E+03 0.  0.
         25    1    3    3    0    0 -0.30555340886E+02  0.42952716290E+02  0.16622527557E+03  0.21460874873E+03  0.12509000000E+03 0.  0.
<mgrwt>
<rscale>  2 0.44252157E+03</rscale>
<asrwt>0</asrwt>
<pdfrwt beam="1">  1       21 0.15324281E+00 0.44252157E+03</pdfrwt>
<pdfrwt beam="2">  1       21 0.69089327E-02 0.44252157E+03</pdfrwt>
<totfact> 0.39593341E+04</totfact>
</mgrwt>
</event>
<event>
 6    0  0.1572624E-007  0.4517839E+03  0.7546771E-02  0.1027191E+00
         21   -1    0    0  502  501  0.00000000000E+00  0.00000000000E+00  0.22306073471E+03  0.22306073471E+03  0.00000000000E+00 0. -1.
         21   -1    0    0  501  502 -0.00000000000E+00 -0.00000000000E+00 -0.22875910602E+03  0.22875910602E+03  0.00000000000E+00 0. -1.
      99926    2    1    2    0    0 -0.71054273576E-14  0.00000000000E+00 -0.56983713185E+01  0.45181984073E+03  0.45178390525E+03 0.  0.
         25    1    3    3    0    0 -0.73676092442E+02 -0.12317485978E+02 -0.75629217315E+02  0.16415594315E+03  0.12509000000E+03 0.  0.
         25    1    3    3    0    0  0.32370592040E+02  0.36005626829E+02  0.75084251726E+02  0.15371861745E+03  0.12509000000E+03 0.  0.
         25    1    3    3    0    0  0.41305500402E+02 -0.23688140851E+02 -0.51534057303E+01  0.13394528014E+03  0.12509000000E+03 0.  0.
<mgrwt>
<rscale>  2 0.45178391E+03</rscale>
<asrwt>0</asrwt>
<pdfrwt beam="1">  1       21 0.32803049E-01 0.45178391E+03</pdfrwt>
<pdfrwt beam="2">  1       21 0.33641045E-01 0.45178391E+03</pdfrwt>
<totfact> 0.70573067E+04</totfact>
</mgrwt>
</event>
<event>
 6    0  0.1572624E-007  0.4564001E+03  0.7546771E-02  0.1025830E+00
         21   -1    0    0  502  501  0.00000000000E+00  0.00000000000E+00  0.70487338680E+03  0.70487338680E+03  0.00000000000E+00 0. -1.
         21   -1    0    0  501  502 -0.00000000000E+00 -0.00000000000E+00 -0.73878903551E+02  0.73878903551E+02  0.00000000000E+00 0. -1.
      99926    2    1    2    0    0 -0.88817841970E-14  0.35527136788E-14  0.63099448325E+03  0.77875229036E+03  0.45640014443E+03 0.  0.
         25    1    3    3    0    0 -0.66312417404E+02 -0.57758407408E+02  0.32005740766E+03  0.35470779893E+03  0.12509000000E+03 0.  0.
         25    1    3    3    0    0 -0.13431679496E+02  0.26355721384E+02  0.19326885048E+03  0.23211072946E+03  0.12509000000E+03 0.  0.
         25    1    3    3    0    0  0.79744096900E+02  0.31402686024E+02  0.11766822512E+03  0.19193376197E+03  0.12509000000E+03 0.  0.
<mgrwt>
<rscale>  2 0.45640014E+03</rscale>
<asrwt>0</asrwt>
<pdfrwt beam="1">  1       21 0.10365785E+00 0.45640014E+03</pdfrwt>
<pdfrwt beam="2">  1       21 0.10864545E-01 0.45640014E+03</pdfrwt>
<totfact> 0.48276983E+04</totfact>
</mgrwt>
</event>
<event>
 6    0  0.1572624E-007  0.4490732E+03  0.7546771E-02  0.1027999E+00
         21   -1    0    0  502  501  0.00000000000E+00  0.00000000000E+00  0.15607471146E+03  0.15607471146E+03  0.00000000000E+00 0.  1.
         21   -1    0    0  501  502 -0.00000000000E+00 -0.00000000000E+00 -0.32302913781E+03  0.32302913781E+03  0.00000000000E+00 0.  1.
      99926    2    1    2    0    0  0.35527136788E-14 -0.14210854715E-13 -0.16695442634E+03  0.47910384927E+03  0.44907317656E+03 0.  0.
         25    1    3    3    0    0  0.19433223853E+02 -0.95092287349E+02  0.32660393173E+01  0.15836151179E+03  0.12509000000E+03 0.  0.
         25    1    3    3    0    0  0.58186768403E+01  0.59446497061E+02 -0.98758301989E+02  0.17020121423E+03  0.12509000000E+03 0.  0.
         25    1    3    3    0    0 -0.25251900693E+02  0.35645790288E+02 -0.71462163672E+02  0.15054112325E+03  0.12509000000E+03 0.  0.
<mgrwt>
<rscale>  2 0.44907318E+03</rscale>
<asrwt>0</asrwt>
<pdfrwt beam="1">  1       21 0.22952163E-01 0.44907318E+03</pdfrwt>
<pdfrwt beam="2">  1       21 0.47504285E-01 0.44907318E+03</pdfrwt>
<totfact> 0.70001215E+04</totfact>
</mgrwt>
</event>
<event>
 6    0  0.1572624E-007  0.4566745E+03  0.7546771E-02  0.1025750E+00
         21   -1    0    0  502  501  0.00000000000E+00  0.00000000000E+00  0.25446371277E+03  0.25446371277E+03  0.00000000000E+00 0.  1.
         21   -1    0    0  501  502 -0.00000000000E+00 -0.00000000000E+00 -0.20489330147E+03  0.20489330147E+03  0.00000000000E+00 0.  1.
      99926    2    1    2    0    0  0.00000000000E+00 -0.35527136788E-14  0.49570411302E+02  0.45935701424E+03  0.45667454588E+03 0.  0.
         25    1    3    3    0    0 -0.41125479358E+02  0.24199373423E+02  0.56665679900E+00  0.13388332206E+03  0.12509000000E+03 0.  0.
         25    1    3    3    0    0 -0.16529996107E+02  0.52722011272E+02  0.88443204107E+02  0.16285748278E+03  0.12509000000E+03 0.  0.
         25    1    3    3    0    0  0.57655475464E+02 -0.76921384694E+02 -0.39439449603E+02  0.16261620940E+03  0.12509000000E+03 0.  0.
<mgrwt>
<rscale>  2 0.45667455E+03</rscale>
<asrwt>0</asrwt>
<pdfrwt beam="1">  1       21 0.37421134E-01 0.45667455E+03</pdfrwt>
<pdfrwt beam="2">  1       21 0.30131368E-01 0.45667455E+03</pdfrwt>
<totfact> 0.67323751E+04</totfact>
</mgrwt>
</event>
<event>
 6    0  0.1572624E-007  0.4567207E+03  0.7546771E-02  0.1025737E+00
         21   -1    0    0  502  501  0.00000000000E+00  0.00000000000E+00  0.15701646805E+03  0.15701646805E+03  0.00000000000E+00 0. -1.
         21   -1    0    0  501  502 -0.00000000000E+00 -0.00000000000E+00 -0.33212092424E+03  0.33212092424E+03  0.00000000000E+00 0. -1.
      99926    2    1    2    0    0  0.71054273576E-14  0.00000000000E+00 -0.17510445619E+03  0.48913739230E+03  0.45672072207E+03 0.  0.
         25    1    3    3    0    0  0.82006415774E+02 -0.91374748521E+00 -0.10233307445E+03  0.18123314650E+03  0.12509000000E+03 0.  0.
         25    1    3    3    0    0 -0.38907605268E+02 -0.21773395944E+02  0.33192429165E+02  0.13688362931E+03  0.12509000000E+03 0.  0.
         25    1    3    3    0    0 -0.43098810506E+02  0.22687143430E+02 -0.10596381090E+03  0.17102061649E+03  0.12509000000E+03 0.  0.
<mgrwt>
<rscale>  2 0.45672072E+03</rscale>
<asrwt>0</asrwt>
<pdfrwt beam="1">  1       21 0.23090657E-01 0.45672072E+03</pdfrwt>
<pdfrwt beam="2">  1       21 0.48841313E-01 0.45672072E+03</pdfrwt>
<totfact> 0.65146274E+04</totfact>
</mgrwt>
</event>
<event>
 6    0  0.1572624E-007  0.4556454E+03  0.7546771E-02  0.1026052E+00
         21   -1    0    0  502  501  0.00000000000E+00  0.00000000000E+00  0.26399898343E+03  0.26399898343E+03  0.00000000000E+00 0. -1.
         21   -1    0    0  501  502 -0.00000000000E+00 -0.00000000000E+00 -0.19660375313E+03  0.19660375313E+03  0.00000000000E+00 0. -1.
      99926    2    1    2    0    0 -0.71054273576E-14 -0.14210854715E-13  0.67395230303E+02  0.46060273656E+03  0.45564543656E+03 0.  0.
         25    1    3    3    0    0 -0.11882141494E+02 -0.68235570445E+02 -0.51349687442E+02  0.15192622177E+03  0.12509000000E+03 0.  0.
         25    1    3    3    0    0 -0.18924194584E+02 -0.82570242081E+01  0.17819235841E+02  0.12802865638E+03  0.12509000000E+03 0.  0.
         25    1    3    3    0    0  0.30806336079E+02  0.76492594653E+02  0.10092568190E+03  0.18064785841E+03  0.12509000000E+03 0.  0.
<mgrwt>
<rscale>  2 0.45564544E+03</rscale>
<asrwt>0</asrwt>
<pdfrwt beam="1">  1       21 0.38823380E-01 0.45564544E+03</pdfrwt>
<pdfrwt beam="2">  1       21 0.28912317E-01 0.45564544E+03</pdfrwt>
<totfact> 0.67787086E+04</totfact>
</mgrwt>
</event>
<event>
 6    0  0.1572624E-007  0.4577230E+03  0.7546771E-02  0.1025444E+00
         21   -1    0    0  502  501  0.00000000000E+00  0.00000000000E+00  0.33186462973E+03  0.33186462973E+03  0.00000000000E+00 0.  1.
         21   -1    0    0  501  502 -0.00000000000E+00 -0.00000000000E+00 -0.15782817466E+03  0.15782817466E+03  0.00000000000E+00 0.  1.
      99926    2    1    2    0    0  0.71054273576E-14  0.35527136788E-14  0.17403645507E+03  0.48969280439E+03  0.45772301119E+03 0.  0.
         25    1    3    3    0    0 -0.18503236379E+02 -0.18651719655E+02  0.18374784937E+02  0.12913325375E+03  0.12509000000E+03 0.  0.
         25    1    3    3    0    0  0.68491128963E+02 -0.48198971890E+02  0.94818882422E+01  0.15083630181E+03  0.12509000000E+03 0.  0.
         25    1    3    3    0    0 -0.49987892584E+02  0.66850691545E+02  0.14617978189E+03  0.20972324883E+03  0.12509000000E+03 0.  0.
<mgrwt>
<rscale>  2 0.45772301E+03</rscale>
<asrwt>0</asrwt>
<pdfrwt beam="1">  1       21 0.48803622E-01 0.45772301E+03</pdfrwt>
<pdfrwt beam="2">  1       21 0.23210026E-01 0.45772301E+03</pdfrwt>
<totfact> 0.64593373E+04</totfact>
</mgrwt>
</event>
<event>
 6    0  0.1572624E-007  0.4546794E+03  0.7546771E-02  0.1026336E+00
         21   -1    0    0  502  501  0.00000000000E+00  0.00000000000E+00  0.21645912538E+02  0.21645912538E+02  0.00000000000E+00 0. -1.
         21   -1    0    0  501  502 -0.00000000000E+00 -0.00000000000E+00 -0.23876716042E+04  0.23876716042E+04  0.00000000000E+00 0. -1.
      99926    2    1    2    0    0  0.88817841970E-15  0.79936057773E-14 -0.23660256916E+04  0.24093175167E+04  0.45467936269E+03 0.  0.
         25    1    3    3    0    0 -0.42331274972E+01 -0.78682311706E+02 -0.55882839103E+03  0.57805320193E+03  0.12509000000E+03 0.  0.
         25    1    3    3    0    0  0.10862902421E+02  0.78883110564E+02 -0.13167312112E+04  0.13250543907E+04  0.12509000000E+03 0.  0.
         25    1    3    3    0    0 -0.66297749238E+01 -0.20079885767E+00 -0.49046608944E+03  0.50620992407E+03  0.12509000000E+03 0.  0.
<mgrwt>
<rscale>  2 0.45467936E+03</rscale>
<asrwt>0</asrwt>
<pdfrwt beam="1">  1       21 0.31832226E-02 0.45467936E+03</pdfrwt>
<pdfrwt beam="2">  1       21 0.35112816E+00 0.45467936E+03</pdfrwt>
<totfact> 0.81248340E+03</totfact>
</mgrwt>
</event>
<event>
 6    0  0.1572624E-007  0.4592392E+03  0.7546771E-02  0.1025002E+00
         21   -1    0    0  502  501  0.00000000000E+00  0.00000000000E+00  0.75318273828E+03  0.75318273828E+03  0.00000000000E+00 0. -1.
         21   -1    0    0  501  502 -0.00000000000E+00 -0.00000000000E+00 -0.70003157423E+02  0.70003157423E+02  0.00000000000E+00 0. -1.
      99926    2    1    2    0    0  0.00000000000E+00  0.00000000000E+00  0.68317958085E+03  0.82318589570E+03  0.45923923959E+03 0.  0.
         25    1    3    3    0    0 -0.19835462805E+02  0.59750000074E+02  0.11124335252E+03  0.17884658139E+03  0.12509000000E+03 0.  0.
         25    1    3    3    0    0  0.22792944133E+02 -0.89535869465E+02  0.40335011559E+03  0.43229042792E+03  0.12509000000E+03 0.  0.
         25    1    3    3    0    0 -0.29574813281E+01  0.29785869391E+02  0.16858611274E+03  0.21204888639E+03  0.12509000000E+03 0.  0.
<mgrwt>
<rscale>  2 0.45923924E+03</rscale>
<asrwt>0</asrwt>
<pdfrwt beam="1">  1       21 0.11076216E+00 0.45923924E+03</pdfrwt>
<pdfrwt beam="2">  1       21 0.10294582E-01 0.45923924E+03</pdfrwt>
<totfact> 0.45143258E+04</totfact>
</mgrwt>
</event>
<event>
 6    0  0.1572624E-007  0.4553329E+03  0.7546771E-02  0.1026144E+00
         21   -1    0    0  502  501  0.00000000000E+00  0.00000000000E+00  0.26875607245E+02  0.26875607245E+02  0.00000000000E+00 0.  1.
         21   -1    0    0  501  502 -0.00000000000E+00 -0.00000000000E+00 -0.19285895277E+04  0.19285895277E+04  0.00000000000E+00 0.  1.
      99926    2    1    2    0    0  0.35527136788E-14  0.00000000000E+00 -0.19017139204E+04  0.19554651349E+04  0.45533290978E+03 0.  0.
         25    1    3    3    0    0 -0.21255644446E+02  0.46123817620E+02 -0.83676865106E+03  0.84758981381E+03  0.12509000000E+03 0.  0.
         25    1    3    3    0    0 -0.28104693548E+02  0.50489051915E+02 -0.42067212602E+03  0.44266416602E+03  0.12509000000E+03 0.  0.
         25    1    3    3    0    0  0.49360337994E+02 -0.96612869535E+02 -0.64427314333E+03  0.66521115508E+03  0.12509000000E+03 0.  0.
<mgrwt>
<rscale>  2 0.45533291E+03</rscale>
<asrwt>0</asrwt>
<pdfrwt beam="1">  1       21 0.39522958E-02 0.45533291E+03</pdfrwt>
<pdfrwt beam="2">  1       21 0.28361606E+00 0.45533291E+03</pdfrwt>
<totfact> 0.14413590E+04</totfact>
</mgrwt>
</event>
<event>
 6    0  0.1572624E-007  0.4573083E+03  0.7546771E-02  0.1025565E+00
         21   -1    0    0  502  501  0.00000000000E+00  0.00000000000E+00  0.87984664515E+02  0.87984664515E+02  0.00000000000E+00 0. -1.
         21   -1    0    0  501  502 -0.00000000000E+00 -0.00000000000E+00 -0.59422545982E+03  0.59422545982E+03  0.00000000000E+00 0. -1.
      99926    2    1    2    0    0 -0.71054273576E-14 -0.44408920985E-15 -0.50624079530E+03  0.68221012433E+03  0.45730833243E+03 0.  0.
         25    1    3    3    0    0  0.19401306820E+02 -0.54783104295E+02 -0.29335196522E+03  0.32416119882E+03  0.12509000000E+03 0.  0.
         25    1    3    3    0    0 -0.68918987105E+02  0.55535910580E+02 -0.10839992204E+03  0.18770219856E+03  0.12509000000E+03 0.  0.
         25    1    3    3    0    0  0.49517680284E+02 -0.75280628485E+00 -0.10448890805E+03  0.17034672695E+03  0.12509000000E+03 0.  0.
<mgrwt>
<rscale>  2 0.45730833E+03</rscale>
<asrwt>0</asrwt>
<pdfrwt beam="1">  1       21 0.12938921E-01 0.45730833E+03</pdfrwt>
<pdfrwt beam="2">  1       21 0.87386100E-01 0.45730833E+03</pdfrwt>
<totfact> 0.52911465E+04</totfact>
</mgrwt>
</event>
<event>
 6    0  0.1572624E-007  0.4655710E+03  0.7546771E-02  0.1023178E+00
         21   -1    0    0  502  501  0.00000000000E+00  0.00000000000E+00  0.10488615797E+03  0.10488615797E+03  0.00000000000E+00 0.  1.
         21   -1    0    0  501  502 -0.00000000000E+00 -0.00000000000E+00 -0.51664666339E+03  0.51664666339E+03  0.00000000000E+00 0.  1.
      99926    2    1    2    0    0  0.35527136788E-14  0.00000000000E+00 -0.41176050542E+03  0.62153282135E+03  0.46557097654E+03 0.  0.
         25    1    3    3    0    0  0.35970900213E+02 -0.26021550527E+02 -0.28054141427E+03  0.31035789014E+03  0.12509000000E+03 0.  0.
         25    1    3    3    0    0 -0.29730964782E+02 -0.25034014485E+02 -0.11618176642E+03  0.17508952880E+03  0.12509000000E+03 0.  0.
         25    1    3    3    0    0 -0.62399354309E+01  0.51055565012E+02 -0.15037324731E+02  0.13608540241E+03  0.12509000000E+03 0.  0.
<mgrwt>
<rscale>  2 0.46557098E+03</rscale>
<asrwt>0</asrwt>
<pdfrwt beam="1">  1       21 0.15424435E-01 0.46557098E+03</pdfrwt>
<pdfrwt beam="2">  1       21 0.75977449E-01 0.46557098E+03</pdfrwt>
<totfact> 0.52822614E+04</totfact>
</mgrwt>
</event>
<event>
 6    0  0.1572624E-007  0.4518276E+03  0.7546771E-02  0.1027178E+00
         21   -1    0    0  502  501  0.00000000000E+00  0.00000000000E+00  0.11541326710E+03  0.11541326710E+03  0.00000000000E+00 0.  1.
         21   -1    0    0  501  502 -0.00000000000E+00 -0.00000000000E+00 -0.44221126415E+03  0.44221126415E+03  0.00000000000E+00 0.  1.
      99926    2    1    2    0    0  0.72164496601E-15  0.00000000000E+00 -0.32679799705E+03  0.55762453125E+03  0.45182760758E+03 0.  0.
         25    1    3    3    0    0 -0.40520344374E+00  0.18307446468E+02 -0.24649411043E+01  0.12644726498E+03  0.12509000000E+03 0.  0.
         25    1    3    3    0    0  0.12517935867E+02 -0.69810219920E+02 -0.20485088129E+03  0.25028295425E+03  0.12509000000E+03 0.  0.
         25    1    3    3    0    0 -0.12112732423E+02  0.51502773452E+02 -0.11948217466E+03  0.18089431202E+03  0.12509000000E+03 0.  0.
<mgrwt>
<rscale>  2 0.45182761E+03</rscale>
<asrwt>0</asrwt>
<pdfrwt beam="1">  1       21 0.16972539E-01 0.45182761E+03</pdfrwt>
<pdfrwt beam="2">  1       21 0.65031068E-01 0.45182761E+03</pdfrwt>
<totfact> 0.62929867E+04</totfact>
</mgrwt>
</event>
<event>
 6    0  0.1572624E-007  0.4528855E+03  0.7546771E-02  0.1026865E+00
         21   -1    0    0  502  501  0.00000000000E+00  0.00000000000E+00  0.26092833341E+03  0.26092833341E+03  0.00000000000E+00 0.  1.
         21   -1    0    0  501  502 -0.00000000000E+00 -0.00000000000E+00 -0.19651493741E+03  0.19651493741E+03  0.00000000000E+00 0.  1.
      99926    2    1    2    0    0  0.00000000000E+00 -0.35527136788E-14  0.64413396000E+02  0.45744327081E+03  0.45288548269E+03 0.  0.
         25    1    3    3    0    0  0.18559822017E+02 -0.47772947067E+02  0.92311110861E+02  0.16369352691E+03  0.12509000000E+03 0.  0.
         25    1    3    3    0    0 -0.54816963424E+02  0.63043006491E+02  0.24750440218E+02  0.15244478521E+03  0.12509000000E+03 0.  0.
         25    1    3    3    0    0  0.36257141408E+02 -0.15270059424E+02 -0.52648155078E+02  0.14130495869E+03  0.12509000000E+03 0.  0.
<mgrwt>
<rscale>  2 0.45288548E+03</rscale>
<asrwt>0</asrwt>
<pdfrwt beam="1">  1       21 0.38371814E-01 0.45288548E+03</pdfrwt>
<pdfrwt beam="2">  1       21 0.28899255E-01 0.45288548E+03</pdfrwt>
<totfact> 0.69532433E+04</totfact>
</mgrwt>
</event>
<event>
 6    0  0.1572624E-007  0.4530318E+03  0.7546771E-02  0.1026822E+00
         21   -1    0    0  502  501  0.00000000000E+00  0.00000000000E+00  0.12467735899E+04  0.12467735899E+04  0.00000000000E+00 0.  1.
         21   -1    0    0  501  502 -0.00000000000E+00 -0.00000000000E+00 -0.41153787114E+02  0.41153787114E+02  0.00000000000E+00 0.  1.
      99926    2    1    2    0    0  0.00000000000E+00  0.00000000000E+00  0.12056198028E+04  0.12879273770E+04  0.45303180858E+03 0.  0.
         25    1    3    3    0    0 -0.69549850377E+02  0.96781839323E+01  0.19294283735E+03  0.24042731857E+03  0.12509000000E+03 0.  0.
         25    1    3    3    0    0  0.53183204102E+02  0.20128578730E+02  0.48035689702E+03  0.49962372791E+03  0.12509000000E+03 0.  0.
         25    1    3    3    0    0  0.16366646275E+02 -0.29806762662E+02  0.53232006839E+03  0.54787633050E+03  0.12509000000E+03 0.  0.
<mgrwt>
<rscale>  2 0.45303181E+03</rscale>
<asrwt>0</asrwt>
<pdfrwt beam="1">  1       21 0.18334903E+00 0.45303181E+03</pdfrwt>
<pdfrwt beam="2">  1       21 0.60520283E-02 0.45303181E+03</pdfrwt>
<totfact> 0.29922841E+04</totfact>
</mgrwt>
</event>
<event>
 6    0  0.1572624E-007  0.4592337E+03  0.7546771E-02  0.1025004E+00
         21   -1    0    0  502  501  0.00000000000E+00  0.00000000000E+00  0.20436408455E+03  0.20436408455E+03  0.00000000000E+00 0. -1.
         21   -1    0    0  501  502 -0.00000000000E+00 -0.00000000000E+00 -0.25799003307E+03  0.25799003307E+03  0.00000000000E+00 0. -1.
      99926    2    1    2    0    0  0.00000000000E+00  0.00000000000E+00 -0.53625948513E+02  0.46235411762E+03  0.45923369620E+03 0.  0.
         25    1    3    3    0    0 -0.33786733587E+02 -0.37940877919E+02  0.47354149977E+02  0.14307682273E+03  0.12509000000E+03 0.  0.
         25    1    3    3    0    0  0.47713568207E+02  0.70911990703E+02  0.48240217693E+01  0.15157794794E+03  0.12509000000E+03 0.  0.
         25    1    3    3    0    0 -0.13926834620E+02 -0.32971112784E+02 -0.10580412026E+03  0.16769934694E+03  0.12509000000E+03 0.  0.
<mgrwt>
<rscale>  2 0.45923370E+03</rscale>
<asrwt>0</asrwt>
<pdfrwt beam="1">  1       21 0.30053542E-01 0.45923370E+03</pdfrwt>
<pdfrwt beam="2">  1       21 0.37939711E-01 0.45923370E+03</pdfrwt>
<totfact> 0.65760750E+04</totfact>
</mgrwt>
</event>
<event>
 6    0  0.1572624E-007  0.4567711E+03  0.7546771E-02  0.1025722E+00
         21   -1    0    0  502  501  0.00000000000E+00  0.00000000000E+00  0.66136833800E+02  0.66136833800E+02  0.00000000000E+00 0.  1.
         21   -1    0    0  501  502 -0.00000000000E+00 -0.00000000000E+00 -0.78866742539E+03  0.78866742539E+03  0.00000000000E+00 0.  1.
      99926    2    1    2    0    0  0.71054273576E-14  0.00000000000E+00 -0.72253059159E+03  0.85480425919E+03  0.45677113060E+03 0.  0.
         25    1    3    3    0    0  0.40646887446E+02  0.52995421423E+02 -0.11872976368E+03  0.18494580026E+03  0.12509000000E+03 0.  0.
         25    1    3    3    0    0 -0.80742275724E+02 -0.13588470689E+02 -0.36580188972E+03  0.39517400249E+03  0.12509000000E+03 0.  0.
         25    1    3    3    0    0  0.40095388278E+02 -0.39406950734E+02 -0.23799893819E+03  0.27468445643E+03  0.12509000000E+03 0.  0.
<mgrwt>
<rscale>  2 0.45677113E+03</rscale>
<asrwt>0</asrwt>
<pdfrwt beam="1">  1       21 0.97260042E-02 0.45677113E+03</pdfrwt>
<pdfrwt beam="2">  1       21 0.11598051E+00 0.45677113E+03</pdfrwt>
<totfact> 0.44602320E+04</totfact>
</mgrwt>
</event>
<event>
 6    0  0.1572624E-007  0.4830553E+03  0.7546771E-02  0.1018299E+00
         21   -1    0    0  502  501  0.00000000000E+00  0.00000000000E+00  0.29844694843E+03  0.29844694843E+03  0.00000000000E+00 0.  1.
         21   -1    0    0  501  502 -0.00000000000E+00 -0.00000000000E+00 -0.19546389125E+03  0.19546389125E+03  0.00000000000E+00 0.  1.
      99926    2    1    2    0    0  0.00000000000E+00  0.00000000000E+00  0.10298305718E+03  0.49391083967E+03  0.48305528408E+03 0.  0.
         25    1    3    3    0    0 -0.13384459963E+03  0.33962010821E+02  0.50641202046E+02  0.19307986553E+03  0.12509000000E+03 0.  0.
         25    1    3    3    0    0  0.64209093310E+02  0.18911139391E+02  0.89048008847E+01  0.14215218055E+03  0.12509000000E+03 0.  0.
         25    1    3    3    0    0  0.69635506318E+02 -0.52873150212E+02  0.43437054250E+02  0.15867879359E+03  0.12509000000E+03 0.  0.
<mgrwt>
<rscale>  2 0.48305528E+03</rscale>
<asrwt>0</asrwt>
<pdfrwt beam="1">  1       21 0.43889257E-01 0.48305528E+03</pdfrwt>
<pdfrwt beam="2">  1       21 0.28744690E-01 0.48305528E+03</pdfrwt>
<totfact> 0.52898079E+04</totfact>
</mgrwt>
</event>
<event>
 6    0  0.1572624E-007  0.4547715E+03  0.7546771E-02  0.1026309E+00
         21   -1    0    0  502  501  0.00000000000E+00  0.00000000000E+00  0.57780958630E+03  0.57780958630E+03  0.00000000000E+00 0. -1.
         21   -1    0    0  501  502 -0.00000000000E+00 -0.00000000000E+00 -0.89483251920E+02  0.89483251920E+02  0.00000000000E+00 0. -1.
      99926    2    1    2    0    0  0.00000000000E+00  0.39412917374E-14  0.48832633438E+03  0.66729283822E+03  0.45477150646E+03 0.  0.
         25    1    3    3    0    0  0.46689283035E+01 -0.37222110261E+02  0.21924533758E+03  0.25519269295E+03  0.12509000000E+03 0.  0.
         25    1    3    3    0    0 -0.36978666297E+02  0.37032844266E+02  0.24594786425E+03  0.28084998370E+03  0.12509000000E+03 0.  0.
         25    1    3    3    0    0  0.32309737993E+02  0.18926599439E+00  0.23133132550E+02  0.13125016157E+03  0.12509000000E+03 0.  0.
<mgrwt>
<rscale>  2 0.45477151E+03</rscale>
<asrwt>0</asrwt>
<pdfrwt beam="1">  1       21 0.84971996E-01 0.45477151E+03</pdfrwt>
<pdfrwt beam="2">  1       21 0.13159302E-01 0.45477151E+03</pdfrwt>
<totfact> 0.54813570E+04</totfact>
</mgrwt>
</event>
<event>
 6    0  0.1572624E-007  0.4564173E+03  0.7546771E-02  0.1025825E+00
         21   -1    0    0  502  501  0.00000000000E+00  0.00000000000E+00  0.13796258325E+03  0.13796258325E+03  0.00000000000E+00 0.  1.
         21   -1    0    0  501  502 -0.00000000000E+00 -0.00000000000E+00 -0.37748771626E+03  0.37748771626E+03  0.00000000000E+00 0.  1.
      99926    2    1    2    0    0 -0.71054273576E-14  0.00000000000E+00 -0.23952513301E+03  0.51545029951E+03  0.45641726734E+03 0.  0.
         25    1    3    3    0    0 -0.57680504526E+02 -0.10054986869E+03 -0.64842784082E+02  0.18245386114E+03  0.12509000000E+03 0.  0.
         25    1    3    3    0    0  0.24346362028E+02  0.29251983987E+02 -0.11313221620E+03  0.17290121559E+03  0.12509000000E+03 0.  0.
         25    1    3    3    0    0  0.33334142499E+02  0.71297884706E+02 -0.61550132727E+02  0.16009522278E+03  0.12509000000E+03 0.  0.
<mgrwt>
<rscale>  2 0.45641727E+03</rscale>
<asrwt>0</asrwt>
<pdfrwt beam="1">  1       21 0.20288615E-01 0.45641727E+03</pdfrwt>
<pdfrwt beam="2">  1       21 0.55512899E-01 0.45641727E+03</pdfrwt>
<totfact> 0.63481366E+04</totfact>
</mgrwt>
</event>
<event>
 6    0  0.1572624E-007  0.4446023E+03  0.7546771E-02  0.1029344E+00
         21   -1    0    0  502  501  0.00000000000E+00  0.00000000000E+00  0.12459956004E+03  0.12459956004E+03  0.00000000000E+00 0. -1.
         21   -1    0    0  501  502 -0.00000000000E+00 -0.00000000000E+00 -0.39661301724E+03  0.39661301724E+03  0.00000000000E+00 0. -1.
      99926    2    1    2    0    0  0.00000000000E+00  0.00000000000E+00 -0.27201345720E+03  0.52121257728E+03  0.44460232773E+03 0.  0.
         25    1    3    3    0    0  0.27692354945E+01 -0.48502442208E+02 -0.20112123919E+03  0.24177968591E+03  0.12509000000E+03 0.  0.
         25    1    3    3    0    0  0.26895817590E+01  0.57755004347E+02 -0.55991879079E+01  0.13791930025E+03  0.12509000000E+03 0.  0.
         25    1    3    3    0    0 -0.54588172535E+01 -0.92525621387E+01 -0.65293030108E+02  0.14151359112E+03  0.12509000000E+03 0.  0.
<mgrwt>
<rscale>  2 0.44460233E+03</rscale>
<asrwt>0</asrwt>
<pdfrwt beam="1">  1       21 0.18323464E-01 0.44460233E+03</pdfrwt>
<pdfrwt beam="2">  1       21 0.58325445E-01 0.44460233E+03</pdfrwt>
<totfact> 0.69344689E+04</totfact>
</mgrwt>
</event>
<event>
 6    0  0.1572624E-007  0.4526412E+03  0.7546771E-02  0.1026937E+00
         21   -1    0    0  502  501  0.00000000000E+00  0.00000000000E+00  0.25158124476E+04  0.25158124476E+04  0.00000000000E+00 0. -1.
         21   -1    0    0  501  502 -0.00000000000E+00 -0.00000000000E+00 -0.20359627747E+02  0.20359627747E+02  0.00000000000E+00 0. -1.
      99926    2    1    2    0    0 -0.14210854715E-13  0.35527136788E-14  0.24954528198E+04  0.25361720753E+04  0.45264115992E+03 0.  0.
         25    1    3    3    0    0 -0.43271567443E+02  0.46373897446E+02  0.64138936593E+03  0.65654458626E+03  0.12509000000E+03 0.  0.
         25    1    3    3    0    0 -0.30656304043E+02 -0.20599992784E+02  0.12901019418E+04  0.12966783322E+04  0.12509000000E+03 0.  0.
         25    1    3    3    0    0  0.73927871486E+02 -0.25773904663E+02  0.56396151207E+03  0.58294915691E+03  0.12509000000E+03 0.  0.
<mgrwt>
<rscale>  2 0.45264116E+03</rscale>
<asrwt>0</asrwt>
<pdfrwt beam="1">  1       21 0.36997220E+00 0.45264116E+03</pdfrwt>
<pdfrwt beam="2">  1       21 0.29940646E-02 0.45264116E+03</pdfrwt>
<totfact> 0.68943340E+03</totfact>
</mgrwt>
</event>
<event>
 6    0  0.1572624E-007  0.4544823E+03  0.7546771E-02  0.1026394E+00
         21   -1    0    0  502  501  0.00000000000E+00  0.00000000000E+00  0.24905103165E+04  0.24905103165E+04  0.00000000000E+00 0.  1.
         21   -1    0    0  501  502 -0.00000000000E+00 -0.00000000000E+00 -0.20734118604E+02  0.20734118604E+02  0.00000000000E+00 0.  1.
      99926    2    1    2    0    0 -0.84376949872E-14  0.00000000000E+00  0.24697761979E+04  0.25112444351E+04  0.45448228255E+03 0.  0.
         25    1    3    3    0    0  0.84908879761E+02  0.65019200703E+02  0.86774753931E+03  0.88321589342E+03  0.12509000000E+03 0.  0.
         25    1    3    3    0    0  0.38697949869E+01 -0.42016001607E+02  0.62781710204E+03  0.64154667906E+03  0.12509000000E+03 0.  0.
         25    1    3    3    0    0 -0.88778674748E+02 -0.23003199097E+02  0.97421155655E+03  0.98648186261E+03  0.12509000000E+03 0.  0.
<mgrwt>
<rscale>  2 0.45448228E+03</rscale>
<asrwt>0</asrwt>
<pdfrwt beam="1">  1       21 0.36625131E+00 0.45448228E+03</pdfrwt>
<pdfrwt beam="2">  1       21 0.30491368E-02 0.45448228E+03</pdfrwt>
<totfact> 0.70457382E+03</totfact>
</mgrwt>
</event>
<event>
 6    0  0.1572624E-007  0.4464965E+03  0.7546771E-02  0.1028772E+00
         21   -1    0    0  502  501  0.00000000000E+00  0.00000000000E+00  0.17004698063E+04  0.17004698063E+04  0.00000000000E+00 0. -1.
         21   -1    0    0  501  502 -0.00000000000E+00 -0.00000000000E+00 -0.29309412525E+02  0.29309412525E+02  0.00000000000E+00 0. -1.
      99926    2    1    2    0    0  0.00000000000E+00  0.00000000000E+00  0.16711603938E+04  0.17297792188E+04  0.44649645481E+03 0.  0.
         25    1    3    3    0    0  0.44417327496E+01 -0.99718139164E+02  0.70418351630E+03  0.72213943875E+03  0.12509000000E+03 0.  0.
         25    1    3    3    0    0  0.18607708392E+02  0.46434909880E+02  0.34091330337E+03  0.36656764203E+03  0.12509000000E+03 0.  0.
         25    1    3    3    0    0 -0.23049441142E+02  0.53283229284E+02  0.62606357411E+03  0.64107213805E+03  0.12509000000E+03 0.  0.
<mgrwt>
<rscale>  2 0.44649645E+03</rscale>
<asrwt>0</asrwt>
<pdfrwt beam="1">  1       21 0.25006902E+00 0.44649645E+03</pdfrwt>
<pdfrwt beam="2">  1       21 0.43102089E-02 0.44649645E+03</pdfrwt>
<totfact> 0.19932390E+04</totfact>
</mgrwt>
</event>
<event>
 6    0  0.1572624E-007  0.4535605E+03  0.7546771E-02  0.1026666E+00
         21   -1    0    0  502  501  0.00000000000E+00  0.00000000000E+00  0.12259305056E+04  0.12259305056E+04  0.00000000000E+00 0. -1.
         21   -1    0    0  501  502 -0.00000000000E+00 -0.00000000000E+00 -0.41951230285E+02  0.41951230285E+02  0.00000000000E+00 0. -1.
      99926    2    1    2    0    0  0.00000000000E+00  0.17763568394E-14  0.11839792753E+04  0.12678817359E+04  0.45356054922E+03 0.  0.
         25    1    3    3    0    0 -0.50935773369E+02 -0.10823668736E+02  0.25405857597E+03  0.28793206306E+03  0.12509000000E+03 0.  0.
         25    1    3    3    0    0  0.79782373598E+02 -0.42515933545E+02  0.33258135981E+03  0.36664792477E+03  0.12509000000E+03 0.  0.
         25    1    3    3    0    0 -0.28846600229E+02  0.53339602281E+02  0.59733933952E+03  0.61330174804E+03  0.12509000000E+03 0.  0.
<mgrwt>
<rscale>  2 0.45356055E+03</rscale>
<asrwt>0</asrwt>
<pdfrwt beam="1">  1       21 0.18028387E+00 0.45356055E+03</pdfrwt>
<pdfrwt beam="2">  1       21 0.61692994E-02 0.45356055E+03</pdfrwt>
<totfact> 0.30401112E+04</totfact>
</mgrwt>
</event>
<event>
 6    0  0.1572624E-007  0.4544142E+03  0.7546771E-02  0.1026414E+00
         21   -1    0    0  502  501  0.00000000000E+00  0.00000000000E+00  0.15154642367E+03  0.15154642367E+03  0.00000000000E+00 0. -1.
         21   -1    0    0  501  502 -0.00000000000E+00 -0.00000000000E+00 -0.34064194995E+03  0.34064194995E+03  0.00000000000E+00 0. -1.
      99926    2    1    2    0    0  0.00000000000E+00 -0.14210854715E-13 -0.18909552628E+03  0.49218837361E+03  0.45441421309E+03 0.  0.
         25    1    3    3    0    0  0.29733929028E+01  0.15722290243E+02 -0.58401230209E+02  0.13897569308E+03  0.12509000000E+03 0.  0.
         25    1    3    3    0    0 -0.33538641007E+02 -0.10800386349E+03 -0.53011465052E+02  0.17676933698E+03  0.12509000000E+03 0.  0.
         25    1    3    3    0    0  0.30565248105E+02  0.92281573244E+02 -0.77682831020E+02  0.17644334356E+03  0.12509000000E+03 0.  0.
<mgrwt>
<rscale>  2 0.45441421E+03</rscale>
<asrwt>0</asrwt>
<pdfrwt beam="1">  1       21 0.22286239E-01 0.45441421E+03</pdfrwt>
<pdfrwt beam="2">  1       21 0.50094404E-01 0.45441421E+03</pdfrwt>
<totfact> 0.66130000E+04</totfact>
</mgrwt>
</event>
<event>
 6    0  0.1572624E-007  0.4519383E+03  0.7546771E-02  0.1027146E+00
         21   -1    0    0  502  501  0.00000000000E+00  0.00000000000E+00  0.17273184563E+03  0.17273184563E+03  0.00000000000E+00 0. -1.
         21   -1    0    0  501  502 -0.00000000000E+00 -0.00000000000E+00 -0.29561460657E+03  0.29561460657E+03  0.00000000000E+00 0. -1.
      99926    2    1    2    0    0  0.00000000000E+00  0.00000000000E+00 -0.12288276094E+03  0.46834645220E+03  0.45193829927E+03 0.  0.
         25    1    3    3    0    0 -0.12329136511E+02  0.33801244002E+02 -0.43188128092E+02  0.13713954284E+03  0.12509000000E+03 0.  0.
         25    1    3    3    0    0  0.76706522026E+02 -0.44476318051E+02 -0.10769021305E+03  0.18736788272E+03  0.12509000000E+03 0.  0.
         25    1    3    3    0    0 -0.64377385514E+02  0.10675074049E+02  0.27995580204E+02  0.14383902663E+03  0.12509000000E+03 0.  0.
<mgrwt>
<rscale>  2 0.45193830E+03</rscale>
<asrwt>0</asrwt>
<pdfrwt beam="1">  1       21 0.25401742E-01 0.45193830E+03</pdfrwt>
<pdfrwt beam="2">  1       21 0.43472736E-01 0.45193830E+03</pdfrwt>
<totfact> 0.69225091E+04</totfact>
</mgrwt>
</event>
<event>
 6    0  0.1572624E-007  0.4604397E+03  0.7546771E-02  0.1024654E+00
         21   -1    0    0  502  501  0.00000000000E+00  0.00000000000E+00  0.67990850699E+02  0.67990850699E+02  0.00000000000E+00 0. -1.
         21   -1    0    0  501  502 -0.00000000000E+00 -0.00000000000E+00 -0.77953415462E+03  0.77953415462E+03  0.00000000000E+00 0. -1.
      99926    2    1    2    0    0  0.14210854715E-13  0.00000000000E+00 -0.71154330392E+03  0.84752500532E+03  0.46043974773E+03 0.  0.
         25    1    3    3    0    0  0.77366188527E+02 -0.14453566099E+02 -0.37684715886E+03  0.40479096079E+03  0.12509000000E+03 0.  0.
         25    1    3    3    0    0 -0.12347958809E+02 -0.33478256610E+02 -0.97061732191E+02  0.16230142855E+03  0.12509000000E+03 0.  0.
         25    1    3    3    0    0 -0.65018229718E+02  0.47931822709E+02 -0.23763441287E+03  0.28043261598E+03  0.12509000000E+03 0.  0.
<mgrwt>
<rscale>  2 0.46043975E+03</rscale>
<asrwt>0</asrwt>
<pdfrwt beam="1">  1       21 0.99986544E-02 0.46043975E+03</pdfrwt>
<pdfrwt beam="2">  1       21 0.11463738E+00 0.46043975E+03</pdfrwt>
<totfact> 0.43657230E+04</totfact>
</mgrwt>
</event>
<event>
 6    0  0.1572624E-007  0.4496254E+03  0.7546771E-02  0.1027834E+00
         21   -1    0    0  502  501  0.00000000000E+00  0.00000000000E+00  0.41775104472E+03  0.41775104472E+03  0.00000000000E+00 0. -1.
         21   -1    0    0  501  502 -0.00000000000E+00 -0.00000000000E+00 -0.12098293244E+03  0.12098293244E+03  0.00000000000E+00 0. -1.
      99926    2    1    2    0    0  0.00000000000E+00 -0.71054273576E-14  0.29676811227E+03  0.53873397716E+03  0.44962538372E+03 0.  0.
         25    1    3    3    0    0 -0.81709268707E+01  0.13814137651E+02  0.29791928256E+02  0.12958650213E+03  0.12509000000E+03 0.  0.
         25    1    3    3    0    0  0.90024791664E+02  0.21374642830E+02  0.14968760913E+03  0.21590559719E+03  0.12509000000E+03 0.  0.
         25    1    3    3    0    0 -0.81853864793E+02 -0.35188780480E+02  0.11728857488E+03  0.19324187784E+03  0.12509000000E+03 0.  0.
<mgrwt>
<rscale>  2 0.44962538E+03</rscale>
<asrwt>0</asrwt>
<pdfrwt beam="1">  1       21 0.61433977E-01 0.44962538E+03</pdfrwt>
<pdfrwt beam="2">  1       21 0.17791608E-01 0.44962538E+03</pdfrwt>
<totfact> 0.65352932E+04</totfact>
</mgrwt>
</event>
<event>
 6    0  0.1572624E-007  0.4479200E+03  0.7546771E-02  0.1028344E+00
         21   -1    0    0  502  501  0.00000000000E+00  0.00000000000E+00  0.98107322202E+02  0.98107322202E+02  0.00000000000E+00 0.  1.
         21   -1    0    0  501  502 -0.00000000000E+00 -0.00000000000E+00 -0.51125735437E+03  0.51125735437E+03  0.00000000000E+00 0.  1.
      99926    2    1    2    0    0  0.35527136788E-14  0.00000000000E+00 -0.41315003217E+03  0.60936467658E+03  0.44792003748E+03 0.  0.
         25    1    3    3    0    0  0.65468373487E+02 -0.42955914895E+01 -0.22478232328E+03  0.26547911592E+03  0.12509000000E+03 0.  0.
         25    1    3    3    0    0 -0.18659309209E+02 -0.10428000046E+02 -0.16393168565E+03  0.20731140505E+03  0.12509000000E+03 0.  0.
         25    1    3    3    0    0 -0.46809064278E+02  0.14723591536E+02 -0.24436023247E+02  0.13657415560E+03  0.12509000000E+03 0.  0.
<mgrwt>
<rscale>  2 0.44792004E+03</rscale>
<asrwt>0</asrwt>
<pdfrwt beam="1">  1       21 0.14427548E-01 0.44792004E+03</pdfrwt>
<pdfrwt beam="2">  1       21 0.75184902E-01 0.44792004E+03</pdfrwt>
<totfact> 0.61471750E+04</totfact>
</mgrwt>
</event>
<event>
 6    0  0.1572624E-007  0.4541336E+03  0.7546771E-02  0.1026496E+00
         21   -1    0    0  502  501  0.00000000000E+00  0.00000000000E+00  0.10304754209E+03  0.10304754209E+03  0.00000000000E+00 0.  1.
         21   -1    0    0  501  502 -0.00000000000E+00 -0.00000000000E+00 -0.50034511933E+03  0.50034511933E+03  0.00000000000E+00 0.  1.
      99926    2    1    2    0    0  0.00000000000E+00 -0.71054273576E-14 -0.39729757724E+03  0.60339266142E+03  0.45413361357E+03 0.  0.
         25    1    3    3    0    0  0.29272105584E+02 -0.92764705747E+02 -0.60502315368E+02  0.16961776164E+03  0.12509000000E+03 0.  0.
         25    1    3    3    0    0  0.64012639931E+01  0.38581731250E+02 -0.14049169163E+03  0.19213263566E+03  0.12509000000E+03 0.  0.
         25    1    3    3    0    0 -0.35673369577E+02  0.54182974497E+02 -0.19630357024E+03  0.24164226412E+03  0.12509000000E+03 0.  0.
<mgrwt>
<rscale>  2 0.45413361E+03</rscale>
<asrwt>0</asrwt>
<pdfrwt beam="1">  1       21 0.15154050E-01 0.45413361E+03</pdfrwt>
<pdfrwt beam="2">  1       21 0.73580166E-01 0.45413361E+03</pdfrwt>
<totfact> 0.58871859E+04</totfact>
</mgrwt>
</event>
<event>
 6    0  0.1572624E-007  0.4559272E+03  0.7546771E-02  0.1025969E+00
         21   -1    0    0  502  501  0.00000000000E+00  0.00000000000E+00  0.44948092279E+02  0.44948092279E+02  0.00000000000E+00 0. -1.
         21   -1    0    0  501  502 -0.00000000000E+00 -0.00000000000E+00 -0.11561646817E+04  0.11561646817E+04  0.00000000000E+00 0. -1.
      99926    2    1    2    0    0  0.00000000000E+00  0.00000000000E+00 -0.11112165894E+04  0.12011127739E+04  0.45592717314E+03 0.  0.
         25    1    3    3    0    0  0.49278158337E+02 -0.48422212971E+02 -0.52711486513E+03  0.54614159037E+03  0.12509000000E+03 0.  0.
         25    1    3    3    0    0  0.32639496482E+02  0.50355915471E+02 -0.20591532193E+03  0.24829354172E+03  0.12509000000E+03 0.  0.
         25    1    3    3    0    0 -0.81917654819E+02 -0.19337024996E+01 -0.37818640232E+03  0.40667764184E+03  0.12509000000E+03 0.  0.
<mgrwt>
<rscale>  2 0.45592717E+03</rscale>
<asrwt>0</asrwt>
<pdfrwt beam="1">  1       21 0.66100140E-02 0.45592717E+03</pdfrwt>
<pdfrwt beam="2">  1       21 0.17002421E+00 0.45592717E+03</pdfrwt>
<totfact> 0.31889751E+04</totfact>
</mgrwt>
</event>
<event>
 6    0  0.1572624E-007  0.4564871E+03  0.7546771E-02  0.1025805E+00
         21   -1    0    0  502  501  0.00000000000E+00  0.00000000000E+00  0.42712626211E+03  0.42712626211E+03  0.00000000000E+00 0.  1.
         21   -1    0    0  501  502 -0.00000000000E+00 -0.00000000000E+00 -0.12196657589E+03  0.12196657589E+03  0.00000000000E+00 0.  1.
      99926    2    1    2    0    0  0.00000000000E+00  0.00000000000E+00  0.30515968622E+03  0.54909283801E+03  0.45648714183E+03 0.  0.
         25    1    3    3    0    0  0.54133038064E+02  0.19700828814E+02  0.29450432497E+02  0.14083090762E+03  0.12509000000E+03 0.  0.
         25    1    3    3    0    0  0.18456820884E+02  0.28047466131E+02  0.19975399195E+03  0.23806822550E+03  0.12509000000E+03 0.  0.
         25    1    3    3    0    0 -0.72589858948E+02 -0.47748294945E+02  0.75955261766E+02  0.17019370488E+03  0.12509000000E+03 0.  0.
<mgrwt>
<rscale>  2 0.45648714E+03</rscale>
<asrwt>0</asrwt>
<pdfrwt beam="1">  1       21 0.62812685E-01 0.45648714E+03</pdfrwt>
<pdfrwt beam="2">  1       21 0.17936261E-01 0.45648714E+03</pdfrwt>
<totfact> 0.61203170E+04</totfact>
</mgrwt>
</event>
<event>
 6    0  0.1572624E-007  0.4469874E+03  0.7546771E-02  0.1028624E+00
         21   -1    0    0  502  501  0.00000000000E+00  0.00000000000E+00  0.89758910323E+03  0.89758910323E+03  0.00000000000E+00 0. -1.
         21   -1    0    0  501  502 -0.00000000000E+00 -0.00000000000E+00 -0.55648445276E+02  0.55648445276E+02  0.00000000000E+00 0. -1.
      99926    2    1    2    0    0  0.00000000000E+00  0.00000000000E+00  0.84194065796E+03  0.95323754851E+03  0.44698741858E+03 0.  0.
         25    1    3    3    0    0 -0.95659761583E+00  0.65093969004E+00  0.35766878710E+03  0.37891398518E+03  0.12509000000E+03 0.  0.
         25    1    3    3    0    0  0.56091129712E+02 -0.67652459894E+02  0.19866402606E+03  0.25067503568E+03  0.12509000000E+03 0.  0.
         25    1    3    3    0    0 -0.55134532097E+02  0.67001520204E+02  0.28560784481E+03  0.32364852766E+03  0.12509000000E+03 0.  0.
<mgrwt>
<rscale>  2 0.44698742E+03</rscale>
<asrwt>0</asrwt>
<pdfrwt beam="1">  1       21 0.13199839E+00 0.44698742E+03</pdfrwt>
<pdfrwt beam="2">  1       21 0.81835954E-02 0.44698742E+03</pdfrwt>
<totfact> 0.43683367E+04</totfact>
</mgrwt>
</event>
<event>
 6    0  0.1572624E-007  0.4655249E+03  0.7546771E-02  0.1023191E+00
         21   -1    0    0  502  501  0.00000000000E+00  0.00000000000E+00  0.25495919113E+03  0.25495919113E+03  0.00000000000E+00 0. -1.
         21   -1    0    0  501  502 -0.00000000000E+00 -0.00000000000E+00 -0.21249819330E+03  0.21249819330E+03  0.00000000000E+00 0. -1.
      99926    2    1    2    0    0  0.00000000000E+00 -0.71054273576E-14  0.42460997823E+02  0.46745738443E+03  0.46552494017E+03 0.  0.
         25    1    3    3    0    0  0.67718530839E+01  0.22473464945E+02  0.13882634376E+02  0.12802792765E+03  0.12509000000E+03 0.  0.
         25    1    3    3    0    0  0.71616860601E+02  0.36398686830E+02  0.84436864628E+02  0.17097055692E+03  0.12509000000E+03 0.  0.
         25    1    3    3    0    0 -0.78388713685E+02 -0.58872151775E+02 -0.55858501180E+02  0.16845889986E+03  0.12509000000E+03 0.  0.
<mgrwt>
<rscale>  2 0.46552494E+03</rscale>
<asrwt>0</asrwt>
<pdfrwt beam="1">  1       21 0.37493999E-01 0.46552494E+03</pdfrwt>
<pdfrwt beam="2">  1       21 0.31249734E-01 0.46552494E+03</pdfrwt>
<totfact> 0.62248789E+04</totfact>
</mgrwt>
</event>
<event>
 6    0  0.1572624E-007  0.4546008E+03  0.7546771E-02  0.1026359E+00
         21   -1    0    0  502  501  0.00000000000E+00  0.00000000000E+00  0.15536555211E+03  0.15536555211E+03  0.00000000000E+00 0. -1.
         21   -1    0    0  501  502 -0.00000000000E+00 -0.00000000000E+00 -0.33254140431E+03  0.33254140431E+03  0.00000000000E+00 0. -1.
      99926    2    1    2    0    0  0.00000000000E+00 -0.71054273576E-14 -0.17717585220E+03  0.48790695642E+03  0.45460083097E+03 0.  0.
         25    1    3    3    0    0 -0.40203800967E+02  0.75821357655E+02 -0.28903286405E+02  0.15442840397E+03  0.12509000000E+03 0.  0.
         25    1    3    3    0    0 -0.27820376810E+02 -0.33535533272E+02 -0.12685333836E+03  0.18340633280E+03  0.12509000000E+03 0.  0.
         25    1    3    3    0    0  0.68024177777E+02 -0.42285824382E+02 -0.21419227438E+02  0.15007221965E+03  0.12509000000E+03 0.  0.
<mgrwt>
<rscale>  2 0.45460083E+03</rscale>
<asrwt>0</asrwt>
<pdfrwt beam="1">  1       21 0.22847875E-01 0.45460083E+03</pdfrwt>
<pdfrwt beam="2">  1       21 0.48903148E-01 0.45460083E+03</pdfrwt>
<totfact> 0.66338850E+04</totfact>
</mgrwt>
</event>
<event>
 6    0  0.1572624E-007  0.4301997E+03  0.7546771E-02  0.1033797E+00
         21   -1    0    0  502  501  0.00000000000E+00  0.00000000000E+00  0.72423204449E+02  0.72423204449E+02  0.00000000000E+00 0. -1.
         21   -1    0    0  501  502 -0.00000000000E+00 -0.00000000000E+00 -0.63885524247E+03  0.63885524247E+03  0.00000000000E+00 0. -1.
      99926    2    1    2    0    0  0.00000000000E+00 -0.35527136788E-14 -0.56643203802E+03  0.71127844692E+03  0.43019969242E+03 0.  0.
         25    1    3    3    0    0  0.21782355489E+02 -0.14994670223E+02 -0.14359712980E+03  0.19226792486E+03  0.12509000000E+03 0.  0.
         25    1    3    3    0    0 -0.73538980237E+02  0.38009582321E+02 -0.14272157246E+03  0.20704991018E+03  0.12509000000E+03 0.  0.
         25    1    3    3    0    0  0.51756624748E+02 -0.23014912098E+02 -0.28011333576E+03  0.31196061187E+03  0.12509000000E+03 0.  0.
<mgrwt>
<rscale>  2 0.43019969E+03</rscale>
<asrwt>0</asrwt>
<pdfrwt beam="1">  1       21 0.10650471E-01 0.43019969E+03</pdfrwt>
<pdfrwt beam="2">  1       21 0.93949299E-01 0.43019969E+03</pdfrwt>
<totfact> 0.63874743E+04</totfact>
</mgrwt>
</event>
<event>
 6    0  0.1572624E-007  0.4625217E+03  0.7546771E-02  0.1024052E+00
         21   -1    0    0  502  501  0.00000000000E+00  0.00000000000E+00  0.26834564952E+03  0.26834564952E+03  0.00000000000E+00 0. -1.
         21   -1    0    0  501  502 -0.00000000000E+00 -0.00000000000E+00 -0.19930107260E+03  0.19930107260E+03  0.00000000000E+00 0. -1.
      99926    2    1    2    0    0  0.00000000000E+00 -0.71054273576E-14  0.69044576921E+02  0.46764672212E+03  0.46252167852E+03 0.  0.
         25    1    3    3    0    0  0.25624995731E+02  0.46338094136E+02  0.10070479462E+02  0.13620859749E+03  0.12509000000E+03 0.  0.
         25    1    3    3    0    0 -0.15439470093E+02  0.34830684354E+02 -0.56614241400E+02  0.14249292698E+03  0.12509000000E+03 0.  0.
         25    1    3    3    0    0 -0.10185525639E+02 -0.81168778490E+02  0.11558833886E+03  0.18894519765E+03  0.12509000000E+03 0.  0.
<mgrwt>
<rscale>  2 0.46252168E+03</rscale>
<asrwt>0</asrwt>
<pdfrwt beam="1">  1       21 0.39462596E-01 0.46252168E+03</pdfrwt>
<pdfrwt beam="2">  1       21 0.29308981E-01 0.46252168E+03</pdfrwt>
<totfact> 0.63718136E+04</totfact>
</mgrwt>
</event>
<event>
 6    0  0.1572624E-007  0.4632862E+03  0.7546771E-02  0.1023832E+00
         21   -1    0    0  502  501  0.00000000000E+00  0.00000000000E+00  0.12976215914E+04  0.12976215914E+04  0.00000000000E+00 0. -1.
         21   -1    0    0  501  502 -0.00000000000E+00 -0.00000000000E+00 -0.41351435788E+02  0.41351435788E+02  0.00000000000E+00 0. -1.
      99926    2    1    2    0    0  0.17763568394E-14  0.00000000000E+00  0.12562701556E+04  0.13389730272E+04  0.46328615743E+03 0.  0.
         25    1    3    3    0    0 -0.31651380771E+02 -0.77161631114E+02  0.29665179016E+03  0.33257408186E+03  0.12509000000E+03 0.  0.
         25    1    3    3    0    0  0.20609672838E+02 -0.38304403263E+02  0.43928622218E+03  0.45881573537E+03  0.12509000000E+03 0.  0.
         25    1    3    3    0    0  0.11041707933E+02  0.11546603438E+03  0.52033214331E+03  0.54758321000E+03  0.12509000000E+03 0.  0.
<mgrwt>
<rscale>  2 0.46328616E+03</rscale>
<asrwt>0</asrwt>
<pdfrwt beam="1">  1       21 0.19082668E+00 0.46328616E+03</pdfrwt>
<pdfrwt beam="2">  1       21 0.60810943E-02 0.46328616E+03</pdfrwt>
<totfact> 0.26269913E+04</totfact>
</mgrwt>
</event>
<event>
 6    0  0.1572624E-007  0.4732910E+03  0.7546771E-02  0.1020995E+00
         21   -1    0    0  502  501  0.00000000000E+00  0.00000000000E+00  0.32046328194E+03  0.32046328194E+03  0.00000000000E+00 0. -1.
         21   -1    0    0  501  502 -0.00000000000E+00 -0.00000000000E+00 -0.17475043801E+03  0.17475043801E+03  0.00000000000E+00 0. -1.
      99926    2    1    2    0    0  0.00000000000E+00  0.35527136788E-14  0.14571284393E+03  0.49521371995E+03  0.47329102626E+03 0.  0.
         25    1    3    3    0    0 -0.16409648448E+02 -0.16654202940E+01  0.13745679419E+03  0.18658490977E+03  0.12509000000E+03 0.  0.
         25    1    3    3    0    0 -0.47817958553E+02  0.29105903360E+02  0.68499353103E+02  0.15321024850E+03  0.12509000000E+03 0.  0.
         25    1    3    3    0    0  0.64227607001E+02 -0.27440483066E+02 -0.60243303359E+02  0.15541856167E+03  0.12509000000E+03 0.  0.
<mgrwt>
<rscale>  2 0.47329103E+03</rscale>
<asrwt>0</asrwt>
<pdfrwt beam="1">  1       21 0.47126953E-01 0.47329103E+03</pdfrwt>
<pdfrwt beam="2">  1       21 0.25698594E-01 0.47329103E+03</pdfrwt>
<totfact> 0.56888619E+04</totfact>
</mgrwt>
</event>
<event>
 6    0  0.1572624E-007  0.4608103E+03  0.7546771E-02  0.1024546E+00
         21   -1    0    0  502  501  0.00000000000E+00  0.00000000000E+00  0.30189241094E+03  0.30189241094E+03  0.00000000000E+00 0.  1.
         21   -1    0    0  501  502 -0.00000000000E+00 -0.00000000000E+00 -0.17584590649E+03  0.17584590649E+03  0.00000000000E+00 0.  1.
      99926    2    1    2    0    0  0.00000000000E+00  0.00000000000E+00  0.12604650445E+03  0.47773831742E+03  0.46081034998E+03 0.  0.
         25    1    3    3    0    0  0.38352057052E+02 -0.18523894465E+02 -0.11991867673E+02  0.13268507051E+03  0.12509000000E+03 0.  0.
         25    1    3    3    0    0 -0.88544044926E+02  0.19859126713E+02  0.34542299927E+01  0.15457642967E+03  0.12509000000E+03 0.  0.
         25    1    3    3    0    0  0.50191987874E+02 -0.13352322473E+01  0.13458414213E+03  0.19047681724E+03  0.12509000000E+03 0.  0.
<mgrwt>
<rscale>  2 0.46081035E+03</rscale>
<asrwt>0</asrwt>
<pdfrwt beam="1">  1       21 0.44395943E-01 0.46081035E+03</pdfrwt>
<pdfrwt beam="2">  1       21 0.25859692E-01 0.46081035E+03</pdfrwt>
<totfact> 0.63869053E+04</totfact>
</mgrwt>
</event>
<event>
 6    0  0.1572624E-007  0.4590572E+03  0.7546771E-02  0.1025055E+00
         21   -1    0    0  502  501  0.00000000000E+00  0.00000000000E+00  0.37250931223E+03  0.37250931223E+03  0.00000000000E+00 0. -1.
         21   -1    0    0  501  502 -0.00000000000E+00 -0.00000000000E+00 -0.14142837074E+03  0.14142837074E+03  0.00000000000E+00 0. -1.
      99926    2    1    2    0    0 -0.35527136788E-14 -0.71054273576E-14  0.23108094149E+03  0.51393768297E+03  0.45905723005E+03 0.  0.
         25    1    3    3    0    0  0.63351359677E+01  0.62179510089E+02  0.68210661520E+02  0.15558479318E+03  0.12509000000E+03 0.  0.
         25    1    3    3    0    0 -0.36295778030E+02  0.39713611386E+01  0.16921181503E+03  0.21357270813E+03  0.12509000000E+03 0.  0.
         25    1    3    3    0    0  0.29960642063E+02 -0.66150871227E+02 -0.63415350623E+01  0.14478018167E+03  0.12509000000E+03 0.  0.
<mgrwt>
<rscale>  2 0.45905723E+03</rscale>
<asrwt>0</asrwt>
<pdfrwt beam="1">  1       21 0.54780781E-01 0.45905723E+03</pdfrwt>
<pdfrwt beam="2">  1       21 0.20798290E-01 0.45905723E+03</pdfrwt>
<totfact> 0.62272839E+04</totfact>
</mgrwt>
</event>
<event>
 6    0  0.1572624E-007  0.4581515E+03  0.7546771E-02  0.1025319E+00
         21   -1    0    0  502  501  0.00000000000E+00  0.00000000000E+00  0.85206568145E+03  0.85206568145E+03  0.00000000000E+00 0. -1.
         21   -1    0    0  501  502 -0.00000000000E+00 -0.00000000000E+00 -0.61586439973E+02  0.61586439973E+02  0.00000000000E+00 0. -1.
      99926    2    1    2    0    0 -0.35527136788E-14  0.00000000000E+00  0.79047924148E+03  0.91365212142E+03  0.45815146816E+03 0.  0.
         25    1    3    3    0    0  0.19248019999E+02  0.35681443673E+02  0.17439261107E+03  0.21841232244E+03  0.12509000000E+03 0.  0.
         25    1    3    3    0    0 -0.90397890259E+02  0.31736776382E+02  0.37181860152E+03  0.40382617805E+03  0.12509000000E+03 0.  0.
         25    1    3    3    0    0  0.71149870260E+02 -0.67418220055E+02  0.24426802889E+03  0.29141362094E+03  0.12509000000E+03 0.  0.
<mgrwt>
<rscale>  2 0.45815147E+03</rscale>
<asrwt>0</asrwt>
<pdfrwt beam="1">  1       21 0.12530377E+00 0.45815147E+03</pdfrwt>
<pdfrwt beam="2">  1       21 0.90568299E-02 0.45815147E+03</pdfrwt>
<totfact> 0.41612653E+04</totfact>
</mgrwt>
</event>
<event>
 6    0  0.1572624E-007  0.4438496E+03  0.7546771E-02  0.1029572E+00
         21   -1    0    0  502  501  0.00000000000E+00  0.00000000000E+00  0.13814672015E+03  0.13814672015E+03  0.00000000000E+00 0.  1.
         21   -1    0    0  501  502 -0.00000000000E+00 -0.00000000000E+00 -0.35650956285E+03  0.35650956285E+03  0.00000000000E+00 0.  1.
      99926    2    1    2    0    0  0.00000000000E+00 -0.17763568394E-14 -0.21836284270E+03  0.49465628300E+03  0.44384964485E+03 0.  0.
         25    1    3    3    0    0 -0.79495375609E+02  0.15885656727E+02 -0.13463414109E+02  0.14966843506E+03  0.12509000000E+03 0.  0.
         25    1    3    3    0    0 -0.11981667815E+01 -0.73200380680E+01 -0.68015504162E+02  0.14257852386E+03  0.12509000000E+03 0.  0.
         25    1    3    3    0    0  0.80693542390E+02 -0.85656186590E+01 -0.13688392443E+03  0.20240932408E+03  0.12509000000E+03 0.  0.
<mgrwt>
<rscale>  2 0.44384964E+03</rscale>
<asrwt>0</asrwt>
<pdfrwt beam="1">  1       21 0.20315695E-01 0.44384964E+03</pdfrwt>
<pdfrwt beam="2">  1       21 0.52427875E-01 0.44384964E+03</pdfrwt>
<totfact> 0.71794953E+04</totfact>
</mgrwt>
</event>
<event>
 6    0  0.1572624E-007  0.4653633E+03  0.7546771E-02  0.1023237E+00
         21   -1    0    0  502  501  0.00000000000E+00  0.00000000000E+00  0.10369734016E+03  0.10369734016E+03  0.00000000000E+00 0.  1.
         21   -1    0    0  501  502 -0.00000000000E+00 -0.00000000000E+00 -0.52210347795E+03  0.52210347795E+03  0.00000000000E+00 0.  1.
      99926    2    1    2    0    0  0.00000000000E+00  0.00000000000E+00 -0.41840613779E+03  0.62580081810E+03  0.46536326434E+03 0.  0.
         25    1    3    3    0    0 -0.87791501282E+01 -0.40945816903E+02 -0.15675365576E+03  0.20487276562E+03  0.12509000000E+03 0.  0.
         25    1    3    3    0    0 -0.39551305407E+02  0.80362336023E+02 -0.40135837031E+02  0.15899938467E+03  0.12509000000E+03 0.  0.
         25    1    3    3    0    0  0.48330455535E+02 -0.39416519119E+02 -0.22151664500E+03  0.26192866781E+03  0.12509000000E+03 0.  0.
<mgrwt>
<rscale>  2 0.46536326E+03</rscale>
<asrwt>0</asrwt>
<pdfrwt beam="1">  1       21 0.15249609E-01 0.46536326E+03</pdfrwt>
<pdfrwt beam="2">  1       21 0.76779922E-01 0.46536326E+03</pdfrwt>
<totfact> 0.52673475E+04</totfact>
</mgrwt>
</event>
<event>
 6    0  0.1572624E-007  0.4537342E+03  0.7546771E-02  0.1026614E+00
         21   -1    0    0  502  501  0.00000000000E+00  0.00000000000E+00  0.15651045040E+03  0.15651045040E+03  0.00000000000E+00 0. -1.
         21   -1    0    0  501  502 -0.00000000000E+00 -0.00000000000E+00 -0.32885138212E+03  0.32885138212E+03  0.00000000000E+00 0. -1.
      99926    2    1    2    0    0  0.00000000000E+00  0.15543122345E-14 -0.17234093172E+03  0.48536183252E+03  0.45373418620E+03 0.  0.
         25    1    3    3    0    0  0.50470137791E+02 -0.88692921692E+00 -0.57428366141E+02  0.14660677607E+03  0.12509000000E+03 0.  0.
         25    1    3    3    0    0 -0.10205085547E+03 -0.16918110032E+02 -0.31397401394E+01  0.16235136469E+03  0.12509000000E+03 0.  0.
         25    1    3    3    0    0  0.51580717682E+02  0.17805039249E+02 -0.11177282544E+03  0.17640369176E+03  0.12509000000E+03 0.  0.
<mgrwt>
<rscale>  2 0.45373419E+03</rscale>
<asrwt>0</asrwt>
<pdfrwt beam="1">  1       21 0.23016243E-01 0.45373419E+03</pdfrwt>
<pdfrwt beam="2">  1       21 0.48360497E-01 0.45373419E+03</pdfrwt>
<totfact> 0.66982380E+04</totfact>
</mgrwt>
</event>
<event>
 6    0  0.1572624E-007  0.4509473E+03  0.7546771E-02  0.1027440E+00
         21   -1    0    0  502  501  0.00000000000E+00  0.00000000000E+00  0.31298669711E+03  0.31298669711E+03  0.00000000000E+00 0.  1.
         21   -1    0    0  501  502 -0.00000000000E+00 -0.00000000000E+00 -0.16242981386E+03  0.16242981386E+03  0.00000000000E+00 0.  1.
      99926    2    1    2    0    0 -0.35527136788E-14  0.00000000000E+00  0.15055688326E+03  0.47541651097E+03  0.45094731822E+03 0.  0.
         25    1    3    3    0    0  0.52801576704E+02 -0.89049625741E+02  0.85810580710E+02  0.18365403946E+03  0.12509000000E+03 0.  0.
         25    1    3    3    0    0 -0.28973316691E+02  0.34177242315E+02  0.75259372445E+02  0.15270565875E+03  0.12509000000E+03 0.  0.
         25    1    3    3    0    0 -0.23828260013E+02  0.54872383426E+02 -0.10513069897E+02  0.13905681277E+03  0.12509000000E+03 0.  0.
<mgrwt>
<rscale>  2 0.45094732E+03</rscale>
<asrwt>0</asrwt>
<pdfrwt beam="1">  1       21 0.46027455E-01 0.45094732E+03</pdfrwt>
<pdfrwt beam="2">  1       21 0.23886737E-01 0.45094732E+03</pdfrwt>
<totfact> 0.69235612E+04</totfact>
</mgrwt>
</event>
<event>
 6    0  0.1572624E-007  0.4533567E+03  0.7546771E-02  0.1026726E+00
         21   -1    0    0  502  501  0.00000000000E+00  0.00000000000E+00  0.27874789998E+03  0.27874789998E+03  0.00000000000E+00 0. -1.
         21   -1    0    0  501  502 -0.00000000000E+00 -0.00000000000E+00 -0.18433529575E+03  0.18433529575E+03  0.00000000000E+00 0. -1.
      99926    2    1    2    0    0 -0.88817841970E-15  0.00000000000E+00  0.94412604230E+02  0.46308319572E+03  0.45335670980E+03 0.  0.
         25    1    3    3    0    0 -0.67554549201E+02 -0.76214115692E+02  0.39353613147E+02  0.16603741601E+03  0.12509000000E+03 0.  0.
         25    1    3    3    0    0  0.64540605442E+02  0.22955795255E+02  0.72421736555E+02  0.15995272524E+03  0.12509000000E+03 0.  0.
         25    1    3    3    0    0  0.30139437588E+01  0.53258320437E+02 -0.17362745472E+02  0.13709305447E+03  0.12509000000E+03 0.  0.
<mgrwt>
<rscale>  2 0.45335671E+03</rscale>
<asrwt>0</asrwt>
<pdfrwt beam="1">  1       21 0.40992338E-01 0.45335671E+03</pdfrwt>
<pdfrwt beam="2">  1       21 0.27108132E-01 0.45335671E+03</pdfrwt>
<totfact> 0.68847428E+04</totfact>
</mgrwt>
</event>
<event>
 6    0  0.1572624E-007  0.4605692E+03  0.7546771E-02  0.1024616E+00
         21   -1    0    0  502  501  0.00000000000E+00  0.00000000000E+00  0.12993798373E+03  0.12993798373E+03  0.00000000000E+00 0.  1.
         21   -1    0    0  501  502 -0.00000000000E+00 -0.00000000000E+00 -0.40812543034E+03  0.40812543034E+03  0.00000000000E+00 0.  1.
      99926    2    1    2    0    0  0.00000000000E+00 -0.44408920985E-15 -0.27818744661E+03  0.53806341407E+03  0.46056919361E+03 0.  0.
         25    1    3    3    0    0 -0.64291653971E+01  0.34040671185E+01 -0.24197891177E+03  0.27249628196E+03  0.12509000000E+03 0.  0.
         25    1    3    3    0    0 -0.28308325646E+02  0.23802406620E+02 -0.18067389536E+02  0.13168847530E+03  0.12509000000E+03 0.  0.
         25    1    3    3    0    0  0.34737491043E+02 -0.27206473738E+02 -0.18141145310E+02  0.13387865681E+03  0.12509000000E+03 0.  0.
<mgrwt>
<rscale>  2 0.46056919E+03</rscale>
<asrwt>0</asrwt>
<pdfrwt beam="1">  1       21 0.19108527E-01 0.46056919E+03</pdfrwt>
<pdfrwt beam="2">  1       21 0.60018446E-01 0.46056919E+03</pdfrwt>
<totfact> 0.59972907E+04</totfact>
</mgrwt>
</event>
<event>
 6    0  0.1572624E-007  0.4562986E+03  0.7546771E-02  0.1025860E+00
         21   -1    0    0  502  501  0.00000000000E+00  0.00000000000E+00  0.78494957918E+03  0.78494957918E+03  0.00000000000E+00 0. -1.
         21   -1    0    0  501  502 -0.00000000000E+00 -0.00000000000E+00 -0.66312675231E+02  0.66312675231E+02  0.00000000000E+00 0. -1.
      99926    2    1    2    0    0  0.14210854715E-13  0.26645352591E-14  0.71863690395E+03  0.85126225441E+03  0.45629861502E+03 0.  0.
         25    1    3    3    0    0  0.75788886624E+02  0.20656945375E+02  0.32052519697E+03  0.35292290195E+03  0.12509000000E+03 0.  0.
         25    1    3    3    0    0  0.59097098668E+01 -0.16406648087E+02  0.87535356858E+02  0.15366863562E+03  0.12509000000E+03 0.  0.
         25    1    3    3    0    0 -0.81698596491E+02 -0.42502972879E+01  0.31057635013E+03  0.34467071685E+03  0.12509000000E+03 0.  0.
<mgrwt>
<rscale>  2 0.45629862E+03</rscale>
<asrwt>0</asrwt>
<pdfrwt beam="1">  1       21 0.11543376E+00 0.45629862E+03</pdfrwt>
<pdfrwt beam="2">  1       21 0.97518645E-02 0.45629862E+03</pdfrwt>
<totfact> 0.44923580E+04</totfact>
</mgrwt>
</event>
<event>
 6    0  0.1572624E-007  0.4541653E+03  0.7546771E-02  0.1026487E+00
         21   -1    0    0  502  501  0.00000000000E+00  0.00000000000E+00  0.54250933311E+03  0.54250933311E+03  0.00000000000E+00 0.  1.
         21   -1    0    0  501  502 -0.00000000000E+00 -0.00000000000E+00 -0.95051860443E+02  0.95051860443E+02  0.00000000000E+00 0.  1.
      99926    2    1    2    0    0  0.00000000000E+00  0.17763568394E-14  0.44745747267E+03  0.63756119355E+03  0.45416526252E+03 0.  0.
         25    1    3    3    0    0  0.56081489805E+02 -0.41428139036E+01  0.30600764145E+03  0.33533637013E+03  0.12509000000E+03 0.  0.
         25    1    3    3    0    0 -0.57397588739E+02 -0.15436424481E+02  0.92135652253E+02  0.16634077344E+03  0.12509000000E+03 0.  0.
         25    1    3    3    0    0  0.13160989339E+01  0.19579238385E+02  0.49314178964E+02  0.13588404998E+03  0.12509000000E+03 0.  0.
<mgrwt>
<rscale>  2 0.45416526E+03</rscale>
<asrwt>0</asrwt>
<pdfrwt beam="1">  1       21 0.79780783E-01 0.45416526E+03</pdfrwt>
<pdfrwt beam="2">  1       21 0.13978215E-01 0.45416526E+03</pdfrwt>
<totfact> 0.56797084E+04</totfact>
</mgrwt>
</event>
<event>
 6    0  0.1572624E-007  0.4542943E+03  0.7546771E-02  0.1026449E+00
         21   -1    0    0  502  501  0.00000000000E+00  0.00000000000E+00  0.42623718036E+03  0.42623718036E+03  0.00000000000E+00 0.  1.
         21   -1    0    0  501  502 -0.00000000000E+00 -0.00000000000E+00 -0.12104956279E+03  0.12104956279E+03  0.00000000000E+00 0.  1.
      99926    2    1    2    0    0  0.00000000000E+00  0.00000000000E+00  0.30518761758E+03  0.54728674315E+03  0.45429428492E+03 0.  0.
         25    1    3    3    0    0 -0.46732070197E+02 -0.60697783653E+02  0.11631591128E+03  0.18720311600E+03  0.12509000000E+03 0.  0.
         25    1    3    3    0    0  0.93642941728E+02  0.39027140056E+02  0.56260560335E+02  0.17060151507E+03  0.12509000000E+03 0.  0.
         25    1    3    3    0    0 -0.46910871531E+02  0.21670643597E+02  0.13261114596E+03  0.18948211207E+03  0.12509000000E+03 0.  0.
<mgrwt>
<rscale>  2 0.45429428E+03</rscale>
<asrwt>0</asrwt>
<pdfrwt beam="1">  1       21 0.62681938E-01 0.45429428E+03</pdfrwt>
<pdfrwt beam="2">  1       21 0.17801406E-01 0.45429428E+03</pdfrwt>
<totfact> 0.62393837E+04</totfact>
</mgrwt>
</event>
<event>
 6    0  0.1572624E-007  0.4647657E+03  0.7546771E-02  0.1023408E+00
         21   -1    0    0  502  501  0.00000000000E+00  0.00000000000E+00  0.12585961650E+04  0.12585961650E+04  0.00000000000E+00 0. -1.
         21   -1    0    0  501  502 -0.00000000000E+00 -0.00000000000E+00 -0.42906371751E+02  0.42906371751E+02  0.00000000000E+00 0. -1.
      99926    2    1    2    0    0 -0.71054273576E-14  0.71054273576E-14  0.12156897932E+04  0.13015025367E+04  0.46476572567E+03 0.  0.
         25    1    3    3    0    0 -0.49361460876E+02  0.34801675071E+02  0.60293184426E+03  0.61872613273E+03  0.12509000000E+03 0.  0.
         25    1    3    3    0    0  0.62754788335E+01 -0.92530348566E+02  0.28858303698E+03  0.32791603250E+03  0.12509000000E+03 0.  0.
         25    1    3    3    0    0  0.43085982042E+02  0.57728673495E+02  0.32417491200E+03  0.35486037150E+03  0.12509000000E+03 0.  0.
<mgrwt>
<rscale>  2 0.46476573E+03</rscale>
<asrwt>0</asrwt>
<pdfrwt beam="1">  1       21 0.18508765E+00 0.46476573E+03</pdfrwt>
<pdfrwt beam="2">  1       21 0.63097614E-02 0.46476573E+03</pdfrwt>
<totfact> 0.26963580E+04</totfact>
</mgrwt>
</event>
<event>
 6    0  0.1572624E-007  0.4492627E+03  0.7546771E-02  0.1027942E+00
         21   -1    0    0  502  501  0.00000000000E+00  0.00000000000E+00  0.24273336918E+03  0.24273336918E+03  0.00000000000E+00 0.  1.
         21   -1    0    0  501  502 -0.00000000000E+00 -0.00000000000E+00 -0.20787933989E+03  0.20787933989E+03  0.00000000000E+00 0.  1.
      99926    2    1    2    0    0  0.17763568394E-14 -0.14210854715E-13  0.34854029284E+02  0.45061270907E+03  0.44926274074E+03 0.  0.
         25    1    3    3    0    0 -0.98776021321E+01  0.73840029579E+02  0.26205265183E+02  0.14793289362E+03  0.12509000000E+03 0.  0.
         25    1    3    3    0    0  0.75632942274E+02 -0.73742847991E+01  0.23111408005E+01  0.14638159551E+03  0.12509000000E+03 0.  0.
         25    1    3    3    0    0 -0.65755340142E+02 -0.66465744780E+02  0.63376233004E+01  0.15629821994E+03  0.12509000000E+03 0.  0.
<mgrwt>
<rscale>  2 0.44926274E+03</rscale>
<asrwt>0</asrwt>
<pdfrwt beam="1">  1       21 0.35696084E-01 0.44926274E+03</pdfrwt>
<pdfrwt beam="2">  1       21 0.30570491E-01 0.44926274E+03</pdfrwt>
<totfact> 0.72113392E+04</totfact>
</mgrwt>
</event>
<event>
 6    0  0.1572624E-007  0.4181642E+03  0.7546771E-02  0.1037665E+00
         21   -1    0    0  502  501  0.00000000000E+00  0.00000000000E+00  0.58552444128E+03  0.58552444128E+03  0.00000000000E+00 0.  1.
         21   -1    0    0  501  502 -0.00000000000E+00 -0.00000000000E+00 -0.74660122416E+02  0.74660122416E+02  0.00000000000E+00 0.  1.
      99926    2    1    2    0    0  0.71054273576E-14  0.00000000000E+00  0.51086431887E+03  0.66018456370E+03  0.41816420920E+03 0.  0.
         25    1    3    3    0    0  0.25462102167E+02  0.23580160891E+01  0.28381176718E+03  0.31120813964E+03  0.12509000000E+03 0.  0.
         25    1    3    3    0    0  0.25085755912E+02  0.15886083356E+02  0.11860563471E+03  0.17491845951E+03  0.12509000000E+03 0.  0.
         25    1    3    3    0    0 -0.50547858080E+02 -0.18244099445E+02  0.10844691698E+03  0.17405796455E+03  0.12509000000E+03 0.  0.
<mgrwt>
<rscale>  2 0.41816421E+03</rscale>
<asrwt>0</asrwt>
<pdfrwt beam="1">  1       21 0.86106533E-01 0.41816421E+03</pdfrwt>
<pdfrwt beam="2">  1       21 0.10979430E-01 0.41816421E+03</pdfrwt>
<totfact> 0.74498592E+04</totfact>
</mgrwt>
</event>
<event>
 6    0  0.1572624E-007  0.4562408E+03  0.7546771E-02  0.1025877E+00
         21   -1    0    0  502  501  0.00000000000E+00  0.00000000000E+00  0.14143145847E+03  0.14143145847E+03  0.00000000000E+00 0.  1.
         21   -1    0    0  501  502 -0.00000000000E+00 -0.00000000000E+00 -0.36794449999E+03  0.36794449999E+03  0.00000000000E+00 0.  1.
      99926    2    1    2    0    0  0.44408920985E-15  0.00000000000E+00 -0.22651304151E+03  0.50937595846E+03  0.45624084548E+03 0.  0.
         25    1    3    3    0    0 -0.31178174980E+02  0.24942633652E+02 -0.13041829683E+03  0.18506932165E+03  0.12509000000E+03 0.  0.
         25    1    3    3    0    0 -0.21552642955E+01 -0.84671611141E+02  0.22899915839E+01  0.15108500607E+03  0.12509000000E+03 0.  0.
         25    1    3    3    0    0  0.33333439275E+02  0.59728977489E+02 -0.98384736263E+02  0.17322163074E+03  0.12509000000E+03 0.  0.
<mgrwt>
<rscale>  2 0.45624085E+03</rscale>
<asrwt>0</asrwt>
<pdfrwt beam="1">  1       21 0.20798744E-01 0.45624085E+03</pdfrwt>
<pdfrwt beam="2">  1       21 0.54109485E-01 0.45624085E+03</pdfrwt>
<totfact> 0.63984416E+04</totfact>
</mgrwt>
</event>
<event>
 6    0  0.1572624E-007  0.4523666E+03  0.7546771E-02  0.1027019E+00
         21   -1    0    0  502  501  0.00000000000E+00  0.00000000000E+00  0.13890920144E+04  0.13890920144E+04  0.00000000000E+00 0. -1.
         21   -1    0    0  501  502 -0.00000000000E+00 -0.00000000000E+00 -0.36829015053E+02  0.36829015053E+02  0.00000000000E+00 0. -1.
      99926    2    1    2    0    0  0.00000000000E+00  0.44408920985E-14  0.13522629994E+04  0.14259210295E+04  0.45236662437E+03 0.  0.
         25    1    3    3    0    0 -0.45803901549E+02  0.56890326734E+02  0.71557184240E+03  0.73008566375E+03  0.12509000000E+03 0.  0.
         25    1    3    3    0    0 -0.16842986763E+02 -0.39859865373E+01  0.35677794008E+03  0.37846741064E+03  0.12509000000E+03 0.  0.
         25    1    3    3    0    0  0.62646888312E+02 -0.52904340197E+02  0.27991321691E+03  0.31736795511E+03  0.12509000000E+03 0.  0.
<mgrwt>
<rscale>  2 0.45236662E+03</rscale>
<asrwt>0</asrwt>
<pdfrwt beam="1">  1       21 0.20427820E+00 0.45236662E+03</pdfrwt>
<pdfrwt beam="2">  1       21 0.54160325E-02 0.45236662E+03</pdfrwt>
<totfact> 0.26181030E+04</totfact>
</mgrwt>
</event>
<event>
 6    0  0.1572624E-007  0.4604141E+03  0.7546771E-02  0.1024661E+00
         21   -1    0    0  502  501  0.00000000000E+00  0.00000000000E+00  0.17194717010E+02  0.17194717010E+02  0.00000000000E+00 0.  1.
         21   -1    0    0  501  502 -0.00000000000E+00 -0.00000000000E+00 -0.30820678115E+04  0.30820678115E+04  0.00000000000E+00 0.  1.
      99926    2    1    2    0    0  0.00000000000E+00 -0.35527136788E-14 -0.30648730945E+04  0.30992625285E+04  0.46041409111E+03 0.  0.
         25    1    3    3    0    0  0.47632328354E+02 -0.72050796179E+01 -0.45866251790E+03  0.47784889380E+03  0.12509000000E+03 0.  0.
         25    1    3    3    0    0 -0.32101281178E+02  0.30389151258E+02 -0.18196076794E+04  0.18244378882E+04  0.12509000000E+03 0.  0.
         25    1    3    3    0    0 -0.15531047176E+02 -0.23184071640E+02 -0.78660289712E+03  0.79697574647E+03  0.12509000000E+03 0.  0.
<mgrwt>
<rscale>  2 0.46041409E+03</rscale>
<asrwt>0</asrwt>
<pdfrwt beam="1">  1       21 0.25286335E-02 0.46041409E+03</pdfrwt>
<pdfrwt beam="2">  1       21 0.45324551E+00 0.46041409E+03</pdfrwt>
<totfact> 0.26197866E+03</totfact>
</mgrwt>
</event>
<event>
 6    0  0.1572624E-007  0.4496238E+03  0.7546771E-02  0.1027834E+00
         21   -1    0    0  502  501  0.00000000000E+00  0.00000000000E+00  0.11640068781E+03  0.11640068781E+03  0.00000000000E+00 0. -1.
         21   -1    0    0  501  502 -0.00000000000E+00 -0.00000000000E+00 -0.43419331561E+03  0.43419331561E+03  0.00000000000E+00 0. -1.
      99926    2    1    2    0    0 -0.17763568394E-14  0.10658141036E-13 -0.31779262780E+03  0.55059400342E+03  0.44962384536E+03 0.  0.
         25    1    3    3    0    0  0.35416053664E+01 -0.23799996548E+02 -0.17499308778E+03  0.21644646376E+03  0.12509000000E+03 0.  0.
         25    1    3    3    0    0 -0.29942630802E+02 -0.64423694810E+02 -0.45596571088E+02  0.15090900897E+03  0.12509000000E+03 0.  0.
         25    1    3    3    0    0  0.26401025436E+02  0.88223691359E+02 -0.97202968926E+02  0.18323853069E+03  0.12509000000E+03 0.  0.
<mgrwt>
<rscale>  2 0.44962385E+03</rscale>
<asrwt>0</asrwt>
<pdfrwt beam="1">  1       21 0.17117748E-01 0.44962385E+03</pdfrwt>
<pdfrwt beam="2">  1       21 0.63851958E-01 0.44962385E+03</pdfrwt>
<totfact> 0.64528479E+04</totfact>
</mgrwt>
</event>
<event>
 6    0  0.1572624E-007  0.4569454E+03  0.7546771E-02  0.1025671E+00
         21   -1    0    0  502  501  0.00000000000E+00  0.00000000000E+00  0.13203236598E+04  0.13203236598E+04  0.00000000000E+00 0. -1.
         21   -1    0    0  501  502 -0.00000000000E+00 -0.00000000000E+00 -0.39535596077E+02  0.39535596077E+02  0.00000000000E+00 0. -1.
      99926    2    1    2    0    0  0.00000000000E+00 -0.17763568394E-14  0.12807880638E+04  0.13598592559E+04  0.45694543616E+03 0.  0.
         25    1    3    3    0    0 -0.17214406580E+02  0.63130477704E+02  0.30134427765E+03  0.33277270739E+03  0.12509000000E+03 0.  0.
         25    1    3    3    0    0  0.18908458565E+02  0.12006984700E+02  0.22275749950E+03  0.25645683686E+03  0.12509000000E+03 0.  0.
         25    1    3    3    0    0 -0.16940519851E+01 -0.75137462404E+02  0.75668628662E+03  0.77062971168E+03  0.12509000000E+03 0.  0.
<mgrwt>
<rscale>  2 0.45694544E+03</rscale>
<asrwt>0</asrwt>
<pdfrwt beam="1">  1       21 0.19416522E+00 0.45694544E+03</pdfrwt>
<pdfrwt beam="2">  1       21 0.58140591E-02 0.45694544E+03</pdfrwt>
<totfact> 0.27010846E+04</totfact>
</mgrwt>
</event>
<event>
 6    0  0.1572624E-007  0.4486481E+03  0.7546771E-02  0.1028126E+00
         21   -1    0    0  502  501  0.00000000000E+00  0.00000000000E+00  0.26950299922E+03  0.26950299922E+03  0.00000000000E+00 0. -1.
         21   -1    0    0  501  502 -0.00000000000E+00 -0.00000000000E+00 -0.18671881292E+03  0.18671881292E+03  0.00000000000E+00 0. -1.
      99926    2    1    2    0    0  0.71054273576E-14  0.00000000000E+00  0.82784186298E+02  0.45622181214E+03  0.44864810305E+03 0.  0.
         25    1    3    3    0    0 -0.52032567161E+01 -0.25987110551E+02 -0.38424906651E+02  0.13351548729E+03  0.12509000000E+03 0.  0.
         25    1    3    3    0    0  0.68338910688E+02  0.56065796956E+02  0.41383298272E+02  0.15866211198E+03  0.12509000000E+03 0.  0.
         25    1    3    3    0    0 -0.63135653972E+02 -0.30078686405E+02  0.79825794677E+02  0.16404421286E+03  0.12509000000E+03 0.  0.
<mgrwt>
<rscale>  2 0.44864810E+03</rscale>
<asrwt>0</asrwt>
<pdfrwt beam="1">  1       21 0.39632794E-01 0.44864810E+03</pdfrwt>
<pdfrwt beam="2">  1       21 0.27458649E-01 0.44864810E+03</pdfrwt>
<totfact> 0.72035981E+04</totfact>
</mgrwt>
</event>
<event>
 6    0  0.1572624E-007  0.4578657E+03  0.7546771E-02  0.1025402E+00
         21   -1    0    0  502  501  0.00000000000E+00  0.00000000000E+00  0.22620412347E+03  0.22620412347E+03  0.00000000000E+00 0.  1.
         21   -1    0    0  501  502 -0.00000000000E+00 -0.00000000000E+00 -0.23169449911E+03  0.23169449911E+03  0.00000000000E+00 0.  1.
      99926    2    1    2    0    0  0.00000000000E+00  0.00000000000E+00 -0.54903756398E+01  0.45789862258E+03  0.45786570557E+03 0.  0.
         25    1    3    3    0    0 -0.27160855806E+02  0.98671745755E+02 -0.36153516229E+02  0.16561524789E+03  0.12509000000E+03 0.  0.
         25    1    3    3    0    0 -0.23356156962E+01 -0.21091708675E+01  0.39697312405E+02  0.13127562003E+03  0.12509000000E+03 0.  0.
         25    1    3    3    0    0  0.29496471503E+02 -0.96562574888E+02 -0.90341718164E+01  0.16100775466E+03  0.12509000000E+03 0.  0.
<mgrwt>
<rscale>  2 0.45786571E+03</rscale>
<asrwt>0</asrwt>
<pdfrwt beam="1">  1       21 0.33265312E-01 0.45786571E+03</pdfrwt>
<pdfrwt beam="2">  1       21 0.34072720E-01 0.45786571E+03</pdfrwt>
<totfact> 0.66793588E+04</totfact>
</mgrwt>
</event>
<event>
 6    0  0.1572624E-007  0.4547962E+03  0.7546771E-02  0.1026301E+00
         21   -1    0    0  502  501  0.00000000000E+00  0.00000000000E+00  0.78762073004E+03  0.78762073004E+03  0.00000000000E+00 0. -1.
         21   -1    0    0  501  502 -0.00000000000E+00 -0.00000000000E+00 -0.65653286256E+02  0.65653286256E+02  0.00000000000E+00 0. -1.
      99926    2    1    2    0    0  0.00000000000E+00 -0.17763568394E-14  0.72196744378E+03  0.85327401630E+03  0.45479617083E+03 0.  0.
         25    1    3    3    0    0  0.11911467865E+02  0.63514860824E+02  0.11580928994E+03  0.18230556862E+03  0.12509000000E+03 0.  0.
         25    1    3    3    0    0 -0.61213008251E+02 -0.17850083203E+01  0.31322540855E+03  0.34279422880E+03  0.12509000000E+03 0.  0.
         25    1    3    3    0    0  0.49301540387E+02 -0.61729852504E+02  0.29293274529E+03  0.32817421888E+03  0.12509000000E+03 0.  0.
<mgrwt>
<rscale>  2 0.45479617E+03</rscale>
<asrwt>0</asrwt>
<pdfrwt beam="1">  1       21 0.11582657E+00 0.45479617E+03</pdfrwt>
<pdfrwt beam="2">  1       21 0.96548955E-02 0.45479617E+03</pdfrwt>
<totfact> 0.45365761E+04</totfact>
</mgrwt>
</event>
<event>
 6    0  0.1572624E-007  0.4442733E+03  0.7546771E-02  0.1029444E+00
         21   -1    0    0  502  501  0.00000000000E+00  0.00000000000E+00  0.11575839712E+03  0.11575839712E+03  0.00000000000E+00 0. -1.
         21   -1    0    0  501  502 -0.00000000000E+00 -0.00000000000E+00 -0.42627304318E+03  0.42627304318E+03  0.00000000000E+00 0. -1.
      99926    2    1    2    0    0  0.00000000000E+00 -0.71054273576E-14 -0.31051464606E+03  0.54203144030E+03  0.44427326822E+03 0.  0.
         25    1    3    3    0    0  0.21466633308E+02 -0.71115284945E+02 -0.13520355656E+03  0.19860944063E+03  0.12509000000E+03 0.  0.
         25    1    3    3    0    0  0.27258021302E+02  0.18459130736E+02 -0.18970723601E+02  0.13073307036E+03  0.12509000000E+03 0.  0.
         25    1    3    3    0    0 -0.48724654610E+02  0.52656154209E+02 -0.15634036589E+03  0.21268892931E+03  0.12509000000E+03 0.  0.
<mgrwt>
<rscale>  2 0.44427327E+03</rscale>
<asrwt>0</asrwt>
<pdfrwt beam="1">  1       21 0.17023294E-01 0.44427327E+03</pdfrwt>
<pdfrwt beam="2">  1       21 0.62687212E-01 0.44427327E+03</pdfrwt>
<totfact> 0.67985961E+04</totfact>
</mgrwt>
</event>
<event>
 6    0  0.1572624E-007  0.4553984E+03  0.7546771E-02  0.1026124E+00
         21   -1    0    0  502  501  0.00000000000E+00  0.00000000000E+00  0.27090415105E+02  0.27090415105E+02  0.00000000000E+00 0. -1.
         21   -1    0    0  501  502 -0.00000000000E+00 -0.00000000000E+00 -0.19138476820E+04  0.19138476820E+04  0.00000000000E+00 0. -1.
      99926    2    1    2    0    0  0.00000000000E+00  0.00000000000E+00 -0.18867572669E+04  0.19409380971E+04  0.45539841086E+03 0.  0.
         25    1    3    3    0    0 -0.27547649044E+02 -0.65879286936E+01 -0.10573331808E+04  0.10650836761E+04  0.12509000000E+03 0.  0.
         25    1    3    3    0    0  0.67568336026E+02 -0.18644458028E+02 -0.50455450503E+03  0.52453393837E+03  0.12509000000E+03 0.  0.
         25    1    3    3    0    0 -0.40020686982E+02  0.25232386721E+02 -0.32486958111E+03  0.35132048269E+03  0.12509000000E+03 0.  0.
<mgrwt>
<rscale>  2 0.45539841E+03</rscale>
<asrwt>0</asrwt>
<pdfrwt beam="1">  1       21 0.39838852E-02 0.45539841E+03</pdfrwt>
<pdfrwt beam="2">  1       21 0.28144815E+00 0.45539841E+03</pdfrwt>
<totfact> 0.14652886E+04</totfact>
</mgrwt>
</event>
<event>
 6    0  0.1572624E-007  0.4548598E+03  0.7546771E-02  0.1026283E+00
         21   -1    0    0  502  501  0.00000000000E+00  0.00000000000E+00  0.15774041999E+03  0.15774041999E+03  0.00000000000E+00 0. -1.
         21   -1    0    0  501  502 -0.00000000000E+00 -0.00000000000E+00 -0.32790808368E+03  0.32790808368E+03  0.00000000000E+00 0. -1.
      99926    2    1    2    0    0  0.00000000000E+00  0.00000000000E+00 -0.17016766369E+03  0.48564850366E+03  0.45485979746E+03 0.  0.
         25    1    3    3    0    0 -0.36855993354E+02  0.58739386376E+02  0.49651940697E+00  0.14302599201E+03  0.12509000000E+03 0.  0.
         25    1    3    3    0    0  0.84415597663E+02 -0.17433466960E+02 -0.57024100502E+02  0.16226267296E+03  0.12509000000E+03 0.  0.
         25    1    3    3    0    0 -0.47559604309E+02 -0.41305919416E+02 -0.11364008260E+03  0.18035983869E+03  0.12509000000E+03 0.  0.
<mgrwt>
<rscale>  2 0.45485980E+03</rscale>
<asrwt>0</asrwt>
<pdfrwt beam="1">  1       21 0.23197121E-01 0.45485980E+03</pdfrwt>
<pdfrwt beam="2">  1       21 0.48221777E-01 0.45485980E+03</pdfrwt>
<totfact> 0.66365009E+04</totfact>
</mgrwt>
</event>
<event>
 6    0  0.1572624E-007  0.4530745E+03  0.7546771E-02  0.1026809E+00
         21   -1    0    0  502  501  0.00000000000E+00  0.00000000000E+00  0.10200887890E+03  0.10200887890E+03  0.00000000000E+00 0. -1.
         21   -1    0    0  501  502 -0.00000000000E+00 -0.00000000000E+00 -0.50308493414E+03  0.50308493414E+03  0.00000000000E+00 0. -1.
      99926    2    1    2    0    0  0.00000000000E+00  0.00000000000E+00 -0.40107605523E+03  0.60509381304E+03  0.45307451980E+03 0.  0.
         25    1    3    3    0    0 -0.38600982405E+02 -0.65083666073E-01 -0.12665695581E+03  0.18215249829E+03  0.12509000000E+03 0.  0.
         25    1    3    3    0    0  0.88708834501E+02  0.70605751439E+02 -0.12850598371E+03  0.21216909625E+03  0.12509000000E+03 0.  0.
         25    1    3    3    0    0 -0.50107852097E+02 -0.70540667773E+02 -0.14591311571E+03  0.21077221849E+03  0.12509000000E+03 0.  0.
<mgrwt>
<rscale>  2 0.45307452E+03</rscale>
<asrwt>0</asrwt>
<pdfrwt beam="1">  1       21 0.15001306E-01 0.45307452E+03</pdfrwt>
<pdfrwt beam="2">  1       21 0.73983076E-01 0.45307452E+03</pdfrwt>
<totfact> 0.59262145E+04</totfact>
</mgrwt>
</event>
<event>
 6    0  0.1572624E-007  0.4564977E+03  0.7546771E-02  0.1025802E+00
         21   -1    0    0  502  501  0.00000000000E+00  0.00000000000E+00  0.14551389211E+03  0.14551389211E+03  0.00000000000E+00 0. -1.
         21   -1    0    0  501  502 -0.00000000000E+00 -0.00000000000E+00 -0.35802444940E+03  0.35802444940E+03  0.00000000000E+00 0. -1.
      99926    2    1    2    0    0 -0.71054273576E-14 -0.10658141036E-13 -0.21251055730E+03  0.50353834151E+03  0.45649767185E+03 0.  0.
         25    1    3    3    0    0  0.59502098790E+02  0.19197878930E+02 -0.12760970929E+02  0.14042581242E+03  0.12509000000E+03 0.  0.
         25    1    3    3    0    0 -0.19747835702E+02 -0.88165050451E+02 -0.89925707590E+02  0.17859785587E+03  0.12509000000E+03 0.  0.
         25    1    3    3    0    0 -0.39754263088E+02  0.68967171521E+02 -0.10982387878E+03  0.18451467322E+03  0.12509000000E+03 0.  0.
<mgrwt>
<rscale>  2 0.45649767E+03</rscale>
<asrwt>0</asrwt>
<pdfrwt beam="1">  1       21 0.21399102E-01 0.45649767E+03</pdfrwt>
<pdfrwt beam="2">  1       21 0.52650655E-01 0.45649767E+03</pdfrwt>
<totfact> 0.64255516E+04</totfact>
</mgrwt>
</event>
<event>
 6    0  0.1572624E-007  0.4454740E+03  0.7546771E-02  0.1029080E+00
         21   -1    0    0  502  501  0.00000000000E+00  0.00000000000E+00  0.58865011796E+03  0.58865011796E+03  0.00000000000E+00 0.  1.
         21   -1    0    0  501  502 -0.00000000000E+00 -0.00000000000E+00 -0.84280566366E+02  0.84280566366E+02  0.00000000000E+00 0.  1.
      99926    2    1    2    0    0 -0.71054273576E-14  0.14210854715E-13  0.50436955160E+03  0.67293068433E+03  0.44547397380E+03 0.  0.
         25    1    3    3    0    0 -0.36837136766E+02  0.73446627523E+02  0.13931746527E+03  0.20447064819E+03  0.12509000000E+03 0.  0.
         25    1    3    3    0    0  0.50592363473E+02  0.11523048321E+02  0.22078497190E+03  0.25900942030E+03  0.12509000000E+03 0.  0.
         25    1    3    3    0    0 -0.13755226707E+02 -0.84969675844E+02  0.14426711442E+03  0.20945061585E+03  0.12509000000E+03 0.  0.
<mgrwt>
<rscale>  2 0.44547397E+03</rscale>
<asrwt>0</asrwt>
<pdfrwt beam="1">  1       21 0.86566192E-01 0.44547397E+03</pdfrwt>
<pdfrwt beam="2">  1       21 0.12394201E-01 0.44547397E+03</pdfrwt>
<totfact> 0.58678069E+04</totfact>
</mgrwt>
</event>
<event>
 6    0  0.1572624E-007  0.4543932E+03  0.7546771E-02  0.1026420E+00
         21   -1    0    0  502  501  0.00000000000E+00  0.00000000000E+00  0.95614016057E+02  0.95614016057E+02  0.00000000000E+00 0.  1.
         21   -1    0    0  501  502 -0.00000000000E+00 -0.00000000000E+00 -0.53986114945E+03  0.53986114945E+03  0.00000000000E+00 0.  1.
      99926    2    1    2    0    0 -0.39968028887E-14  0.00000000000E+00 -0.44424713340E+03  0.63547516551E+03  0.45439318926E+03 0.  0.
         25    1    3    3    0    0  0.26400507409E+01  0.35941627932E+02 -0.26042762899E+03  0.29115086902E+03  0.12509000000E+03 0.  0.
         25    1    3    3    0    0 -0.63778056701E+02 -0.23726151413E+02 -0.13515391981E+03  0.19632794227E+03  0.12509000000E+03 0.  0.
         25    1    3    3    0    0  0.61138005960E+02 -0.12215476519E+02 -0.48665584599E+02  0.14799635422E+03  0.12509000000E+03 0.  0.
<mgrwt>
<rscale>  2 0.45439319E+03</rscale>
<asrwt>0</asrwt>
<pdfrwt beam="1">  1       21 0.14060884E-01 0.45439319E+03</pdfrwt>
<pdfrwt beam="2">  1       21 0.79391347E-01 0.45439319E+03</pdfrwt>
<totfact> 0.56817750E+04</totfact>
</mgrwt>
</event>
<event>
 6    0  0.1572624E-007  0.4565306E+03  0.7546771E-02  0.1025792E+00
         21   -1    0    0  502  501  0.00000000000E+00  0.00000000000E+00  0.10440132268E+03  0.10440132268E+03  0.00000000000E+00 0. -1.
         21   -1    0    0  501  502 -0.00000000000E+00 -0.00000000000E+00 -0.49908419673E+03  0.49908419673E+03  0.00000000000E+00 0. -1.
      99926    2    1    2    0    0 -0.37747582837E-14 -0.17763568394E-14 -0.39468287405E+03  0.60348551941E+03  0.45653061351E+03 0.  0.
         25    1    3    3    0    0 -0.15255678813E+01 -0.81882512243E+01 -0.94441328498E+02  0.15695874440E+03  0.12509000000E+03 0.  0.
         25    1    3    3    0    0 -0.81404725881E+02 -0.60216775261E+02 -0.18562089057E+03  0.24567338589E+03  0.12509000000E+03 0.  0.
         25    1    3    3    0    0  0.82930293763E+02  0.68405026485E+02 -0.11462065499E+03  0.20085338912E+03  0.12509000000E+03 0.  0.
<mgrwt>
<rscale>  2 0.45653061E+03</rscale>
<asrwt>0</asrwt>
<pdfrwt beam="1">  1       21 0.15353136E-01 0.45653061E+03</pdfrwt>
<pdfrwt beam="2">  1       21 0.73394735E-01 0.45653061E+03</pdfrwt>
<totfact> 0.57762560E+04</totfact>
</mgrwt>
</event>
<event>
 6    0  0.1572624E-007  0.4613387E+03  0.7546771E-02  0.1024394E+00
         21   -1    0    0  502  501  0.00000000000E+00  0.00000000000E+00  0.20875041432E+03  0.20875041432E+03  0.00000000000E+00 0. -1.
         21   -1    0    0  501  502 -0.00000000000E+00 -0.00000000000E+00 -0.25488983031E+03  0.25488983031E+03  0.00000000000E+00 0. -1.
      99926    2    1    2    0    0 -0.14210854715E-13  0.00000000000E+00 -0.46139415993E+02  0.46364024463E+03  0.46133873752E+03 0.  0.
         25    1    3    3    0    0 -0.78358122500E+02  0.26977209203E+02 -0.16177143723E+02  0.15092042028E+03  0.12509000000E+03 0.  0.
         25    1    3    3    0    0 -0.41134831731E+01  0.28229277785E+01 -0.83909786517E+02  0.15070915711E+03  0.12509000000E+03 0.  0.
         25    1    3    3    0    0  0.82471605673E+02 -0.29800136981E+02  0.53947514247E+02  0.16201066724E+03  0.12509000000E+03 0.  0.
<mgrwt>
<rscale>  2 0.46133874E+03</rscale>
<asrwt>0</asrwt>
<pdfrwt beam="1">  1       21 0.30698590E-01 0.46133874E+03</pdfrwt>
<pdfrwt beam="2">  1       21 0.37483799E-01 0.46133874E+03</pdfrwt>
<totfact> 0.64588549E+04</totfact>
</mgrwt>
</event>
<event>
 6    0  0.1572624E-007  0.4434302E+03  0.7546771E-02  0.1029700E+00
         21   -1    0    0  502  501  0.00000000000E+00  0.00000000000E+00  0.22160172525E+03  0.22160172525E+03  0.00000000000E+00 0.  1.
         21   -1    0    0  501  502 -0.00000000000E+00 -0.00000000000E+00 -0.22182851961E+03  0.22182851961E+03  0.00000000000E+00 0.  1.
      99926    2    1    2    0    0  0.00000000000E+00  0.00000000000E+00 -0.22679436161E+00  0.44343024486E+03  0.44343018686E+03 0.  0.
         25    1    3    3    0    0  0.11736614741E+02 -0.59488713898E+02 -0.47876517511E+02  0.14702491026E+03  0.12509000000E+03 0.  0.
         25    1    3    3    0    0  0.53029969921E+01  0.78110554503E+02  0.75541977476E+02  0.16578141923E+03  0.12509000000E+03 0.  0.
         25    1    3    3    0    0 -0.17039611733E+02 -0.18621840605E+02 -0.27892254327E+02  0.13062391537E+03  0.12509000000E+03 0.  0.
<mgrwt>
<rscale>  2 0.44343019E+03</rscale>
<asrwt>0</asrwt>
<pdfrwt beam="1">  1       21 0.32588489E-01 0.44343019E+03</pdfrwt>
<pdfrwt beam="2">  1       21 0.32621841E-01 0.44343019E+03</pdfrwt>
<totfact> 0.76196713E+04</totfact>
</mgrwt>
</event>
<event>
 6    0  0.1572624E-007  0.4583141E+03  0.7546771E-02  0.1025271E+00
         21   -1    0    0  502  501  0.00000000000E+00  0.00000000000E+00  0.38257533527E+03  0.38257533527E+03  0.00000000000E+00 0. -1.
         21   -1    0    0  501  502 -0.00000000000E+00 -0.00000000000E+00 -0.13726175442E+03  0.13726175442E+03  0.00000000000E+00 0. -1.
      99926    2    1    2    0    0  0.00000000000E+00  0.71054273576E-14  0.24531358085E+03  0.51983708969E+03  0.45831413557E+03 0.  0.
         25    1    3    3    0    0 -0.86648433668E+02 -0.62741409139E+01  0.16823572291E+03  0.22693188948E+03  0.12509000000E+03 0.  0.
         25    1    3    3    0    0  0.12527216543E+02 -0.36693762710E+02  0.36446434028E+02  0.13593827287E+03  0.12509000000E+03 0.  0.
         25    1    3    3    0    0  0.74121217124E+02  0.42967903624E+02  0.40631423913E+02  0.15696692734E+03  0.12509000000E+03 0.  0.
<mgrwt>
<rscale>  2 0.45831414E+03</rscale>
<asrwt>0</asrwt>
<pdfrwt beam="1">  1       21 0.56261078E-01 0.45831414E+03</pdfrwt>
<pdfrwt beam="2">  1       21 0.20185552E-01 0.45831414E+03</pdfrwt>
<totfact> 0.62245424E+04</totfact>
</mgrwt>
</event>
<event>
 6    0  0.1572624E-007  0.4557813E+03  0.7546771E-02  0.1026012E+00
         21   -1    0    0  502  501  0.00000000000E+00  0.00000000000E+00  0.36222840205E+03  0.36222840205E+03  0.00000000000E+00 0. -1.
         21   -1    0    0  501  502 -0.00000000000E+00 -0.00000000000E+00 -0.14337402352E+03  0.14337402352E+03  0.00000000000E+00 0. -1.
      99926    2    1    2    0    0  0.17763568394E-14  0.35527136788E-14  0.21885437852E+03  0.50560242557E+03  0.45578127840E+03 0.  0.
         25    1    3    3    0    0 -0.58109108260E+02 -0.74819102092E+02  0.14706136891E+03  0.21505608763E+03  0.12509000000E+03 0.  0.
         25    1    3    3    0    0 -0.14608488499E+02  0.27449908631E+02  0.40567069082E+02  0.13512993974E+03  0.12509000000E+03 0.  0.
         25    1    3    3    0    0  0.72717596758E+02  0.47369193460E+02  0.31225940528E+02  0.15541639820E+03  0.12509000000E+03 0.  0.
<mgrwt>
<rscale>  2 0.45578128E+03</rscale>
<asrwt>0</asrwt>
<pdfrwt beam="1">  1       21 0.53268883E-01 0.45578128E+03</pdfrwt>
<pdfrwt beam="2">  1       21 0.21084415E-01 0.45578128E+03</pdfrwt>
<totfact> 0.64478069E+04</totfact>
</mgrwt>
</event>
<event>
 6    0  0.1572624E-007  0.4646544E+03  0.7546771E-02  0.1023440E+00
         21   -1    0    0  502  501  0.00000000000E+00  0.00000000000E+00  0.35608435706E+03  0.35608435706E+03  0.00000000000E+00 0. -1.
         21   -1    0    0  501  502 -0.00000000000E+00 -0.00000000000E+00 -0.15158184242E+03  0.15158184242E+03  0.00000000000E+00 0. -1.
      99926    2    1    2    0    0  0.00000000000E+00  0.00000000000E+00  0.20450251464E+03  0.50766619948E+03  0.46465437866E+03 0.  0.
         25    1    3    3    0    0 -0.33864486538E+02  0.77123077794E+02  0.12922689618E+03  0.19859977687E+03  0.12509000000E+03 0.  0.
         25    1    3    3    0    0 -0.57160817839E+01 -0.20254425843E+02  0.10300842319E+03  0.16340489193E+03  0.12509000000E+03 0.  0.
         25    1    3    3    0    0  0.39580568322E+02 -0.56868651950E+02 -0.27732804734E+02  0.14566153069E+03  0.12509000000E+03 0.  0.
<mgrwt>
<rscale>  2 0.46465438E+03</rscale>
<asrwt>0</asrwt>
<pdfrwt beam="1">  1       21 0.52365347E-01 0.46465438E+03</pdfrwt>
<pdfrwt beam="2">  1       21 0.22291447E-01 0.46465438E+03</pdfrwt>
<totfact> 0.60003545E+04</totfact>
</mgrwt>
</event>
<event>
 6    0  0.1572624E-007  0.4619895E+03  0.7546771E-02  0.1024206E+00
         21   -1    0    0  502  501  0.00000000000E+00  0.00000000000E+00  0.28773956522E+03  0.28773956522E+03  0.00000000000E+00 0. -1.
         21   -1    0    0  501  502 -0.00000000000E+00 -0.00000000000E+00 -0.18544049872E+03  0.18544049872E+03  0.00000000000E+00 0. -1.
      99926    2    1    2    0    0  0.00000000000E+00  0.71054273576E-14  0.10229906650E+03  0.47318006393E+03  0.46198947380E+03 0.  0.
         25    1    3    3    0    0 -0.65234441716E+02 -0.60591258000E+02  0.31758845543E+02  0.15678955738E+03  0.12509000000E+03 0.  0.
         25    1    3    3    0    0  0.14965132145E+02 -0.48367574680E+02  0.35604127601E+02  0.13956553823E+03  0.12509000000E+03 0.  0.
         25    1    3    3    0    0  0.50269309571E+02  0.10895883268E+03  0.34936093359E+02  0.17682496832E+03  0.12509000000E+03 0.  0.
<mgrwt>
<rscale>  2 0.46198947E+03</rscale>
<asrwt>0</asrwt>
<pdfrwt beam="1">  1       21 0.42314642E-01 0.46198947E+03</pdfrwt>
<pdfrwt beam="2">  1       21 0.27270661E-01 0.46198947E+03</pdfrwt>
<totfact> 0.63599777E+04</totfact>
</mgrwt>
</event>
<event>
 6    0  0.1572624E-007  0.4549031E+03  0.7546771E-02  0.1026270E+00
         21   -1    0    0  502  501  0.00000000000E+00  0.00000000000E+00  0.14858704021E+03  0.14858704021E+03  0.00000000000E+00 0. -1.
         21   -1    0    0  501  502 -0.00000000000E+00 -0.00000000000E+00 -0.34817446674E+03  0.34817446674E+03  0.00000000000E+00 0. -1.
      99926    2    1    2    0    0  0.00000000000E+00 -0.71054273576E-14 -0.19958742653E+03  0.49676150696E+03  0.45490312591E+03 0.  0.
         25    1    3    3    0    0 -0.12727923580E+02 -0.83937814560E+02 -0.51816522338E+02  0.15981244269E+03  0.12509000000E+03 0.  0.
         25    1    3    3    0    0 -0.42923230152E+02  0.45902667706E+02 -0.13467129143E+03  0.19425067162E+03  0.12509000000E+03 0.  0.
         25    1    3    3    0    0  0.55651153732E+02  0.38035146854E+02 -0.13099612761E+02  0.14269839264E+03  0.12509000000E+03 0.  0.
<mgrwt>
<rscale>  2 0.45490313E+03</rscale>
<asrwt>0</asrwt>
<pdfrwt beam="1">  1       21 0.21851036E-01 0.45490313E+03</pdfrwt>
<pdfrwt beam="2">  1       21 0.51202127E-01 0.45490313E+03</pdfrwt>
<totfact> 0.65549170E+04</totfact>
</mgrwt>
</event>
<event>
 6    0  0.1572624E-007  0.4530370E+03  0.7546771E-02  0.1026820E+00
         21   -1    0    0  502  501  0.00000000000E+00  0.00000000000E+00  0.11449590179E+03  0.11449590179E+03  0.00000000000E+00 0. -1.
         21   -1    0    0  501  502 -0.00000000000E+00 -0.00000000000E+00 -0.44814386264E+03  0.44814386264E+03  0.00000000000E+00 0. -1.
      99926    2    1    2    0    0 -0.14210854715E-13 -0.71054273576E-14 -0.33364796085E+03  0.56263976443E+03  0.45303702138E+03 0.  0.
         25    1    3    3    0    0 -0.89227658356E+02 -0.43559589325E+02 -0.11550790146E+03  0.19710047245E+03  0.12509000000E+03 0.  0.
         25    1    3    3    0    0  0.50231555144E+02  0.80583315099E+02 -0.12179353057E+03  0.19874116834E+03  0.12509000000E+03 0.  0.
         25    1    3    3    0    0  0.38996103212E+02 -0.37023725774E+02 -0.96346528813E+02  0.16679812364E+03  0.12509000000E+03 0.  0.
<mgrwt>
<rscale>  2 0.45303702E+03</rscale>
<asrwt>0</asrwt>
<pdfrwt beam="1">  1       21 0.16837633E-01 0.45303702E+03</pdfrwt>
<pdfrwt beam="2">  1       21 0.65903509E-01 0.45303702E+03</pdfrwt>
<totfact> 0.61995857E+04</totfact>
</mgrwt>
</event>
<event>
 6    0  0.1572624E-007  0.4551061E+03  0.7546771E-02  0.1026210E+00
         21   -1    0    0  502  501  0.00000000000E+00  0.00000000000E+00  0.92639188370E+02  0.92639188370E+02  0.00000000000E+00 0. -1.
         21   -1    0    0  501  502 -0.00000000000E+00 -0.00000000000E+00 -0.55894701515E+03  0.55894701515E+03  0.00000000000E+00 0. -1.
      99926    2    1    2    0    0  0.00000000000E+00  0.00000000000E+00 -0.46630782678E+03  0.65158620352E+03  0.45510613191E+03 0.  0.
         25    1    3    3    0    0 -0.26392561969E+02 -0.31076306876E+02 -0.21024615988E+03  0.24801866869E+03  0.12509000000E+03 0.  0.
         25    1    3    3    0    0 -0.69364458623E+01 -0.60212403174E+02 -0.18117359881E+03  0.22835286024E+03  0.12509000000E+03 0.  0.
         25    1    3    3    0    0  0.33329007831E+02  0.91288710050E+02 -0.74888068091E+02  0.17521467458E+03  0.12509000000E+03 0.  0.
<mgrwt>
<rscale>  2 0.45510613E+03</rscale>
<asrwt>0</asrwt>
<pdfrwt beam="1">  1       21 0.13623411E-01 0.45510613E+03</pdfrwt>
<pdfrwt beam="2">  1       21 0.82198088E-01 0.45510613E+03</pdfrwt>
<totfact> 0.55563670E+04</totfact>
</mgrwt>
</event>
<event>
 6    0  0.1572624E-007  0.4323852E+03  0.7546771E-02  0.1033109E+00
         21   -1    0    0  502  501  0.00000000000E+00  0.00000000000E+00  0.18025604020E+03  0.18025604020E+03  0.00000000000E+00 0.  1.
         21   -1    0    0  501  502 -0.00000000000E+00 -0.00000000000E+00 -0.25929355513E+03  0.25929355513E+03  0.00000000000E+00 0.  1.
      99926    2    1    2    0    0  0.00000000000E+00  0.00000000000E+00 -0.79037514937E+02  0.43954959533E+03  0.43238515005E+03 0.  0.
         25    1    3    3    0    0  0.30763723850E+02  0.34594125312E+02 -0.83810440416E+02  0.15752732536E+03  0.12509000000E+03 0.  0.
         25    1    3    3    0    0 -0.73023037077E+02 -0.38054432069E+02  0.69900164126E+01  0.14992288742E+03  0.12509000000E+03 0.  0.
         25    1    3    3    0    0  0.42259313228E+02  0.34603067571E+01 -0.22170909340E+01  0.13209938255E+03  0.12509000000E+03 0.  0.
<mgrwt>
<rscale>  2 0.43238515E+03</rscale>
<asrwt>0</asrwt>
<pdfrwt beam="1">  1       21 0.26508242E-01 0.43238515E+03</pdfrwt>
<pdfrwt beam="2">  1       21 0.38131405E-01 0.43238515E+03</pdfrwt>
<totfact> 0.83820320E+04</totfact>
</mgrwt>
</event>
<event>
 6    0  0.1572624E-007  0.4438529E+03  0.7546771E-02  0.1029571E+00
         21   -1    0    0  502  501  0.00000000000E+00  0.00000000000E+00  0.25726510675E+04  0.25726510675E+04  0.00000000000E+00 0. -1.
         21   -1    0    0  501  502 -0.00000000000E+00 -0.00000000000E+00 -0.19144204545E+02  0.19144204545E+02  0.00000000000E+00 0. -1.
      99926    2    1    2    0    0  0.00000000000E+00  0.71054273576E-14  0.25535068630E+04  0.25917952721E+04  0.44385294078E+03 0.  0.
         25    1    3    3    0    0 -0.64501898002E+02  0.51442455726E+02  0.59546908109E+03  0.61403400210E+03  0.12509000000E+03 0.  0.
         25    1    3    3    0    0  0.54119893452E+02 -0.43794113233E+02  0.12962803460E+04  0.13041614665E+04  0.12509000000E+03 0.  0.
         25    1    3    3    0    0  0.10382004550E+02 -0.76483424928E+01  0.66175743589E+03  0.67359980346E+03  0.12509000000E+03 0.  0.
<mgrwt>
<rscale>  2 0.44385294E+03</rscale>
<asrwt>0</asrwt>
<pdfrwt beam="1">  1       21 0.37833080E+00 0.44385294E+03</pdfrwt>
<pdfrwt beam="2">  1       21 0.28153260E-02 0.44385294E+03</pdfrwt>
<totfact> 0.68087485E+03</totfact>
</mgrwt>
</event>
<event>
 6    0  0.1572624E-007  0.4498836E+03  0.7546771E-02  0.1027757E+00
         21   -1    0    0  502  501  0.00000000000E+00  0.00000000000E+00  0.19981962912E+03  0.19981962912E+03  0.00000000000E+00 0. -1.
         21   -1    0    0  501  502 -0.00000000000E+00 -0.00000000000E+00 -0.25322243583E+03  0.25322243583E+03  0.00000000000E+00 0. -1.
      99926    2    1    2    0    0 -0.14210854715E-13  0.00000000000E+00 -0.53402806705E+02  0.45304206495E+03  0.44988359923E+03 0.  0.
         25    1    3    3    0    0 -0.32731756654E+02  0.25223958992E+02 -0.80622721737E+02  0.15445111641E+03  0.12509000000E+03 0.  0.
         25    1    3    3    0    0  0.85760998673E+02  0.13641478306E+02 -0.95272000508E+01  0.15257560246E+03  0.12509000000E+03 0.  0.
         25    1    3    3    0    0 -0.53029242020E+02 -0.38865437298E+02  0.36747115083E+02  0.14601534609E+03  0.12509000000E+03 0.  0.
<mgrwt>
<rscale>  2 0.44988360E+03</rscale>
<asrwt>0</asrwt>
<pdfrwt beam="1">  1       21 0.29385240E-01 0.44988360E+03</pdfrwt>
<pdfrwt beam="2">  1       21 0.37238594E-01 0.44988360E+03</pdfrwt>
<totfact> 0.71566433E+04</totfact>
</mgrwt>
</event>
<event>
 6    0  0.1572624E-007  0.4577446E+03  0.7546771E-02  0.1025437E+00
         21   -1    0    0  502  501  0.00000000000E+00  0.00000000000E+00  0.71094629006E+02  0.71094629006E+02  0.00000000000E+00 0. -1.
         21   -1    0    0  501  502 -0.00000000000E+00 -0.00000000000E+00 -0.73679996354E+03  0.73679996354E+03  0.00000000000E+00 0. -1.
      99926    2    1    2    0    0  0.00000000000E+00 -0.35527136788E-14 -0.66570533453E+03  0.80789459254E+03  0.45774455785E+03 0.  0.
         25    1    3    3    0    0 -0.96452089796E+02 -0.19093027066E+02 -0.14479733285E+03  0.21513094851E+03  0.12509000000E+03 0.  0.
         25    1    3    3    0    0  0.67787369013E+02  0.36848996349E+02 -0.21376066564E+03  0.25941107571E+03  0.12509000000E+03 0.  0.
         25    1    3    3    0    0  0.28664720783E+02 -0.17755969284E+02 -0.30714733604E+03  0.33335256831E+03  0.12509000000E+03 0.  0.
<mgrwt>
<rscale>  2 0.45774456E+03</rscale>
<asrwt>0</asrwt>
<pdfrwt beam="1">  1       21 0.10455093E-01 0.45774456E+03</pdfrwt>
<pdfrwt beam="2">  1       21 0.10835294E+00 0.45774456E+03</pdfrwt>
<totfact> 0.46378355E+04</totfact>
</mgrwt>
</event>
<event>
 6    0  0.1572624E-007  0.4845447E+03  0.7546771E-02  0.1017894E+00
         21   -1    0    0  502  501  0.00000000000E+00  0.00000000000E+00  0.20257369124E+02  0.20257369124E+02  0.00000000000E+00 0.  1.
         21   -1    0    0  501  502 -0.00000000000E+00 -0.00000000000E+00 -0.28975076244E+04  0.28975076244E+04  0.00000000000E+00 0.  1.
      99926    2    1    2    0    0  0.71054273576E-14  0.00000000000E+00 -0.28772502553E+04  0.29177649936E+04  0.48454465836E+03 0.  0.
         25    1    3    3    0    0  0.86447648946E+02 -0.11168532094E+01 -0.12575089562E+04  0.12666691463E+04  0.12509000000E+03 0.  0.
         25    1    3    3    0    0 -0.33741899622E+02 -0.80748377943E+02 -0.60051234810E+03  0.61961391580E+03  0.12509000000E+03 0.  0.
         25    1    3    3    0    0 -0.52705749324E+02  0.81865231153E+02 -0.10192289511E+04  0.10314819314E+04  0.12509000000E+03 0.  0.
<mgrwt>
<rscale>  2 0.48454466E+03</rscale>
<asrwt>0</asrwt>
<pdfrwt beam="1">  1       21 0.29790267E-02 0.48454466E+03</pdfrwt>
<pdfrwt beam="2">  1       21 0.42610380E+00 0.48454466E+03</pdfrwt>
<totfact> 0.29847493E+03</totfact>
</mgrwt>
</event>
<event>
 6    0  0.1572624E-007  0.4554058E+03  0.7546771E-02  0.1026122E+00
         21   -1    0    0  502  501  0.00000000000E+00  0.00000000000E+00  0.88211267325E+02  0.88211267325E+02  0.00000000000E+00 0.  1.
         21   -1    0    0  501  502 -0.00000000000E+00 -0.00000000000E+00 -0.58777763346E+03  0.58777763346E+03  0.00000000000E+00 0.  1.
      99926    2    1    2    0    0  0.71054273576E-14  0.17763568394E-14 -0.49956636614E+03  0.67598890079E+03  0.45540579686E+03 0.  0.
         25    1    3    3    0    0  0.48884978653E+02  0.29509401048E+02 -0.10697958267E+03  0.17422022011E+03  0.12509000000E+03 0.  0.
         25    1    3    3    0    0  0.63724841151E+02 -0.10897155603E+02 -0.14798675121E+03  0.20427234275E+03  0.12509000000E+03 0.  0.
         25    1    3    3    0    0 -0.11260981980E+03 -0.18612245445E+02 -0.24460003226E+03  0.29749633792E+03  0.12509000000E+03 0.  0.
<mgrwt>
<rscale>  2 0.45540580E+03</rscale>
<asrwt>0</asrwt>
<pdfrwt beam="1">  1       21 0.12972245E-01 0.45540580E+03</pdfrwt>
<pdfrwt beam="2">  1       21 0.86437887E-01 0.45540580E+03</pdfrwt>
<totfact> 0.54053485E+04</totfact>
</mgrwt>
</event>
<event>
 6    0  0.1572624E-007  0.4742812E+03  0.7546771E-02  0.1020719E+00
         21   -1    0    0  502  501  0.00000000000E+00  0.00000000000E+00  0.69134087481E+03  0.69134087481E+03  0.00000000000E+00 0. -1.
         21   -1    0    0  501  502 -0.00000000000E+00 -0.00000000000E+00 -0.81342887005E+02  0.81342887005E+02  0.00000000000E+00 0. -1.
      99926    2    1    2    0    0  0.00000000000E+00  0.11102230246E-15  0.60999798780E+03  0.77268376181E+03  0.47428119364E+03 0.  0.
         25    1    3    3    0    0  0.57993848072E+02 -0.11980584948E+02  0.59719947234E+02  0.15073420656E+03  0.12509000000E+03 0.  0.
         25    1    3    3    0    0 -0.39859012580E+02  0.11329342463E+02  0.42102341662E+03  0.44116359815E+03  0.12509000000E+03 0.  0.
         25    1    3    3    0    0 -0.18134835492E+02  0.65124248582E+00  0.12925462394E+03  0.18078595710E+03  0.12509000000E+03 0.  0.
<mgrwt>
<rscale>  2 0.47428119E+03</rscale>
<asrwt>0</asrwt>
<pdfrwt beam="1">  1       21 0.10166777E+00 0.47428119E+03</pdfrwt>
<pdfrwt beam="2">  1       21 0.11962190E-01 0.47428119E+03</pdfrwt>
<totfact> 0.42334086E+04</totfact>
</mgrwt>
</event>
<event>
 6    0  0.1572624E-007  0.4550198E+03  0.7546771E-02  0.1026236E+00
         21   -1    0    0  502  501  0.00000000000E+00  0.00000000000E+00  0.11180798016E+04  0.11180798016E+04  0.00000000000E+00 0.  1.
         21   -1    0    0  501  502 -0.00000000000E+00 -0.00000000000E+00 -0.46294332836E+02  0.46294332836E+02  0.00000000000E+00 0.  1.
      99926    2    1    2    0    0  0.00000000000E+00  0.35527136788E-14  0.10717854688E+04  0.11643741344E+04  0.45501981703E+03 0.  0.
         25    1    3    3    0    0 -0.51982442715E+02 -0.75155922444E+02  0.20861048657E+03  0.25983923922E+03  0.12509000000E+03 0.  0.
         25    1    3    3    0    0  0.26906388140E+02  0.22363615768E+02  0.47914585870E+03  0.49643967110E+03  0.12509000000E+03 0.  0.
         25    1    3    3    0    0  0.25076054574E+02  0.52792306676E+02  0.38402912348E+03  0.40809522411E+03  0.12509000000E+03 0.  0.
<mgrwt>
<rscale>  2 0.45501982E+03</rscale>
<asrwt>0</asrwt>
<pdfrwt beam="1">  1       21 0.16442348E+00 0.45501982E+03</pdfrwt>
<pdfrwt beam="2">  1       21 0.68079908E-02 0.45501982E+03</pdfrwt>
<totfact> 0.33300914E+04</totfact>
</mgrwt>
</event>
<event>
 6    0  0.1572624E-007  0.4577228E+03  0.7546771E-02  0.1025444E+00
         21   -1    0    0  502  501  0.00000000000E+00  0.00000000000E+00  0.23268788664E+03  0.23268788664E+03  0.00000000000E+00 0. -1.
         21   -1    0    0  501  502 -0.00000000000E+00 -0.00000000000E+00 -0.22509778993E+03  0.22509778993E+03  0.00000000000E+00 0. -1.
      99926    2    1    2    0    0  0.35527136788E-14  0.00000000000E+00  0.75900967159E+01  0.45778567657E+03  0.45772275026E+03 0.  0.
         25    1    3    3    0    0 -0.45580755455E+02 -0.20084873962E+02 -0.52745847901E+02  0.14460511748E+03  0.12509000000E+03 0.  0.
         25    1    3    3    0    0 -0.24009439938E+02 -0.61547671059E+02  0.40869932673E+02  0.14724954504E+03  0.12509000000E+03 0.  0.
         25    1    3    3    0    0  0.69590195393E+02  0.81632545020E+02  0.19466011944E+02  0.16593101405E+03  0.12509000000E+03 0.  0.
<mgrwt>
<rscale>  2 0.45772275E+03</rscale>
<asrwt>0</asrwt>
<pdfrwt beam="1">  1       21 0.34218807E-01 0.45772275E+03</pdfrwt>
<pdfrwt beam="2">  1       21 0.33102616E-01 0.45772275E+03</pdfrwt>
<totfact> 0.66877454E+04</totfact>
</mgrwt>
</event>
<event>
 6    0  0.1572624E-007  0.4924411E+03  0.7546771E-02  0.1015771E+00
         21   -1    0    0  502  501  0.00000000000E+00  0.00000000000E+00  0.33530534870E+03  0.33530534870E+03  0.00000000000E+00 0. -1.
         21   -1    0    0  501  502 -0.00000000000E+00 -0.00000000000E+00 -0.18080401205E+03  0.18080401205E+03  0.00000000000E+00 0. -1.
      99926    2    1    2    0    0  0.00000000000E+00  0.14210854715E-13  0.15450133665E+03  0.51610936075E+03  0.49244107183E+03 0.  0.
         25    1    3    3    0    0  0.34290752771E+02  0.95042876401E+02 -0.60818868858E+01  0.16091457836E+03  0.12509000000E+03 0.  0.
         25    1    3    3    0    0 -0.61208418411E+02 -0.11545027388E+03  0.58105723635E+02  0.18999741957E+03  0.12509000000E+03 0.  0.
         25    1    3    3    0    0  0.26917665640E+02  0.20407397483E+02  0.10247749990E+03  0.16519736282E+03  0.12509000000E+03 0.  0.
<mgrwt>
<rscale>  2 0.49244107E+03</rscale>
<asrwt>0</asrwt>
<pdfrwt beam="1">  1       21 0.49309610E-01 0.49244107E+03</pdfrwt>
<pdfrwt beam="2">  1       21 0.26588825E-01 0.49244107E+03</pdfrwt>
<totfact> 0.48165878E+04</totfact>
</mgrwt>
</event>
<event>
 6    0  0.1572624E-007  0.4485584E+03  0.7546771E-02  0.1028153E+00
         21   -1    0    0  502  501  0.00000000000E+00  0.00000000000E+00  0.78921010596E+02  0.78921010596E+02  0.00000000000E+00 0. -1.
         21   -1    0    0  501  502 -0.00000000000E+00 -0.00000000000E+00 -0.63736067895E+03  0.63736067895E+03  0.00000000000E+00 0. -1.
      99926    2    1    2    0    0  0.88817841970E-15  0.14210854715E-13 -0.55843966836E+03  0.71628168955E+03  0.44855835249E+03 0.  0.
         25    1    3    3    0    0 -0.64875340605E+01 -0.73822549849E+02 -0.10501013069E+03  0.17935019546E+03  0.12509000000E+03 0.  0.
         25    1    3    3    0    0 -0.19448677718E+02  0.54149240617E+01 -0.30114674664E+03  0.32671768177E+03  0.12509000000E+03 0.  0.
         25    1    3    3    0    0  0.25936211779E+02  0.68407625787E+02 -0.15228279103E+03  0.21021381232E+03  0.12509000000E+03 0.  0.
<mgrwt>
<rscale>  2 0.44855835E+03</rscale>
<asrwt>0</asrwt>
<pdfrwt beam="1">  1       21 0.11606031E-01 0.44855835E+03</pdfrwt>
<pdfrwt beam="2">  1       21 0.93729512E-01 0.44855835E+03</pdfrwt>
<totfact> 0.54749871E+04</totfact>
</mgrwt>
</event>
<event>
 6    0  0.1572624E-007  0.4478700E+03  0.7546771E-02  0.1028359E+00
         21   -1    0    0  502  501  0.00000000000E+00  0.00000000000E+00  0.21864018126E+04  0.21864018126E+04  0.00000000000E+00 0.  1.
         21   -1    0    0  501  502 -0.00000000000E+00 -0.00000000000E+00 -0.22935806342E+02  0.22935806342E+02  0.00000000000E+00 0.  1.
      99926    2    1    2    0    0  0.00000000000E+00  0.00000000000E+00  0.21634660063E+04  0.22093376189E+04  0.44787001936E+03 0.  0.
         25    1    3    3    0    0 -0.10599179702E+00  0.35408201006E+02  0.88614224675E+03  0.89562790349E+03  0.12509000000E+03 0.  0.
         25    1    3    3    0    0  0.79776117098E+02 -0.51619950806E+02  0.70148699344E+03  0.71886045812E+03  0.12509000000E+03 0.  0.
         25    1    3    3    0    0 -0.79670125301E+02  0.16211749801E+02  0.57583676608E+03  0.59484925734E+03  0.12509000000E+03 0.  0.
<mgrwt>
<rscale>  2 0.44787002E+03</rscale>
<asrwt>0</asrwt>
<pdfrwt beam="1">  1       21 0.32152954E+00 0.44787002E+03</pdfrwt>
<pdfrwt beam="2">  1       21 0.33729142E-02 0.44787002E+03</pdfrwt>
<totfact> 0.11190427E+04</totfact>
</mgrwt>
</event>
<event>
 6    0  0.1572624E-007  0.4890003E+03  0.7546771E-02  0.1016691E+00
         21   -1    0    0  502  501  0.00000000000E+00  0.00000000000E+00  0.52959030806E+03  0.52959030806E+03  0.00000000000E+00 0.  1.
         21   -1    0    0  501  502 -0.00000000000E+00 -0.00000000000E+00 -0.11288034228E+03  0.11288034228E+03  0.00000000000E+00 0.  1.
      99926    2    1    2    0    0  0.00000000000E+00  0.00000000000E+00  0.41670996578E+03  0.64247065034E+03  0.48900034864E+03 0.  0.
         25    1    3    3    0    0  0.85650146275E+02  0.20699525250E+02  0.35662840877E+02  0.15711067507E+03  0.12509000000E+03 0.  0.
         25    1    3    3    0    0 -0.77744244307E+02  0.46302747038E+02  0.23817688473E+03  0.28383771495E+03  0.12509000000E+03 0.  0.
         25    1    3    3    0    0 -0.79059019680E+01 -0.67002272288E+02  0.14287024017E+03  0.20152226032E+03  0.12509000000E+03 0.  0.
<mgrwt>
<rscale>  2 0.48900035E+03</rscale>
<asrwt>0</asrwt>
<pdfrwt beam="1">  1       21 0.77880927E-01 0.48900035E+03</pdfrwt>
<pdfrwt beam="2">  1       21 0.16600050E-01 0.48900035E+03</pdfrwt>
<totfact> 0.43294971E+04</totfact>
</mgrwt>
</event>
<event>
 6    0  0.1572624E-007  0.4540032E+03  0.7546771E-02  0.1026535E+00
         21   -1    0    0  502  501  0.00000000000E+00  0.00000000000E+00  0.18844151657E+03  0.18844151657E+03  0.00000000000E+00 0. -1.
         21   -1    0    0  501  502 -0.00000000000E+00 -0.00000000000E+00 -0.27345214091E+03  0.27345214091E+03  0.00000000000E+00 0. -1.
      99926    2    1    2    0    0  0.71054273576E-14  0.00000000000E+00 -0.85010624349E+02  0.46189365748E+03  0.45400324290E+03 0.  0.
         25    1    3    3    0    0  0.34757323876E+02 -0.17170671666E+02 -0.57345362679E+02  0.14296468882E+03  0.12509000000E+03 0.  0.
         25    1    3    3    0    0  0.64487855739E+02  0.50970953626E+02  0.14421975094E+02  0.15037361177E+03  0.12509000000E+03 0.  0.
         25    1    3    3    0    0 -0.99245179615E+02 -0.33800281960E+02 -0.42087236764E+02  0.16855535689E+03  0.12509000000E+03 0.  0.
<mgrwt>
<rscale>  2 0.45400324E+03</rscale>
<asrwt>0</asrwt>
<pdfrwt beam="1">  1       21 0.27711988E-01 0.45400324E+03</pdfrwt>
<pdfrwt beam="2">  1       21 0.40213550E-01 0.45400324E+03</pdfrwt>
<totfact> 0.68583180E+04</totfact>
</mgrwt>
</event>
<event>
 6    0  0.1572624E-007  0.4543882E+03  0.7546771E-02  0.1026421E+00
         21   -1    0    0  502  501  0.00000000000E+00  0.00000000000E+00  0.20309524062E+03  0.20309524062E+03  0.00000000000E+00 0.  1.
         21   -1    0    0  501  502 -0.00000000000E+00 -0.00000000000E+00 -0.25415242950E+03  0.25415242950E+03  0.00000000000E+00 0.  1.
      99926    2    1    2    0    0  0.14210854715E-13 -0.71054273576E-14 -0.51057188877E+02  0.45724767012E+03  0.45438815488E+03 0.  0.
         25    1    3    3    0    0  0.65770127389E+02 -0.44492705039E+02  0.22799058482E+01  0.14818237591E+03  0.12509000000E+03 0.  0.
         25    1    3    3    0    0 -0.81427533062E+02  0.48731865773E+02  0.27283164055E+02  0.15936472955E+03  0.12509000000E+03 0.  0.
         25    1    3    3    0    0  0.15657405673E+02 -0.42391607338E+01 -0.80620258780E+02  0.14970056467E+03  0.12509000000E+03 0.  0.
<mgrwt>
<rscale>  2 0.45438815E+03</rscale>
<asrwt>0</asrwt>
<pdfrwt beam="1">  1       21 0.29866947E-01 0.45438815E+03</pdfrwt>
<pdfrwt beam="2">  1       21 0.37375357E-01 0.45438815E+03</pdfrwt>
<totfact> 0.68716207E+04</totfact>
</mgrwt>
</event>
<event>
 6    0  0.1572624E-007  0.4496908E+03  0.7546771E-02  0.1027814E+00
         21   -1    0    0  502  501  0.00000000000E+00  0.00000000000E+00  0.70046595700E+02  0.70046595700E+02  0.00000000000E+00 0.  1.
         21   -1    0    0  501  502 -0.00000000000E+00 -0.00000000000E+00 -0.72174040457E+03  0.72174040457E+03  0.00000000000E+00 0.  1.
      99926    2    1    2    0    0 -0.35527136788E-14  0.44408920985E-15 -0.65169380887E+03  0.79178700027E+03  0.44969081965E+03 0.  0.
         25    1    3    3    0    0  0.19060419208E+02  0.19425689473E+01 -0.60909802777E+02  0.14044424278E+03  0.12509000000E+03 0.  0.
         25    1    3    3    0    0  0.39823459418E+02  0.53157631957E+01 -0.34622004585E+03  0.37031067161E+03  0.12509000000E+03 0.  0.
         25    1    3    3    0    0 -0.58883878626E+02 -0.72583321431E+01 -0.24456396024E+03  0.28103208588E+03  0.12509000000E+03 0.  0.
<mgrwt>
<rscale>  2 0.44969082E+03</rscale>
<asrwt>0</asrwt>
<pdfrwt beam="1">  1       21 0.10300969E-01 0.44969082E+03</pdfrwt>
<pdfrwt beam="2">  1       21 0.10613830E+00 0.44969082E+03</pdfrwt>
<totfact> 0.50224962E+04</totfact>
</mgrwt>
</event>
<event>
 6    0  0.1572624E-007  0.4565383E+03  0.7546771E-02  0.1025790E+00
         21   -1    0    0  502  501  0.00000000000E+00  0.00000000000E+00  0.10708589719E+04  0.10708589719E+04  0.00000000000E+00 0. -1.
         21   -1    0    0  501  502 -0.00000000000E+00 -0.00000000000E+00 -0.48658883724E+02  0.48658883724E+02  0.00000000000E+00 0. -1.
      99926    2    1    2    0    0 -0.12212453271E-14  0.00000000000E+00  0.10222000882E+04  0.11195178556E+04  0.45653828841E+03 0.  0.
         25    1    3    3    0    0  0.10068630603E+03 -0.12756488073E+02  0.45475956612E+03  0.48244609158E+03  0.12509000000E+03 0.  0.
         25    1    3    3    0    0 -0.10168366976E+03 -0.12632923829E+02  0.30359394958E+03  0.34397086182E+03  0.12509000000E+03 0.  0.
         25    1    3    3    0    0  0.99736372934E+00  0.25389411902E+02  0.26384657245E+03  0.29310090219E+03  0.12509000000E+03 0.  0.
<mgrwt>
<rscale>  2 0.45653829E+03</rscale>
<asrwt>0</asrwt>
<pdfrwt beam="1">  1       21 0.15747925E+00 0.45653829E+03</pdfrwt>
<pdfrwt beam="2">  1       21 0.71557189E-02 0.45653829E+03</pdfrwt>
<totfact> 0.34402100E+04</totfact>
</mgrwt>
</event>
<event>
 6    0  0.1572624E-007  0.4449170E+03  0.7546771E-02  0.1029249E+00
         21   -1    0    0  502  501  0.00000000000E+00  0.00000000000E+00  0.13235285408E+03  0.13235285408E+03  0.00000000000E+00 0. -1.
         21   -1    0    0  501  502 -0.00000000000E+00 -0.00000000000E+00 -0.37390787234E+03  0.37390787234E+03  0.00000000000E+00 0. -1.
      99926    2    1    2    0    0 -0.57731597281E-14  0.00000000000E+00 -0.24155501826E+03  0.50626072641E+03  0.44491695434E+03 0.  0.
         25    1    3    3    0    0 -0.58585916819E+02 -0.51399969341E+02 -0.42924741388E+02  0.15350670351E+03  0.12509000000E+03 0.  0.
         25    1    3    3    0    0  0.62511927800E+02 -0.24509368554E+02 -0.12377193184E+03  0.18834927522E+03  0.12509000000E+03 0.  0.
         25    1    3    3    0    0 -0.39260109809E+01  0.75909337896E+02 -0.74858345027E+02  0.16440474769E+03  0.12509000000E+03 0.  0.
<mgrwt>
<rscale>  2 0.44491695E+03</rscale>
<asrwt>0</asrwt>
<pdfrwt beam="1">  1       21 0.19463655E-01 0.44491695E+03</pdfrwt>
<pdfrwt beam="2">  1       21 0.54986452E-01 0.44491695E+03</pdfrwt>
<totfact> 0.70291358E+04</totfact>
</mgrwt>
</event>
<event>
 6    0  0.1572624E-007  0.4623015E+03  0.7546771E-02  0.1024116E+00
         21   -1    0    0  502  501  0.00000000000E+00  0.00000000000E+00  0.19596846438E+04  0.19596846438E+04  0.00000000000E+00 0. -1.
         21   -1    0    0  501  502 -0.00000000000E+00 -0.00000000000E+00 -0.27264937276E+02  0.27264937276E+02  0.00000000000E+00 0. -1.
      99926    2    1    2    0    0  0.00000000000E+00  0.10658141036E-13  0.19324197065E+04  0.19869495811E+04  0.46230154183E+03 0.  0.
         25    1    3    3    0    0 -0.42054941519E+02  0.10403995551E+02  0.46241471878E+03  0.48099037566E+03  0.12509000000E+03 0.  0.
         25    1    3    3    0    0 -0.46834679648E+02  0.68844702423E+02  0.80415317779E+03  0.81807268731E+03  0.12509000000E+03 0.  0.
         25    1    3    3    0    0  0.88889621167E+02 -0.79248697974E+02  0.66585180997E+03  0.68788651812E+03  0.12509000000E+03 0.  0.
<mgrwt>
<rscale>  2 0.46230154E+03</rscale>
<asrwt>0</asrwt>
<pdfrwt beam="1">  1       21 0.28818882E+00 0.46230154E+03</pdfrwt>
<pdfrwt beam="2">  1       21 0.40095509E-02 0.46230154E+03</pdfrwt>
<totfact> 0.13162120E+04</totfact>
</mgrwt>
</event>
<event>
 6    0  0.1572624E-007  0.4476658E+03  0.7546771E-02  0.1028420E+00
         21   -1    0    0  502  501  0.00000000000E+00  0.00000000000E+00  0.18636501879E+03  0.18636501879E+03  0.00000000000E+00 0.  1.
         21   -1    0    0  501  502 -0.00000000000E+00 -0.00000000000E+00 -0.26883351679E+03  0.26883351679E+03  0.00000000000E+00 0.  1.
      99926    2    1    2    0    0 -0.71054273576E-14  0.00000000000E+00 -0.82468498003E+02  0.45519853559E+03  0.44766578341E+03 0.  0.
         25    1    3    3    0    0  0.60723810317E+02  0.31000860869E+02 -0.39340325915E+02  0.14779581813E+03  0.12509000000E+03 0.  0.
         25    1    3    3    0    0  0.26926842417E+02 -0.69992066471E+02 -0.90958570592E+01  0.14613071863E+03  0.12509000000E+03 0.  0.
         25    1    3    3    0    0 -0.87650652734E+02  0.38991205603E+02 -0.34032315029E+02  0.16127199883E+03  0.12509000000E+03 0.  0.
<mgrwt>
<rscale>  2 0.44766578E+03</rscale>
<asrwt>0</asrwt>
<pdfrwt beam="1">  1       21 0.27406621E-01 0.44766578E+03</pdfrwt>
<pdfrwt beam="2">  1       21 0.39534341E-01 0.44766578E+03</pdfrwt>
<totfact> 0.72690451E+04</totfact>
</mgrwt>
</event>
<event>
 6    0  0.1572624E-007  0.4565937E+03  0.7546771E-02  0.1025774E+00
         21   -1    0    0  502  501  0.00000000000E+00  0.00000000000E+00  0.72696353908E+02  0.72696353908E+02  0.00000000000E+00 0. -1.
         21   -1    0    0  501  502 -0.00000000000E+00 -0.00000000000E+00 -0.71694714697E+03  0.71694714697E+03  0.00000000000E+00 0. -1.
      99926    2    1    2    0    0  0.88817841970E-14  0.00000000000E+00 -0.64425079306E+03  0.78964350087E+03  0.45659366412E+03 0.  0.
         25    1    3    3    0    0 -0.96279420852E+01 -0.57162476938E+02 -0.12667856282E+03  0.18723037258E+03  0.12509000000E+03 0.  0.
         25    1    3    3    0    0  0.86465329552E+02  0.91006131742E+01 -0.28613775477E+03  0.32416260916E+03  0.12509000000E+03 0.  0.
         25    1    3    3    0    0 -0.76837387467E+02  0.48061863764E+02 -0.23143447547E+03  0.27825051913E+03  0.12509000000E+03 0.  0.
<mgrwt>
<rscale>  2 0.45659366E+03</rscale>
<asrwt>0</asrwt>
<pdfrwt beam="1">  1       21 0.10690640E-01 0.45659366E+03</pdfrwt>
<pdfrwt beam="2">  1       21 0.10543340E+00 0.45659366E+03</pdfrwt>
<totfact> 0.47670782E+04</totfact>
</mgrwt>
</event>
<event>
 6    0  0.1572624E-007  0.4553820E+03  0.7546771E-02  0.1026129E+00
         21   -1    0    0  502  501  0.00000000000E+00  0.00000000000E+00  0.29174109020E+03  0.29174109020E+03  0.00000000000E+00 0.  1.
         21   -1    0    0  501  502 -0.00000000000E+00 -0.00000000000E+00 -0.17770274975E+03  0.17770274975E+03  0.00000000000E+00 0.  1.
      99926    2    1    2    0    0  0.14210854715E-13 -0.88817841970E-15  0.11403834044E+03  0.46944383995E+03  0.45538201082E+03 0.  0.
         25    1    3    3    0    0 -0.68677167618E+02  0.42996312710E+02  0.51679423082E+02  0.15774507006E+03  0.12509000000E+03 0.  0.
         25    1    3    3    0    0 -0.24976615704E+02 -0.50884315479E+02 -0.13161710127E+02  0.13796297912E+03  0.12509000000E+03 0.  0.
         25    1    3    3    0    0  0.93653783322E+02  0.78880027686E+01  0.75520627490E+02  0.17373579077E+03  0.12509000000E+03 0.  0.
<mgrwt>
<rscale>  2 0.45538201E+03</rscale>
<asrwt>0</asrwt>
<pdfrwt beam="1">  1       21 0.42903101E-01 0.45538201E+03</pdfrwt>
<pdfrwt beam="2">  1       21 0.26132757E-01 0.45538201E+03</pdfrwt>
<totfact> 0.67273038E+04</totfact>
</mgrwt>
</event>
<event>
 6    0  0.1572624E-007  0.4454694E+03  0.7546771E-02  0.1029082E+00
         21   -1    0    0  502  501  0.00000000000E+00  0.00000000000E+00  0.89587954041E+03  0.89587954041E+03  0.00000000000E+00 0.  1.
         21   -1    0    0  501  502 -0.00000000000E+00 -0.00000000000E+00 -0.55376590913E+02  0.55376590913E+02  0.00000000000E+00 0.  1.
      99926    2    1    2    0    0  0.00000000000E+00  0.35527136788E-14  0.84050294950E+03  0.95125613132E+03  0.44546943696E+03 0.  0.
         25    1    3    3    0    0 -0.84605025585E+01  0.29086127923E+02  0.42601387582E+03  0.44503136231E+03  0.12509000000E+03 0.  0.
         25    1    3    3    0    0  0.24031318208E+02  0.53037858902E+02  0.16737355534E+03  0.21691457733E+03  0.12509000000E+03 0.  0.
         25    1    3    3    0    0 -0.15570815650E+02 -0.82123986825E+02  0.24711551834E+03  0.28931019169E+03  0.12509000000E+03 0.  0.
<mgrwt>
<rscale>  2 0.44546944E+03</rscale>
<asrwt>0</asrwt>
<pdfrwt beam="1">  1       21 0.13174698E+00 0.44546944E+03</pdfrwt>
<pdfrwt beam="2">  1       21 0.81436168E-02 0.44546944E+03</pdfrwt>
<totfact> 0.44300473E+04</totfact>
</mgrwt>
</event>
<event>
 6    0  0.1572624E-007  0.4554366E+03  0.7546771E-02  0.1026113E+00
         21   -1    0    0  502  501  0.00000000000E+00  0.00000000000E+00  0.15730028151E+03  0.15730028151E+03  0.00000000000E+00 0.  1.
         21   -1    0    0  501  502 -0.00000000000E+00 -0.00000000000E+00 -0.32966004278E+03  0.32966004278E+03  0.00000000000E+00 0.  1.
      99926    2    1    2    0    0  0.10658141036E-13  0.00000000000E+00 -0.17235976127E+03  0.48696032430E+03  0.45543657092E+03 0.  0.
         25    1    3    3    0    0 -0.22014701129E+02 -0.24970285618E+02 -0.74611630059E+02  0.14940738158E+03  0.12509000000E+03 0.  0.
         25    1    3    3    0    0 -0.87905076754E+02  0.27961571188E+01 -0.27040211354E+02  0.15528619431E+03  0.12509000000E+03 0.  0.
         25    1    3    3    0    0  0.10991977788E+03  0.22174128499E+02 -0.70707919857E+02  0.18226674841E+03  0.12509000000E+03 0.  0.
<mgrwt>
<rscale>  2 0.45543657E+03</rscale>
<asrwt>0</asrwt>
<pdfrwt beam="1">  1       21 0.23132395E-01 0.45543657E+03</pdfrwt>
<pdfrwt beam="2">  1       21 0.48479417E-01 0.45543657E+03</pdfrwt>
<totfact> 0.65967903E+04</totfact>
</mgrwt>
</event>
<event>
 6    0  0.1572624E-007  0.4523317E+03  0.7546771E-02  0.1027029E+00
         21   -1    0    0  502  501  0.00000000000E+00  0.00000000000E+00  0.61561882081E+02  0.61561882081E+02  0.00000000000E+00 0.  1.
         21   -1    0    0  501  502 -0.00000000000E+00 -0.00000000000E+00 -0.83088751549E+03  0.83088751549E+03  0.00000000000E+00 0.  1.
      99926    2    1    2    0    0  0.88817841970E-15  0.00000000000E+00 -0.76932563341E+03  0.89244939757E+03  0.45233173336E+03 0.  0.
         25    1    3    3    0    0  0.76860377215E+01 -0.11688964742E+03 -0.35181671576E+03  0.39133716210E+03  0.12509000000E+03 0.  0.
         25    1    3    3    0    0 -0.12044586887E+02  0.50407654283E+02 -0.20381349865E+03  0.24469052703E+03  0.12509000000E+03 0.  0.
         25    1    3    3    0    0  0.43585491653E+01  0.66481993140E+02 -0.21369541900E+03  0.25642170845E+03  0.12509000000E+03 0.  0.
<mgrwt>
<rscale>  2 0.45233173E+03</rscale>
<asrwt>0</asrwt>
<pdfrwt beam="1">  1       21 0.90532189E-02 0.45233173E+03</pdfrwt>
<pdfrwt beam="2">  1       21 0.12218933E+00 0.45233173E+03</pdfrwt>
<totfact> 0.44483923E+04</totfact>
</mgrwt>
</event>
<event>
 6    0  0.1572624E-007  0.4642148E+03  0.7546771E-02  0.1023566E+00
         21   -1    0    0  502  501  0.00000000000E+00  0.00000000000E+00  0.10894550034E+04  0.10894550034E+04  0.00000000000E+00 0. -1.
         21   -1    0    0  501  502 -0.00000000000E+00 -0.00000000000E+00 -0.49450265621E+02  0.49450265621E+02  0.00000000000E+00 0. -1.
      99926    2    1    2    0    0  0.00000000000E+00  0.00000000000E+00  0.10400047378E+04  0.11389052690E+04  0.46421477486E+03 0.  0.
         25    1    3    3    0    0 -0.82372897944E+02  0.70432915764E+02  0.36699722241E+03  0.40259229910E+03  0.12509000000E+03 0.  0.
         25    1    3    3    0    0  0.18003694071E+02 -0.74065079708E+01  0.43246928276E+03  0.45061755180E+03  0.12509000000E+03 0.  0.
         25    1    3    3    0    0  0.64369203873E+02 -0.63026407793E+02  0.24053823260E+03  0.28569541811E+03  0.12509000000E+03 0.  0.
<mgrwt>
<rscale>  2 0.46421477E+03</rscale>
<asrwt>0</asrwt>
<pdfrwt beam="1">  1       21 0.16021396E+00 0.46421477E+03</pdfrwt>
<pdfrwt beam="2">  1       21 0.72720986E-02 0.46421477E+03</pdfrwt>
<totfact> 0.31808176E+04</totfact>
</mgrwt>
</event>
<event>
 6    0  0.1572624E-007  0.4541914E+03  0.7546771E-02  0.1026479E+00
         21   -1    0    0  502  501  0.00000000000E+00  0.00000000000E+00  0.19751792898E+03  0.19751792898E+03  0.00000000000E+00 0. -1.
         21   -1    0    0  501  502 -0.00000000000E+00 -0.00000000000E+00 -0.26110265137E+03  0.26110265137E+03  0.00000000000E+00 0. -1.
      99926    2    1    2    0    0  0.00000000000E+00  0.00000000000E+00 -0.63584722382E+02  0.45862058035E+03  0.45419139116E+03 0.  0.
         25    1    3    3    0    0 -0.26473911753E+02 -0.32841956684E+02  0.62786967214E+02  0.14618198752E+03  0.12509000000E+03 0.  0.
         25    1    3    3    0    0 -0.19458223924E+02  0.58138124554E+02 -0.21428596599E+02  0.14094451695E+03  0.12509000000E+03 0.  0.
         25    1    3    3    0    0  0.45932135677E+02 -0.25296167871E+02 -0.10494309300E+03  0.17149407589E+03  0.12509000000E+03 0.  0.
<mgrwt>
<rscale>  2 0.45419139E+03</rscale>
<asrwt>0</asrwt>
<pdfrwt beam="1">  1       21 0.29046754E-01 0.45419139E+03</pdfrwt>
<pdfrwt beam="2">  1       21 0.38397449E-01 0.45419139E+03</pdfrwt>
<totfact> 0.68723311E+04</totfact>
</mgrwt>
</event>
<event>
 6    0  0.1572624E-007  0.4509262E+03  0.7546771E-02  0.1027446E+00
         21   -1    0    0  502  501  0.00000000000E+00  0.00000000000E+00  0.12730840245E+04  0.12730840245E+04  0.00000000000E+00 0.  1.
         21   -1    0    0  501  502 -0.00000000000E+00 -0.00000000000E+00 -0.39929491899E+02  0.39929491899E+02  0.00000000000E+00 0.  1.
      99926    2    1    2    0    0 -0.71054273576E-14  0.00000000000E+00  0.12331545326E+04  0.13130135164E+04  0.45092615024E+03 0.  0.
         25    1    3    3    0    0  0.19396755942E+02 -0.70504298333E+02  0.28746523656E+03  0.32191747476E+03  0.12509000000E+03 0.  0.
         25    1    3    3    0    0 -0.66545726342E+02  0.49212678422E+02  0.36058387355E+03  0.39053611789E+03  0.12509000000E+03 0.  0.
         25    1    3    3    0    0  0.47148970400E+02  0.21291619912E+02  0.58510542248E+03  0.60055992374E+03  0.12509000000E+03 0.  0.
<mgrwt>
<rscale>  2 0.45092615E+03</rscale>
<asrwt>0</asrwt>
<pdfrwt beam="1">  1       21 0.18721821E+00 0.45092615E+03</pdfrwt>
<pdfrwt beam="2">  1       21 0.58719849E-02 0.45092615E+03</pdfrwt>
<totfact> 0.29667882E+04</totfact>
</mgrwt>
</event>
<event>
 6    0  0.1572624E-007  0.4515434E+03  0.7546771E-02  0.1027263E+00
         21   -1    0    0  502  501  0.00000000000E+00  0.00000000000E+00  0.40761199760E+02  0.40761199760E+02  0.00000000000E+00 0. -1.
         21   -1    0    0  501  502 -0.00000000000E+00 -0.00000000000E+00 -0.12505241258E+04  0.12505241258E+04  0.00000000000E+00 0. -1.
      99926    2    1    2    0    0  0.00000000000E+00  0.71054273576E-14 -0.12097629260E+04  0.12912853255E+04  0.45154341406E+03 0.  0.
         25    1    3    3    0    0 -0.14886170386E+02  0.78438318224E+02 -0.28820863868E+03  0.32416954722E+03  0.12509000000E+03 0.  0.
         25    1    3    3    0    0  0.56537922798E+01 -0.35475861822E+02 -0.67241800249E+03  0.68489705819E+03  0.12509000000E+03 0.  0.
         25    1    3    3    0    0  0.92323781061E+01 -0.42962456402E+02 -0.24913628484E+03  0.28221872013E+03  0.12509000000E+03 0.  0.
<mgrwt>
<rscale>  2 0.45154341E+03</rscale>
<asrwt>0</asrwt>
<pdfrwt beam="1">  1       21 0.59942944E-02 0.45154341E+03</pdfrwt>
<pdfrwt beam="2">  1       21 0.18390060E+00 0.45154341E+03</pdfrwt>
<totfact> 0.30171889E+04</totfact>
</mgrwt>
</event>
<event>
 6    0  0.1572624E-007  0.4587278E+03  0.7546771E-02  0.1025151E+00
         21   -1    0    0  502  501  0.00000000000E+00  0.00000000000E+00  0.16058777092E+03  0.16058777092E+03  0.00000000000E+00 0. -1.
         21   -1    0    0  501  502 -0.00000000000E+00 -0.00000000000E+00 -0.32759529043E+03  0.32759529043E+03  0.00000000000E+00 0. -1.
      99926    2    1    2    0    0  0.00000000000E+00  0.00000000000E+00 -0.16700751951E+03  0.48818306136E+03  0.45872779491E+03 0.  0.
         25    1    3    3    0    0 -0.19336346221E+02 -0.15126170637E+02 -0.10029049174E+03  0.16219860097E+03  0.12509000000E+03 0.  0.
         25    1    3    3    0    0 -0.17223301430E+02 -0.17117016288E+02 -0.12602171217E+03  0.17921666886E+03  0.12509000000E+03 0.  0.
         25    1    3    3    0    0  0.36559647651E+02  0.32243186925E+02  0.59304684398E+02  0.14676779153E+03  0.12509000000E+03 0.  0.
<mgrwt>
<rscale>  2 0.45872779E+03</rscale>
<asrwt>0</asrwt>
<pdfrwt beam="1">  1       21 0.23615849E-01 0.45872779E+03</pdfrwt>
<pdfrwt beam="2">  1       21 0.48175777E-01 0.45872779E+03</pdfrwt>
<totfact> 0.64188429E+04</totfact>
</mgrwt>
</event>
<event>
 6    0  0.1572624E-007  0.4549456E+03  0.7546771E-02  0.1026257E+00
         21   -1    0    0  502  501  0.00000000000E+00  0.00000000000E+00  0.47934789825E+03  0.47934789825E+03  0.00000000000E+00 0.  1.
         21   -1    0    0  501  502 -0.00000000000E+00 -0.00000000000E+00 -0.10794639866E+03  0.10794639866E+03  0.00000000000E+00 0.  1.
      99926    2    1    2    0    0  0.00000000000E+00  0.11102230246E-15  0.37140149959E+03  0.58729429692E+03  0.45494562015E+03 0.  0.
         25    1    3    3    0    0  0.45914796554E+01 -0.34324263632E+01  0.27562521131E+03  0.30273689641E+03  0.12509000000E+03 0.  0.
         25    1    3    3    0    0 -0.14051710772E+02  0.24339289621E+01 -0.13412243897E+01  0.12590743254E+03  0.12509000000E+03 0.  0.
         25    1    3    3    0    0  0.94602311167E+01  0.99849740118E+00  0.97117512672E+02  0.15864996797E+03  0.12509000000E+03 0.  0.
<mgrwt>
<rscale>  2 0.45494562E+03</rscale>
<asrwt>0</asrwt>
<pdfrwt beam="1">  1       21 0.70492337E-01 0.45494562E+03</pdfrwt>
<pdfrwt beam="2">  1       21 0.15874471E-01 0.45494562E+03</pdfrwt>
<totfact> 0.59492798E+04</totfact>
</mgrwt>
</event>
<event>
 6    0  0.1572624E-007  0.4390311E+03  0.7546771E-02  0.1031045E+00
         21   -1    0    0  502  501  0.00000000000E+00  0.00000000000E+00  0.63747387789E+02  0.63747387789E+02  0.00000000000E+00 0. -1.
         21   -1    0    0  501  502 -0.00000000000E+00 -0.00000000000E+00 -0.75590658809E+03  0.75590658809E+03  0.00000000000E+00 0. -1.
      99926    2    1    2    0    0  0.14210854715E-13  0.35527136788E-14 -0.69215920030E+03  0.81965397588E+03  0.43903107135E+03 0.  0.
         25    1    3    3    0    0  0.72779536502E+02  0.20873018405E+02 -0.22937253049E+03  0.27201435564E+03  0.12509000000E+03 0.  0.
         25    1    3    3    0    0 -0.30529729776E+02 -0.73513907964E+02 -0.20121244140E+03  0.24994062042E+03  0.12509000000E+03 0.  0.
         25    1    3    3    0    0 -0.42249806726E+02  0.52640889559E+02 -0.26157422842E+03  0.29769899982E+03  0.12509000000E+03 0.  0.
<mgrwt>
<rscale>  2 0.43903107E+03</rscale>
<asrwt>0</asrwt>
<pdfrwt beam="1">  1       21 0.93746165E-02 0.43903107E+03</pdfrwt>
<pdfrwt beam="2">  1       21 0.11116273E+00 0.43903107E+03</pdfrwt>
<totfact> 0.53186620E+04</totfact>
</mgrwt>
</event>
<event>
 6    0  0.1572624E-007  0.4581179E+03  0.7546771E-02  0.1025328E+00
         21   -1    0    0  502  501  0.00000000000E+00  0.00000000000E+00  0.48540689385E+02  0.48540689385E+02  0.00000000000E+00 0.  1.
         21   -1    0    0  501  502 -0.00000000000E+00 -0.00000000000E+00 -0.10809075719E+04  0.10809075719E+04  0.00000000000E+00 0.  1.
      99926    2    1    2    0    0  0.35527136788E-14  0.00000000000E+00 -0.10323668826E+04  0.11294482613E+04  0.45811788310E+03 0.  0.
         25    1    3    3    0    0 -0.29759756678E+02 -0.38213778407E+01 -0.49795979516E+03  0.51430702090E+03  0.12509000000E+03 0.  0.
         25    1    3    3    0    0  0.42884738495E+02  0.21184151942E+02 -0.11365790345E+03  0.17565163309E+03  0.12509000000E+03 0.  0.
         25    1    3    3    0    0 -0.13124981816E+02 -0.17362774101E+02 -0.42074918394E+03  0.43948960734E+03  0.12509000000E+03 0.  0.
<mgrwt>
<rscale>  2 0.45811788E+03</rscale>
<asrwt>0</asrwt>
<pdfrwt beam="1">  1       21 0.71383360E-02 0.45811788E+03</pdfrwt>
<pdfrwt beam="2">  1       21 0.15895701E+00 0.45811788E+03</pdfrwt>
<totfact> 0.33650650E+04</totfact>
</mgrwt>
</event>
<event>
 6    0  0.1572624E-007  0.4860996E+03  0.7546771E-02  0.1017472E+00
         21   -1    0    0  502  501  0.00000000000E+00  0.00000000000E+00  0.22448929858E+04  0.22448929858E+04  0.00000000000E+00 0.  1.
         21   -1    0    0  501  502 -0.00000000000E+00 -0.00000000000E+00 -0.26314484425E+02  0.26314484425E+02  0.00000000000E+00 0.  1.
      99926    2    1    2    0    0  0.22204460493E-14  0.00000000000E+00  0.22185785013E+04  0.22712074702E+04  0.48609958449E+03 0.  0.
         25    1    3    3    0    0 -0.43935806299E+02  0.11005327733E+03  0.93616413526E+03  0.95188910865E+03  0.12509000000E+03 0.  0.
         25    1    3    3    0    0  0.36706214918E+01 -0.11961482828E+03  0.84225113043E+03  0.85985792746E+03  0.12509000000E+03 0.  0.
         25    1    3    3    0    0  0.40265184807E+02  0.95615509502E+01  0.44016323566E+03  0.45946043408E+03  0.12509000000E+03 0.  0.
<mgrwt>
<rscale>  2 0.48609958E+03</rscale>
<asrwt>0</asrwt>
<pdfrwt beam="1">  1       21 0.33013119E+00 0.48609958E+03</pdfrwt>
<pdfrwt beam="2">  1       21 0.38697787E-02 0.48609958E+03</pdfrwt>
<totfact> 0.77242206E+03</totfact>
</mgrwt>
</event>
<event>
 6    0  0.1572624E-007  0.4421560E+03  0.7546771E-02  0.1030087E+00
         21   -1    0    0  502  501  0.00000000000E+00  0.00000000000E+00  0.13472554954E+03  0.13472554954E+03  0.00000000000E+00 0.  1.
         21   -1    0    0  501  502 -0.00000000000E+00 -0.00000000000E+00 -0.36277817497E+03  0.36277817497E+03  0.00000000000E+00 0.  1.
      99926    2    1    2    0    0  0.00000000000E+00  0.88817841970E-15 -0.22805262542E+03  0.49750372451E+03  0.44215603121E+03 0.  0.
         25    1    3    3    0    0 -0.11707266237E+02  0.83270708157E+01  0.14091368199E+02  0.12669836206E+03  0.12509000000E+03 0.  0.
         25    1    3    3    0    0 -0.45187708204E+02 -0.12695995011E+02 -0.71082299235E+02  0.15133842416E+03  0.12509000000E+03 0.  0.
         25    1    3    3    0    0  0.56894974441E+02  0.43689241954E+01 -0.17106169439E+03  0.21946693829E+03  0.12509000000E+03 0.  0.
<mgrwt>
<rscale>  2 0.44215603E+03</rscale>
<asrwt>0</asrwt>
<pdfrwt beam="1">  1       21 0.19812581E-01 0.44215603E+03</pdfrwt>
<pdfrwt beam="2">  1       21 0.53349732E-01 0.44215603E+03</pdfrwt>
<totfact> 0.72566860E+04</totfact>
</mgrwt>
</event>
<event>
 6    0  0.1572624E-007  0.4730432E+03  0.7546771E-02  0.1021065E+00
         21   -1    0    0  502  501  0.00000000000E+00  0.00000000000E+00  0.76647218685E+02  0.76647218685E+02  0.00000000000E+00 0. -1.
         21   -1    0    0  501  502 -0.00000000000E+00 -0.00000000000E+00 -0.72986952549E+03  0.72986952549E+03  0.00000000000E+00 0. -1.
      99926    2    1    2    0    0 -0.14210854715E-13 -0.71054273576E-14 -0.65322230680E+03  0.80651674417E+03  0.47304320789E+03 0.  0.
         25    1    3    3    0    0  0.84063340145E+02  0.44133974642E+02 -0.27689943756E+03  0.31833199571E+03  0.12509000000E+03 0.  0.
         25    1    3    3    0    0 -0.16789459329E+02  0.55094926819E+02 -0.16696936692E+03  0.21643385709E+03  0.12509000000E+03 0.  0.
         25    1    3    3    0    0 -0.67273880816E+02 -0.99228901460E+02 -0.20935350233E+03  0.27175089137E+03  0.12509000000E+03 0.  0.
<mgrwt>
<rscale>  2 0.47304321E+03</rscale>
<asrwt>0</asrwt>
<pdfrwt beam="1">  1       21 0.11271651E-01 0.47304321E+03</pdfrwt>
<pdfrwt beam="2">  1       21 0.10733375E+00 0.47304321E+03</pdfrwt>
<totfact> 0.41287385E+04</totfact>
</mgrwt>
</event>
<event>
 6    0  0.1572624E-007  0.4540118E+03  0.7546771E-02  0.1026532E+00
         21   -1    0    0  502  501  0.00000000000E+00  0.00000000000E+00  0.33501522194E+03  0.33501522194E+03  0.00000000000E+00 0. -1.
         21   -1    0    0  501  502 -0.00000000000E+00 -0.00000000000E+00 -0.15381888464E+03  0.15381888464E+03  0.00000000000E+00 0. -1.
      99926    2    1    2    0    0 -0.71054273576E-14  0.00000000000E+00  0.18119633730E+03  0.48883410657E+03  0.45401175216E+03 0.  0.
         25    1    3    3    0    0 -0.45902883815E+02 -0.81194014278E+01  0.26300017829E+02  0.13605954013E+03  0.12509000000E+03 0.  0.
         25    1    3    3    0    0  0.81702674199E+02 -0.68427050690E+02  0.98704951592E+02  0.19169706259E+03  0.12509000000E+03 0.  0.
         25    1    3    3    0    0 -0.35799790384E+02  0.76546452118E+02  0.56191367877E+02  0.16107750385E+03  0.12509000000E+03 0.  0.
<mgrwt>
<rscale>  2 0.45401175E+03</rscale>
<asrwt>0</asrwt>
<pdfrwt beam="1">  1       21 0.49266944E-01 0.45401175E+03</pdfrwt>
<pdfrwt beam="2">  1       21 0.22620424E-01 0.45401175E+03</pdfrwt>
<totfact> 0.66583286E+04</totfact>
</mgrwt>
</event>
<event>
 6    0  0.1572624E-007  0.4918973E+03  0.7546771E-02  0.1015916E+00
         21   -1    0    0  502  501  0.00000000000E+00  0.00000000000E+00  0.46061564127E+03  0.46061564127E+03  0.00000000000E+00 0.  1.
         21   -1    0    0  501  502 -0.00000000000E+00 -0.00000000000E+00 -0.13132582225E+03  0.13132582225E+03  0.00000000000E+00 0.  1.
      99926    2    1    2    0    0  0.00000000000E+00  0.71054273576E-14  0.32928981903E+03  0.59194146352E+03  0.49189725687E+03 0.  0.
         25    1    3    3    0    0  0.24803577998E+02  0.76817627239E+02 -0.21925694477E+02  0.15048059514E+03  0.12509000000E+03 0.  0.
         25    1    3    3    0    0  0.93916612584E+01 -0.27342797140E+02  0.17880840538E+03  0.22012674938E+03  0.12509000000E+03 0.  0.
         25    1    3    3    0    0 -0.34195239256E+02 -0.49474830099E+02  0.17240710812E+03  0.22133411900E+03  0.12509000000E+03 0.  0.
<mgrwt>
<rscale>  2 0.49189726E+03</rscale>
<asrwt>0</asrwt>
<pdfrwt beam="1">  1       21 0.67737594E-01 0.49189726E+03</pdfrwt>
<pdfrwt beam="2">  1       21 0.19312621E-01 0.49189726E+03</pdfrwt>
<totfact> 0.44654243E+04</totfact>
</mgrwt>
</event>
<event>
 6    0  0.1572624E-007  0.4507346E+03  0.7546771E-02  0.1027503E+00
         21   -1    0    0  502  501  0.00000000000E+00  0.00000000000E+00  0.49799336585E+03  0.49799336585E+03  0.00000000000E+00 0. -1.
         21   -1    0    0  501  502 -0.00000000000E+00 -0.00000000000E+00 -0.10199013695E+03  0.10199013695E+03  0.00000000000E+00 0. -1.
      99926    2    1    2    0    0  0.00000000000E+00  0.17763568394E-14  0.39600322890E+03  0.59998350280E+03  0.45073456306E+03 0.  0.
         25    1    3    3    0    0 -0.61085509866E+02  0.50644617669E+02  0.16831505411E+03  0.22421815795E+03  0.12509000000E+03 0.  0.
         25    1    3    3    0    0 -0.28740801475E+02 -0.57861820216E+02  0.78332526359E+02  0.16111336597E+03  0.12509000000E+03 0.  0.
         25    1    3    3    0    0  0.89826311341E+02  0.72172025464E+01  0.14935564842E+03  0.21465197888E+03  0.12509000000E+03 0.  0.
<mgrwt>
<rscale>  2 0.45073456E+03</rscale>
<asrwt>0</asrwt>
<pdfrwt beam="1">  1       21 0.73234317E-01 0.45073456E+03</pdfrwt>
<pdfrwt beam="2">  1       21 0.14998550E-01 0.45073456E+03</pdfrwt>
<totfact> 0.60699227E+04</totfact>
</mgrwt>
</event>
<event>
 6    0  0.1572624E-007  0.4797452E+03  0.7546771E-02  0.1019205E+00
         21   -1    0    0  502  501  0.00000000000E+00  0.00000000000E+00  0.14930221743E+03  0.14930221743E+03  0.00000000000E+00 0. -1.
         21   -1    0    0  501  502 -0.00000000000E+00 -0.00000000000E+00 -0.38538516125E+03  0.38538516125E+03  0.00000000000E+00 0. -1.
      99926    2    1    2    0    0  0.00000000000E+00  0.00000000000E+00 -0.23608294382E+03  0.53468737868E+03  0.47974517878E+03 0.  0.
         25    1    3    3    0    0 -0.94829411272E+02 -0.59409258331E+02 -0.21352953085E+02  0.16919082104E+03  0.12509000000E+03 0.  0.
         25    1    3    3    0    0 -0.90309364416E+01  0.10292278424E+02 -0.95777627921E+02  0.15814028873E+03  0.12509000000E+03 0.  0.
         25    1    3    3    0    0  0.10386034771E+03  0.49116979907E+02 -0.11895236281E+03  0.20735626892E+03  0.12509000000E+03 0.  0.
<mgrwt>
<rscale>  2 0.47974518E+03</rscale>
<asrwt>0</asrwt>
<pdfrwt beam="1">  1       21 0.21956208E-01 0.47974518E+03</pdfrwt>
<pdfrwt beam="2">  1       21 0.56674289E-01 0.47974518E+03</pdfrwt>
<totfact> 0.51928738E+04</totfact>
</mgrwt>
</event>
<event>
 6    0  0.1572624E-007  0.4597514E+03  0.7546771E-02  0.1024853E+00
         21   -1    0    0  502  501  0.00000000000E+00  0.00000000000E+00  0.45733145708E+02  0.45733145708E+02  0.00000000000E+00 0. -1.
         21   -1    0    0  501  502 -0.00000000000E+00 -0.00000000000E+00 -0.11554604055E+04  0.11554604055E+04  0.00000000000E+00 0. -1.
      99926    2    1    2    0    0  0.00000000000E+00  0.00000000000E+00 -0.11097272598E+04  0.12011935512E+04  0.45975140711E+03 0.  0.
         25    1    3    3    0    0 -0.43271366993E+02  0.26329253588E+02 -0.58090677276E+03  0.59637725269E+03  0.12509000000E+03 0.  0.
         25    1    3    3    0    0  0.27255876757E+02  0.49469758826E+02 -0.33056825044E+03  0.35792878643E+03  0.12509000000E+03 0.  0.
         25    1    3    3    0    0  0.16015490236E+02 -0.75799012414E+02 -0.19825223662E+03  0.24688751211E+03  0.12509000000E+03 0.  0.
<mgrwt>
<rscale>  2 0.45975141E+03</rscale>
<asrwt>0</asrwt>
<pdfrwt beam="1">  1       21 0.67254627E-02 0.45975141E+03</pdfrwt>
<pdfrwt beam="2">  1       21 0.16992065E+00 0.45975141E+03</pdfrwt>
<totfact> 0.30956385E+04</totfact>
</mgrwt>
</event>
<event>
 6    0  0.1572624E-007  0.4553830E+03  0.7546771E-02  0.1026129E+00
         21   -1    0    0  502  501  0.00000000000E+00  0.00000000000E+00  0.89236992223E+02  0.89236992223E+02  0.00000000000E+00 0. -1.
         21   -1    0    0  501  502 -0.00000000000E+00 -0.00000000000E+00 -0.58096323395E+03  0.58096323395E+03  0.00000000000E+00 0. -1.
      99926    2    1    2    0    0  0.00000000000E+00 -0.71054273576E-14 -0.49172624173E+03  0.67020022618E+03  0.45538296670E+03 0.  0.
         25    1    3    3    0    0  0.55506139959E+02 -0.31572905012E+02 -0.11369033022E+03  0.18069526610E+03  0.12509000000E+03 0.  0.
         25    1    3    3    0    0  0.23000943223E+02  0.86032145081E+02 -0.18427619773E+03  0.23986620963E+03  0.12509000000E+03 0.  0.
         25    1    3    3    0    0 -0.78507083181E+02 -0.54459240068E+02 -0.19375971378E+03  0.24963875044E+03  0.12509000000E+03 0.  0.
<mgrwt>
<rscale>  2 0.45538297E+03</rscale>
<asrwt>0</asrwt>
<pdfrwt beam="1">  1       21 0.13123087E-01 0.45538297E+03</pdfrwt>
<pdfrwt beam="2">  1       21 0.85435768E-01 0.45538297E+03</pdfrwt>
<totfact> 0.54386658E+04</totfact>
</mgrwt>
</event>
<event>
 6    0  0.1572624E-007  0.4513203E+03  0.7546771E-02  0.1027329E+00
         21   -1    0    0  502  501  0.00000000000E+00  0.00000000000E+00  0.11022255785E+03  0.11022255785E+03  0.00000000000E+00 0.  1.
         21   -1    0    0  501  502 -0.00000000000E+00 -0.00000000000E+00 -0.46199715156E+03  0.46199715156E+03  0.00000000000E+00 0.  1.
      99926    2    1    2    0    0  0.71054273576E-14  0.00000000000E+00 -0.35177459372E+03  0.57221970941E+03  0.45132031979E+03 0.  0.
         25    1    3    3    0    0  0.44607624802E+02 -0.73769989989E+02 -0.11087439582E+03  0.18807575964E+03  0.12509000000E+03 0.  0.
         25    1    3    3    0    0 -0.23742834510E+02  0.58464384603E+02 -0.39353411438E+02  0.14552664893E+03  0.12509000000E+03 0.  0.
         25    1    3    3    0    0 -0.20864790292E+02  0.15305605387E+02 -0.20154678646E+03  0.23861730084E+03  0.12509000000E+03 0.  0.
<mgrwt>
<rscale>  2 0.45132032E+03</rscale>
<asrwt>0</asrwt>
<pdfrwt beam="1">  1       21 0.16209200E-01 0.45132032E+03</pdfrwt>
<pdfrwt beam="2">  1       21 0.67940757E-01 0.45132032E+03</pdfrwt>
<totfact> 0.62212130E+04</totfact>
</mgrwt>
</event>
<event>
 6    0  0.1572624E-007  0.4534960E+03  0.7546771E-02  0.1026685E+00
         21   -1    0    0  502  501  0.00000000000E+00  0.00000000000E+00  0.77794701741E+02  0.77794701741E+02  0.00000000000E+00 0. -1.
         21   -1    0    0  501  502 -0.00000000000E+00 -0.00000000000E+00 -0.66090170917E+03  0.66090170917E+03  0.00000000000E+00 0. -1.
      99926    2    1    2    0    0 -0.35527136788E-14  0.88817841970E-14 -0.58310700743E+03  0.73869641091E+03  0.45349598166E+03 0.  0.
         25    1    3    3    0    0 -0.28852105981E+02  0.93850453073E+02 -0.13668039403E+03  0.20968879268E+03  0.12509000000E+03 0.  0.
         25    1    3    3    0    0 -0.18663279012E+02 -0.12882916568E+02 -0.21207315749E+03  0.24725860905E+03  0.12509000000E+03 0.  0.
         25    1    3    3    0    0  0.47515384993E+02 -0.80967536505E+02 -0.23435345591E+03  0.28174900918E+03  0.12509000000E+03 0.  0.
<mgrwt>
<rscale>  2 0.45349598E+03</rscale>
<asrwt>0</asrwt>
<pdfrwt beam="1">  1       21 0.11440398E-01 0.45349598E+03</pdfrwt>
<pdfrwt beam="2">  1       21 0.97191420E-01 0.45349598E+03</pdfrwt>
<totfact> 0.51457599E+04</totfact>
</mgrwt>
</event>
<event>
 6    0  0.1572624E-007  0.4479820E+03  0.7546771E-02  0.1028326E+00
         21   -1    0    0  502  501  0.00000000000E+00  0.00000000000E+00  0.33663193055E+02  0.33663193055E+02  0.00000000000E+00 0.  1.
         21   -1    0    0  501  502 -0.00000000000E+00 -0.00000000000E+00 -0.14904099888E+04  0.14904099888E+04  0.00000000000E+00 0.  1.
      99926    2    1    2    0    0 -0.14210854715E-13  0.71054273576E-14 -0.14567467958E+04  0.15240731819E+04  0.44798196028E+03 0.  0.
         25    1    3    3    0    0 -0.87540761565E+02  0.35167147137E+02 -0.67607059143E+03  0.69398779951E+03  0.12509000000E+03 0.  0.
         25    1    3    3    0    0  0.38667625750E+02  0.22694760473E+02 -0.43231320650E+03  0.45227475504E+03  0.12509000000E+03 0.  0.
         25    1    3    3    0    0  0.48873135815E+02 -0.57861907610E+02 -0.34836299783E+03  0.37781062732E+03  0.12509000000E+03 0.  0.
<mgrwt>
<rscale>  2 0.44798196E+03</rscale>
<asrwt>0</asrwt>
<pdfrwt beam="1">  1       21 0.49504710E-02 0.44798196E+03</pdfrwt>
<pdfrwt beam="2">  1       21 0.21917788E+00 0.44798196E+03</pdfrwt>
<totfact> 0.24503966E+04</totfact>
</mgrwt>
</event>
<event>
 6    0  0.1572624E-007  0.4581953E+03  0.7546771E-02  0.1025306E+00
         21   -1    0    0  502  501  0.00000000000E+00  0.00000000000E+00  0.43975687561E+03  0.43975687561E+03  0.00000000000E+00 0. -1.
         21   -1    0    0  501  502 -0.00000000000E+00 -0.00000000000E+00 -0.11935170703E+03  0.11935170703E+03  0.00000000000E+00 0. -1.
      99926    2    1    2    0    0  0.00000000000E+00  0.88817841970E-15  0.32040516858E+03  0.55910858263E+03  0.45819530238E+03 0.  0.
         25    1    3    3    0    0 -0.10828156502E+03  0.44681002303E+01  0.17984014624E+03  0.24440713480E+03  0.12509000000E+03 0.  0.
         25    1    3    3    0    0  0.22512346230E+02  0.17538529064E+02  0.64625774137E+02  0.14366072712E+03  0.12509000000E+03 0.  0.
         25    1    3    3    0    0  0.85769218786E+02 -0.22006629294E+02  0.75939248199E+02  0.17104072071E+03  0.12509000000E+03 0.  0.
<mgrwt>
<rscale>  2 0.45819530E+03</rscale>
<asrwt>0</asrwt>
<pdfrwt beam="1">  1       21 0.64670128E-01 0.45819530E+03</pdfrwt>
<pdfrwt beam="2">  1       21 0.17551722E-01 0.45819530E+03</pdfrwt>
<totfact> 0.59744165E+04</totfact>
</mgrwt>
</event>
<event>
 6    0  0.1572624E-007  0.4554618E+03  0.7546771E-02  0.1026106E+00
         21   -1    0    0  502  501  0.00000000000E+00  0.00000000000E+00  0.79369738750E+02  0.79369738750E+02  0.00000000000E+00 0. -1.
         21   -1    0    0  501  502 -0.00000000000E+00 -0.00000000000E+00 -0.65341484741E+03  0.65341484741E+03  0.00000000000E+00 0. -1.
      99926    2    1    2    0    0 -0.17763568394E-14  0.00000000000E+00 -0.57404510866E+03  0.73278458616E+03  0.45546181282E+03 0.  0.
         25    1    3    3    0    0 -0.68081538883E+02  0.23998486237E+02 -0.20593665783E+03  0.25153218167E+03  0.12509000000E+03 0.  0.
         25    1    3    3    0    0  0.61360170673E+02 -0.89715088923E+02 -0.16601762619E+03  0.23457030509E+03  0.12509000000E+03 0.  0.
         25    1    3    3    0    0  0.67213682094E+01  0.65716602686E+02 -0.20209082464E+03  0.24668209940E+03  0.12509000000E+03 0.  0.
<mgrwt>
<rscale>  2 0.45546181E+03</rscale>
<asrwt>0</asrwt>
<pdfrwt beam="1">  1       21 0.11672020E-01 0.45546181E+03</pdfrwt>
<pdfrwt beam="2">  1       21 0.96090419E-01 0.45546181E+03</pdfrwt>
<totfact> 0.50973529E+04</totfact>
</mgrwt>
</event>
<event>
 6    0  0.1572624E-007  0.4544588E+03  0.7546771E-02  0.1026401E+00
         21   -1    0    0  502  501  0.00000000000E+00  0.00000000000E+00  0.83015495846E+03  0.83015495846E+03  0.00000000000E+00 0. -1.
         21   -1    0    0  501  502 -0.00000000000E+00 -0.00000000000E+00 -0.62197056096E+02  0.62197056096E+02  0.00000000000E+00 0. -1.
      99926    2    1    2    0    0 -0.35527136788E-14  0.00000000000E+00  0.76795790237E+03  0.89235201456E+03  0.45445877490E+03 0.  0.
         25    1    3    3    0    0 -0.17052019584E+02  0.37761912308E+02  0.26955331258E+03  0.30003871386E+03  0.12509000000E+03 0.  0.
         25    1    3    3    0    0 -0.88049333034E+02 -0.22616486721E+02  0.26880152788E+03  0.31010636886E+03  0.12509000000E+03 0.  0.
         25    1    3    3    0    0  0.10510135262E+03 -0.15145425588E+02  0.22960306191E+03  0.28220693184E+03  0.12509000000E+03 0.  0.
<mgrwt>
<rscale>  2 0.45445877E+03</rscale>
<asrwt>0</asrwt>
<pdfrwt beam="1">  1       21 0.12208160E+00 0.45445877E+03</pdfrwt>
<pdfrwt beam="2">  1       21 0.91466264E-02 0.45445877E+03</pdfrwt>
<totfact> 0.43751133E+04</totfact>
</mgrwt>
</event>
<event>
 6    0  0.1572624E-007  0.4482410E+03  0.7546771E-02  0.1028248E+00
         21   -1    0    0  502  501  0.00000000000E+00  0.00000000000E+00  0.13175594784E+03  0.13175594784E+03  0.00000000000E+00 0. -1.
         21   -1    0    0  501  502 -0.00000000000E+00 -0.00000000000E+00 -0.38123520334E+03  0.38123520334E+03  0.00000000000E+00 0. -1.
      99926    2    1    2    0    0  0.35527136788E-14 -0.53290705182E-14 -0.24947925550E+03  0.51299115118E+03  0.44824103144E+03 0.  0.
         25    1    3    3    0    0 -0.33175919078E+01  0.60318269056E+02 -0.18311684195E+03  0.22984469953E+03  0.12509000000E+03 0.  0.
         25    1    3    3    0    0 -0.27191281062E+02 -0.96604894374E+01  0.29151366454E+01  0.12840832116E+03  0.12509000000E+03 0.  0.
         25    1    3    3    0    0  0.30508872969E+02 -0.50657779619E+02 -0.69277550194E+02  0.15473813049E+03  0.12509000000E+03 0.  0.
<mgrwt>
<rscale>  2 0.44824103E+03</rscale>
<asrwt>0</asrwt>
<pdfrwt beam="1">  1       21 0.19375875E-01 0.44824103E+03</pdfrwt>
<pdfrwt beam="2">  1       21 0.56064000E-01 0.44824103E+03</pdfrwt>
<totfact> 0.67938336E+04</totfact>
</mgrwt>
</event>
<event>
 6    0  0.1572624E-007  0.4542002E+03  0.7546771E-02  0.1026477E+00
         21   -1    0    0  502  501  0.00000000000E+00  0.00000000000E+00  0.56706968931E+02  0.56706968931E+02  0.00000000000E+00 0. -1.
         21   -1    0    0  501  502 -0.00000000000E+00 -0.00000000000E+00 -0.90949040523E+03  0.90949040523E+03  0.00000000000E+00 0. -1.
      99926    2    1    2    0    0 -0.26645352591E-14  0.00000000000E+00 -0.85278343630E+03  0.96619737416E+03  0.45420015039E+03 0.  0.
         25    1    3    3    0    0 -0.33764824699E+02  0.73276924400E+02 -0.46313511428E+03  0.48646810092E+03  0.12509000000E+03 0.  0.
         25    1    3    3    0    0  0.41348745818E+01 -0.19537510512E+02 -0.11202200472E+03  0.16910129848E+03  0.12509000000E+03 0.  0.
         25    1    3    3    0    0  0.29629950117E+02 -0.53739413888E+02 -0.27762631730E+03  0.31062797476E+03  0.12509000000E+03 0.  0.
<mgrwt>
<rscale>  2 0.45420015E+03</rscale>
<asrwt>0</asrwt>
<pdfrwt beam="1">  1       21 0.83392603E-02 0.45420015E+03</pdfrwt>
<pdfrwt beam="2">  1       21 0.13374859E+00 0.45420015E+03</pdfrwt>
<totfact> 0.40746031E+04</totfact>
</mgrwt>
</event>
<event>
 6    0  0.1572624E-007  0.4544251E+03  0.7546771E-02  0.1026411E+00
         21   -1    0    0  502  501  0.00000000000E+00  0.00000000000E+00  0.12626553187E+03  0.12626553187E+03  0.00000000000E+00 0. -1.
         21   -1    0    0  501  502 -0.00000000000E+00 -0.00000000000E+00 -0.40886489167E+03  0.40886489167E+03  0.00000000000E+00 0. -1.
      99926    2    1    2    0    0  0.00000000000E+00  0.00000000000E+00 -0.28259935980E+03  0.53513042354E+03  0.45442510058E+03 0.  0.
         25    1    3    3    0    0 -0.40623691001E+02  0.41148270028E+02 -0.22212074194E+03  0.26139739191E+03  0.12509000000E+03 0.  0.
         25    1    3    3    0    0  0.54857386779E+02 -0.34457577835E+02 -0.33754194045E+02  0.14485686477E+03  0.12509000000E+03 0.  0.
         25    1    3    3    0    0 -0.14233695778E+02 -0.66906921924E+01 -0.26724423814E+02  0.12887616686E+03  0.12509000000E+03 0.  0.
<mgrwt>
<rscale>  2 0.45442510E+03</rscale>
<asrwt>0</asrwt>
<pdfrwt beam="1">  1       21 0.18568461E-01 0.45442510E+03</pdfrwt>
<pdfrwt beam="2">  1       21 0.60127190E-01 0.45442510E+03</pdfrwt>
<totfact> 0.63146773E+04</totfact>
</mgrwt>
</event>
<event>
 6    0  0.1572624E-007  0.4515391E+03  0.7546771E-02  0.1027264E+00
         21   -1    0    0  502  501  0.00000000000E+00  0.00000000000E+00  0.37169113061E+03  0.37169113061E+03  0.00000000000E+00 0. -1.
         21   -1    0    0  501  502 -0.00000000000E+00 -0.00000000000E+00 -0.13713508971E+03  0.13713508971E+03  0.00000000000E+00 0. -1.
      99926    2    1    2    0    0  0.14210854715E-13  0.00000000000E+00  0.23455604090E+03  0.50882622033E+03  0.45153913027E+03 0.  0.
         25    1    3    3    0    0 -0.19443909507E+02 -0.49962896191E+02  0.79527000216E+02  0.15762743567E+03  0.12509000000E+03 0.  0.
         25    1    3    3    0    0 -0.75761815620E+02  0.44596378519E+02  0.45464225709E+02  0.15950922733E+03  0.12509000000E+03 0.  0.
         25    1    3    3    0    0  0.95205725127E+02  0.53665176711E+01  0.10956481497E+03  0.19168955733E+03  0.12509000000E+03 0.  0.
<mgrwt>
<rscale>  2 0.45153913E+03</rscale>
<asrwt>0</asrwt>
<pdfrwt beam="1">  1       21 0.54660460E-01 0.45153913E+03</pdfrwt>
<pdfrwt beam="2">  1       21 0.20166925E-01 0.45153913E+03</pdfrwt>
<totfact> 0.66461685E+04</totfact>
</mgrwt>
</event>
<event>
 6    0  0.1572624E-007  0.4690206E+03  0.7546771E-02  0.1022197E+00
         21   -1    0    0  502  501  0.00000000000E+00  0.00000000000E+00  0.10751150848E+03  0.10751150848E+03  0.00000000000E+00 0. -1.
         21   -1    0    0  501  502 -0.00000000000E+00 -0.00000000000E+00 -0.51152732115E+03  0.51152732115E+03  0.00000000000E+00 0. -1.
      99926    2    1    2    0    0  0.88817841970E-15  0.88817841970E-15 -0.40401581267E+03  0.61903882962E+03  0.46902057065E+03 0.  0.
         25    1    3    3    0    0 -0.58291574638E+02 -0.42596349619E+02 -0.26286034125E+03  0.29992569709E+03  0.12509000000E+03 0.  0.
         25    1    3    3    0    0  0.71862130226E+01 -0.23528013066E+01 -0.12292758484E+03  0.17554451443E+03  0.12509000000E+03 0.  0.
         25    1    3    3    0    0  0.51105361615E+02  0.44949150926E+02 -0.18227886583E+02  0.14356861810E+03  0.12509000000E+03 0.  0.
<mgrwt>
<rscale>  2 0.46902057E+03</rscale>
<asrwt>0</asrwt>
<pdfrwt beam="1">  1       21 0.15810516E-01 0.46902057E+03</pdfrwt>
<pdfrwt beam="2">  1       21 0.75224606E-01 0.46902057E+03</pdfrwt>
<totfact> 0.51569624E+04</totfact>
</mgrwt>
</event>
<event>
 6    0  0.1572624E-007  0.4482837E+03  0.7546771E-02  0.1028235E+00
         21   -1    0    0  502  501  0.00000000000E+00  0.00000000000E+00  0.24434205518E+03  0.24434205518E+03  0.00000000000E+00 0.  1.
         21   -1    0    0  501  502 -0.00000000000E+00 -0.00000000000E+00 -0.20561159332E+03  0.20561159332E+03  0.00000000000E+00 0.  1.
      99926    2    1    2    0    0 -0.26645352591E-14  0.17763568394E-14  0.38730461852E+02  0.44995364850E+03  0.44828365699E+03 0.  0.
         25    1    3    3    0    0  0.55087857773E+02  0.21916967943E+02 -0.47300753087E+02  0.14628702916E+03  0.12509000000E+03 0.  0.
         25    1    3    3    0    0 -0.47992612630E+02 -0.37083831686E+02 -0.17911910359E+02  0.14016720755E+03  0.12509000000E+03 0.  0.
         25    1    3    3    0    0 -0.70952451436E+01  0.15166863743E+02  0.10394312530E+03  0.16349941179E+03  0.12509000000E+03 0.  0.
<mgrwt>
<rscale>  2 0.44828366E+03</rscale>
<asrwt>0</asrwt>
<pdfrwt beam="1">  1       21 0.35932655E-01 0.44828366E+03</pdfrwt>
<pdfrwt beam="2">  1       21 0.30236999E-01 0.44828366E+03</pdfrwt>
<totfact> 0.72737459E+04</totfact>
</mgrwt>
</event>
<event>
 6    0  0.1572624E-007  0.4366654E+03  0.7546771E-02  0.1031775E+00
         21   -1    0    0  502  501  0.00000000000E+00  0.00000000000E+00  0.22037892602E+02  0.22037892602E+02  0.00000000000E+00 0. -1.
         21   -1    0    0  501  502 -0.00000000000E+00 -0.00000000000E+00 -0.21630548929E+04  0.21630548929E+04  0.00000000000E+00 0. -1.
      99926    2    1    2    0    0  0.17763568394E-14  0.00000000000E+00 -0.21410170003E+04  0.21850927855E+04  0.43666541618E+03 0.  0.
         25    1    3    3    0    0 -0.11070450670E+02  0.51123797620E+02 -0.96036046908E+03  0.96988449634E+03  0.12509000000E+03 0.  0.
         25    1    3    3    0    0 -0.38528410564E+02 -0.47621861988E+02 -0.41340194317E+03  0.43623497668E+03  0.12509000000E+03 0.  0.
         25    1    3    3    0    0  0.49598861234E+02 -0.35019356311E+01 -0.76725458802E+03  0.77897331246E+03  0.12509000000E+03 0.  0.
<mgrwt>
<rscale>  2 0.43666542E+03</rscale>
<asrwt>0</asrwt>
<pdfrwt beam="1">  1       21 0.32408680E-02 0.43666542E+03</pdfrwt>
<pdfrwt beam="2">  1       21 0.31809617E+00 0.43666542E+03</pdfrwt>
<totfact> 0.12620348E+04</totfact>
</mgrwt>
</event>
<event>
 6    0  0.1572624E-007  0.4541477E+03  0.7546771E-02  0.1026492E+00
         21   -1    0    0  502  501  0.00000000000E+00  0.00000000000E+00  0.47554319713E+03  0.47554319713E+03  0.00000000000E+00 0. -1.
         21   -1    0    0  501  502 -0.00000000000E+00 -0.00000000000E+00 -0.10842869070E+03  0.10842869070E+03  0.00000000000E+00 0. -1.
      99926    2    1    2    0    0  0.17763568394E-14  0.00000000000E+00  0.36711450642E+03  0.58397188783E+03  0.45414766866E+03 0.  0.
         25    1    3    3    0    0 -0.11246826452E+02  0.10149359648E+03  0.15920376473E+03  0.22676152239E+03  0.12509000000E+03 0.  0.
         25    1    3    3    0    0  0.28525685984E+01 -0.78858631943E+02  0.54084428894E+02  0.15747842560E+03  0.12509000000E+03 0.  0.
         25    1    3    3    0    0  0.83942578532E+01 -0.22634964539E+02  0.15382631280E+03  0.19973193984E+03  0.12509000000E+03 0.  0.
<mgrwt>
<rscale>  2 0.45414767E+03</rscale>
<asrwt>0</asrwt>
<pdfrwt beam="1">  1       21 0.69932822E-01 0.45414767E+03</pdfrwt>
<pdfrwt beam="2">  1       21 0.15945396E-01 0.45414767E+03</pdfrwt>
<totfact> 0.60079611E+04</totfact>
</mgrwt>
</event>
<event>
 6    0  0.1572624E-007  0.4477070E+03  0.7546771E-02  0.1028408E+00
         21   -1    0    0  502  501  0.00000000000E+00  0.00000000000E+00  0.54955969949E+03  0.54955969949E+03  0.00000000000E+00 0. -1.
         21   -1    0    0  501  502 -0.00000000000E+00 -0.00000000000E+00 -0.91182800262E+02  0.91182800262E+02  0.00000000000E+00 0. -1.
      99926    2    1    2    0    0 -0.71054273576E-14  0.71054273576E-14  0.45837689923E+03  0.64074249975E+03  0.44770701273E+03 0.  0.
         25    1    3    3    0    0 -0.64597278936E+02 -0.70975192426E+02  0.18527055265E+03  0.24327550671E+03  0.12509000000E+03 0.  0.
         25    1    3    3    0    0  0.47486013720E+02  0.21952069821E+02  0.68017749510E+02  0.15169290431E+03  0.12509000000E+03 0.  0.
         25    1    3    3    0    0  0.17111265215E+02  0.49023122605E+02  0.20508859707E+03  0.24577408874E+03  0.12509000000E+03 0.  0.
<mgrwt>
<rscale>  2 0.44770701E+03</rscale>
<asrwt>0</asrwt>
<pdfrwt beam="1">  1       21 0.80817602E-01 0.44770701E+03</pdfrwt>
<pdfrwt beam="2">  1       21 0.13409236E-01 0.44770701E+03</pdfrwt>
<totfact> 0.59594185E+04</totfact>
</mgrwt>
</event>
<event>
 6    0  0.1572624E-007  0.4499410E+03  0.7546771E-02  0.1027740E+00
         21   -1    0    0  502  501  0.00000000000E+00  0.00000000000E+00  0.14503105004E+04  0.14503105004E+04  0.00000000000E+00 0.  1.
         21   -1    0    0  501  502 -0.00000000000E+00 -0.00000000000E+00 -0.34897165814E+02  0.34897165814E+02  0.00000000000E+00 0.  1.
      99926    2    1    2    0    0  0.35527136788E-14 -0.28865798640E-14  0.14154133346E+04  0.14852076662E+04  0.44994100065E+03 0.  0.
         25    1    3    3    0    0  0.13743517657E+02  0.60993563799E+02  0.41899512169E+03  0.44171655980E+03  0.12509000000E+03 0.  0.
         25    1    3    3    0    0  0.21166243127E+02 -0.11598723679E+01  0.73173968753E+03  0.74265727867E+03  0.12509000000E+03 0.  0.
         25    1    3    3    0    0 -0.34909760784E+02 -0.59833691431E+02  0.26467852540E+03  0.30083382778E+03  0.12509000000E+03 0.  0.
<mgrwt>
<rscale>  2 0.44994100E+03</rscale>
<asrwt>0</asrwt>
<pdfrwt beam="1">  1       21 0.21328092E+00 0.44994100E+03</pdfrwt>
<pdfrwt beam="2">  1       21 0.51319371E-02 0.44994100E+03</pdfrwt>
<totfact> 0.25116615E+04</totfact>
</mgrwt>
</event>
<event>
 6    0  0.1572624E-007  0.4494893E+03  0.7546771E-02  0.1027874E+00
         21   -1    0    0  502  501  0.00000000000E+00  0.00000000000E+00  0.21553251715E+03  0.21553251715E+03  0.00000000000E+00 0.  1.
         21   -1    0    0  501  502 -0.00000000000E+00 -0.00000000000E+00 -0.23435056126E+03  0.23435056126E+03  0.00000000000E+00 0.  1.
      99926    2    1    2    0    0  0.71054273576E-14  0.00000000000E+00 -0.18818044108E+02  0.44988307840E+03  0.44948933853E+03 0.  0.
         25    1    3    3    0    0 -0.32779663080E+02  0.39495198506E+02 -0.15688346450E+02  0.13611763049E+03  0.12509000000E+03 0.  0.
         25    1    3    3    0    0  0.50795263060E+02  0.64832783310E+02  0.24807312200E+01  0.14979022221E+03  0.12509000000E+03 0.  0.
         25    1    3    3    0    0 -0.18015599980E+02 -0.10432798182E+03 -0.56104288783E+01  0.16397522570E+03  0.12509000000E+03 0.  0.
<mgrwt>
<rscale>  2 0.44948934E+03</rscale>
<asrwt>0</asrwt>
<pdfrwt beam="1">  1       21 0.31695959E-01 0.44948934E+03</pdfrwt>
<pdfrwt beam="2">  1       21 0.34463318E-01 0.44948934E+03</pdfrwt>
<totfact> 0.72038024E+04</totfact>
</mgrwt>
</event>
<event>
 6    0  0.1572624E-007  0.4844612E+03  0.7546771E-02  0.1017916E+00
         21   -1    0    0  502  501  0.00000000000E+00  0.00000000000E+00  0.21285844435E+03  0.21285844435E+03  0.00000000000E+00 0.  1.
         21   -1    0    0  501  502 -0.00000000000E+00 -0.00000000000E+00 -0.27565585100E+03  0.27565585100E+03  0.00000000000E+00 0.  1.
      99926    2    1    2    0    0 -0.35527136788E-14  0.00000000000E+00 -0.62797406642E+02  0.48851429535E+03  0.48446124972E+03 0.  0.
         25    1    3    3    0    0 -0.28964054603E+02 -0.90520829712E+02  0.30036015186E+02  0.15994563882E+03  0.12509000000E+03 0.  0.
         25    1    3    3    0    0 -0.68154008250E+02  0.35551079377E+02 -0.32233053849E+02  0.15031741731E+03  0.12509000000E+03 0.  0.
         25    1    3    3    0    0  0.97118062853E+02  0.54969750335E+02 -0.60600367979E+02  0.17825123922E+03  0.12509000000E+03 0.  0.
<mgrwt>
<rscale>  2 0.48446125E+03</rscale>
<asrwt>0</asrwt>
<pdfrwt beam="1">  1       21 0.31302713E-01 0.48446125E+03</pdfrwt>
<pdfrwt beam="2">  1       21 0.40537625E-01 0.48446125E+03</pdfrwt>
<totfact> 0.52646660E+04</totfact>
</mgrwt>
</event>
<event>
 6    0  0.1572624E-007  0.4381765E+03  0.7546771E-02  0.1031308E+00
         21   -1    0    0  502  501  0.00000000000E+00  0.00000000000E+00  0.56881268783E+02  0.56881268783E+02  0.00000000000E+00 0. -1.
         21   -1    0    0  501  502 -0.00000000000E+00 -0.00000000000E+00 -0.84385716328E+03  0.84385716328E+03  0.00000000000E+00 0. -1.
      99926    2    1    2    0    0  0.35527136788E-14  0.32890357105E-14 -0.78697589450E+03  0.90073843206E+03  0.43817652205E+03 0.  0.
         25    1    3    3    0    0 -0.20224978606E+02 -0.99553452012E-01 -0.23786608444E+03  0.26951222959E+03  0.12509000000E+03 0.  0.
         25    1    3    3    0    0 -0.33399841991E+02 -0.50782518965E+02 -0.14111133729E+03  0.19812705845E+03  0.12509000000E+03 0.  0.
         25    1    3    3    0    0  0.53624820597E+02  0.50882072417E+02 -0.40799847277E+03  0.43309914403E+03  0.12509000000E+03 0.  0.
<mgrwt>
<rscale>  2 0.43817652E+03</rscale>
<asrwt>0</asrwt>
<pdfrwt beam="1">  1       21 0.83648932E-02 0.43817652E+03</pdfrwt>
<pdfrwt beam="2">  1       21 0.12409663E+00 0.43817652E+03</pdfrwt>
<totfact> 0.49390275E+04</totfact>
</mgrwt>
</event>
<event>
 6    0  0.1572624E-007  0.4525418E+03  0.7546771E-02  0.1026967E+00
         21   -1    0    0  502  501  0.00000000000E+00  0.00000000000E+00  0.84383924751E+02  0.84383924751E+02  0.00000000000E+00 0. -1.
         21   -1    0    0  501  502 -0.00000000000E+00 -0.00000000000E+00 -0.60673322376E+03  0.60673322376E+03  0.00000000000E+00 0. -1.
      99926    2    1    2    0    0  0.00000000000E+00  0.35527136788E-14 -0.52234929901E+03  0.69111714851E+03  0.45254184645E+03 0.  0.
         25    1    3    3    0    0  0.79056380735E+02  0.24907457637E+02 -0.21248988148E+03  0.26013410121E+03  0.12509000000E+03 0.  0.
         25    1    3    3    0    0 -0.79477006041E+02 -0.33663568189E+01 -0.24999564428E+03  0.29064283426E+03  0.12509000000E+03 0.  0.
         25    1    3    3    0    0  0.42062530646E+00 -0.21541100819E+02 -0.59863773257E+02  0.14034021305E+03  0.12509000000E+03 0.  0.
<mgrwt>
<rscale>  2 0.45254185E+03</rscale>
<asrwt>0</asrwt>
<pdfrwt beam="1">  1       21 0.12409401E-01 0.45254185E+03</pdfrwt>
<pdfrwt beam="2">  1       21 0.89225475E-01 0.45254185E+03</pdfrwt>
<totfact> 0.54433635E+04</totfact>
</mgrwt>
</event>
<event>
 6    0  0.1572624E-007  0.4560611E+03  0.7546771E-02  0.1025930E+00
         21   -1    0    0  502  501  0.00000000000E+00  0.00000000000E+00  0.11421023484E+03  0.11421023484E+03  0.00000000000E+00 0. -1.
         21   -1    0    0  501  502 -0.00000000000E+00 -0.00000000000E+00 -0.45528260869E+03  0.45528260869E+03  0.00000000000E+00 0. -1.
      99926    2    1    2    0    0  0.00000000000E+00  0.00000000000E+00 -0.34107237385E+03  0.56949284353E+03  0.45606110844E+03 0.  0.
         25    1    3    3    0    0 -0.30154771109E+02  0.43844011927E+02 -0.88831237786E+02  0.16238874502E+03  0.12509000000E+03 0.  0.
         25    1    3    3    0    0  0.59764173875E+02  0.58647533725E+02 -0.86300332218E+02  0.17351237746E+03  0.12509000000E+03 0.  0.
         25    1    3    3    0    0 -0.29609402765E+02 -0.10249154565E+03 -0.16594080385E+03  0.23359172105E+03  0.12509000000E+03 0.  0.
<mgrwt>
<rscale>  2 0.45606111E+03</rscale>
<asrwt>0</asrwt>
<pdfrwt beam="1">  1       21 0.16795623E-01 0.45606111E+03</pdfrwt>
<pdfrwt beam="2">  1       21 0.66953326E-01 0.45606111E+03</pdfrwt>
<totfact> 0.60090667E+04</totfact>
</mgrwt>
</event>
<event>
 6    0  0.1572624E-007  0.4521816E+03  0.7546771E-02  0.1027073E+00
         21   -1    0    0  502  501  0.00000000000E+00  0.00000000000E+00  0.15146503302E+04  0.15146503302E+04  0.00000000000E+00 0. -1.
         21   -1    0    0  501  502 -0.00000000000E+00 -0.00000000000E+00 -0.33748416224E+02  0.33748416224E+02  0.00000000000E+00 0. -1.
      99926    2    1    2    0    0  0.00000000000E+00  0.00000000000E+00  0.14809019140E+04  0.15483987464E+04  0.45218159970E+03 0.  0.
         25    1    3    3    0    0  0.91597758638E+01 -0.31130881906E+00  0.59188988061E+03  0.60503317039E+03  0.12509000000E+03 0.  0.
         25    1    3    3    0    0 -0.14389911379E+02  0.91254153693E+02  0.35915696585E+03  0.39137657611E+03  0.12509000000E+03 0.  0.
         25    1    3    3    0    0  0.52301355152E+01 -0.90942844874E+02  0.52985506753E+03  0.55198899993E+03  0.12509000000E+03 0.  0.
<mgrwt>
<rscale>  2 0.45218160E+03</rscale>
<asrwt>0</asrwt>
<pdfrwt beam="1">  1       21 0.22274265E+00 0.45218160E+03</pdfrwt>
<pdfrwt beam="2">  1       21 0.49630034E-02 0.45218160E+03</pdfrwt>
<totfact> 0.23119450E+04</totfact>
</mgrwt>
</event>
<event>
 6    0  0.1831337E-007  0.4874602E+03  0.7546771E-02  0.1017105E+00
         21   -1    0    0  502  501  0.00000000000E+00  0.00000000000E+00  0.10320275307E+03  0.10320275307E+03  0.00000000000E+00 0. -1.
         21   -1    0    0  501  502 -0.00000000000E+00 -0.00000000000E+00 -0.57560823211E+03  0.57560823211E+03  0.00000000000E+00 0. -1.
      99926    2    1    2    0    0  0.00000000000E+00  0.35527136788E-14 -0.47240547904E+03  0.67881098518E+03  0.48746016962E+03 0.  0.
         25    1    3    3    0    0 -0.56018223370E+02  0.65451338341E+02 -0.17675240169E+03  0.23304685933E+03  0.12509000000E+03 0.  0.
         25    1    3    3    0    0 -0.43875300053E+02 -0.93819225505E+02 -0.97383310498E+02  0.18936236768E+03  0.12509000000E+03 0.  0.
         25    1    3    3    0    0  0.99893523423E+02  0.28367887164E+02 -0.19826976686E+03  0.25640175817E+03  0.12509000000E+03 0.  0.
<mgrwt>
<rscale>  2 0.48746017E+03</rscale>
<asrwt>0</asrwt>
<pdfrwt beam="1">  1       21 0.15176875E-01 0.48746017E+03</pdfrwt>
<pdfrwt beam="2">  1       21 0.84648270E-01 0.48746017E+03</pdfrwt>
<totfact> 0.42191241E+04</totfact>
</mgrwt>
</event>
<event>
 6    0  0.1572624E-007  0.4459139E+03  0.7546771E-02  0.1028948E+00
         21   -1    0    0  502  501  0.00000000000E+00  0.00000000000E+00  0.52993362318E+03  0.52993362318E+03  0.00000000000E+00 0. -1.
         21   -1    0    0  501  502 -0.00000000000E+00 -0.00000000000E+00 -0.93803846689E+02  0.93803846689E+02  0.00000000000E+00 0. -1.
      99926    2    1    2    0    0  0.00000000000E+00  0.00000000000E+00  0.43612977649E+03  0.62373746987E+03  0.44591394840E+03 0.  0.
         25    1    3    3    0    0  0.94154569677E+01  0.27622160697E+02  0.13154314406E+03  0.18385521869E+03  0.12509000000E+03 0.  0.
         25    1    3    3    0    0  0.49086418812E+02 -0.92670652251E+02  0.17862020696E+03  0.24197109896E+03  0.12509000000E+03 0.  0.
         25    1    3    3    0    0 -0.58501875780E+02  0.65048491554E+02  0.12596642547E+03  0.19791115221E+03  0.12509000000E+03 0.  0.
<mgrwt>
<rscale>  2 0.44591395E+03</rscale>
<asrwt>0</asrwt>
<pdfrwt beam="1">  1       21 0.77931414E-01 0.44591395E+03</pdfrwt>
<pdfrwt beam="2">  1       21 0.13794684E-01 0.44591395E+03</pdfrwt>
<totfact> 0.61537483E+04</totfact>
</mgrwt>
</event>
<event>
 6    0  0.1572624E-007  0.4568971E+03  0.7546771E-02  0.1025685E+00
         21   -1    0    0  502  501  0.00000000000E+00  0.00000000000E+00  0.16464280191E+03  0.16464280191E+03  0.00000000000E+00 0. -1.
         21   -1    0    0  501  502 -0.00000000000E+00 -0.00000000000E+00 -0.31698165821E+03  0.31698165821E+03  0.00000000000E+00 0. -1.
      99926    2    1    2    0    0 -0.71054273576E-14  0.00000000000E+00 -0.15233885630E+03  0.48162446011E+03  0.45689713661E+03 0.  0.
         25    1    3    3    0    0  0.10144523423E+02 -0.47501094993E+02 -0.10425200691E+03  0.16992720331E+03  0.12509000000E+03 0.  0.
         25    1    3    3    0    0 -0.52538629753E+02 -0.44372990237E+02  0.33451222028E+01  0.14278644131E+03  0.12509000000E+03 0.  0.
         25    1    3    3    0    0  0.42394106330E+02  0.91874085230E+02 -0.51431971594E+02  0.16891081549E+03  0.12509000000E+03 0.  0.
<mgrwt>
<rscale>  2 0.45689714E+03</rscale>
<asrwt>0</asrwt>
<pdfrwt beam="1">  1       21 0.24212177E-01 0.45689714E+03</pdfrwt>
<pdfrwt beam="2">  1       21 0.46614949E-01 0.45689714E+03</pdfrwt>
<totfact> 0.65588782E+04</totfact>
</mgrwt>
</event>
<event>
 6    0  0.1572624E-007  0.4511842E+03  0.7546771E-02  0.1027369E+00
         21   -1    0    0  502  501  0.00000000000E+00  0.00000000000E+00  0.36692387919E+03  0.36692387919E+03  0.00000000000E+00 0.  1.
         21   -1    0    0  501  502 -0.00000000000E+00 -0.00000000000E+00 -0.13869851220E+03  0.13869851220E+03  0.00000000000E+00 0.  1.
      99926    2    1    2    0    0  0.35527136788E-14  0.00000000000E+00  0.22822536699E+03  0.50562239139E+03  0.45118420245E+03 0.  0.
         25    1    3    3    0    0 -0.28161042517E+02 -0.32046768873E+02  0.20037918047E+03  0.24004033781E+03  0.12509000000E+03 0.  0.
         25    1    3    3    0    0  0.49130041957E+00 -0.37754636589E+01  0.41514811426E+02  0.13185402220E+03  0.12509000000E+03 0.  0.
         25    1    3    3    0    0  0.27669742098E+02  0.35822232532E+02 -0.13668624907E+02  0.13372803139E+03  0.12509000000E+03 0.  0.
<mgrwt>
<rscale>  2 0.45118420E+03</rscale>
<asrwt>0</asrwt>
<pdfrwt beam="1">  1       21 0.53959394E-01 0.45118420E+03</pdfrwt>
<pdfrwt beam="2">  1       21 0.20396840E-01 0.45118420E+03</pdfrwt>
<totfact> 0.66880079E+04</totfact>
</mgrwt>
</event>
<event>
 6    0  0.1572624E-007  0.4525802E+03  0.7546771E-02  0.1026955E+00
         21   -1    0    0  502  501  0.00000000000E+00  0.00000000000E+00  0.20341719187E+03  0.20341719187E+03  0.00000000000E+00 0.  1.
         21   -1    0    0  501  502 -0.00000000000E+00 -0.00000000000E+00 -0.25173496840E+03  0.25173496840E+03  0.00000000000E+00 0.  1.
      99926    2    1    2    0    0  0.00000000000E+00 -0.88817841970E-15 -0.48317776526E+02  0.45515216027E+03  0.45258024865E+03 0.  0.
         25    1    3    3    0    0 -0.42709670592E+02  0.19904736665E+02  0.50867858075E+02  0.14302224159E+03  0.12509000000E+03 0.  0.
         25    1    3    3    0    0 -0.29108690974E+02 -0.25658924054E+02 -0.10468947089E+03  0.16766958487E+03  0.12509000000E+03 0.  0.
         25    1    3    3    0    0  0.71818361567E+02  0.57541873888E+01  0.55038362901E+01  0.14446033381E+03  0.12509000000E+03 0.  0.
<mgrwt>
<rscale>  2 0.45258025E+03</rscale>
<asrwt>0</asrwt>
<pdfrwt beam="1">  1       21 0.29914293E-01 0.45258025E+03</pdfrwt>
<pdfrwt beam="2">  1       21 0.37019848E-01 0.45258025E+03</pdfrwt>
<totfact> 0.69873882E+04</totfact>
</mgrwt>
</event>
<event>
 6    0  0.1572624E-007  0.4542267E+03  0.7546771E-02  0.1026469E+00
         21   -1    0    0  502  501  0.00000000000E+00  0.00000000000E+00  0.20933750998E+03  0.20933750998E+03  0.00000000000E+00 0.  1.
         21   -1    0    0  501  502 -0.00000000000E+00 -0.00000000000E+00 -0.24639856940E+03  0.24639856940E+03  0.00000000000E+00 0.  1.
      99926    2    1    2    0    0  0.71054273576E-14  0.00000000000E+00 -0.37061059422E+02  0.45573607938E+03  0.45422665259E+03 0.  0.
         25    1    3    3    0    0 -0.20803758279E+02 -0.33796023483E+02  0.81923329862E+02  0.15470587461E+03  0.12509000000E+03 0.  0.
         25    1    3    3    0    0  0.41062239339E+02 -0.25689383697E+02 -0.38502341591E+02  0.13955640559E+03  0.12509000000E+03 0.  0.
         25    1    3    3    0    0 -0.20258481060E+02  0.59485407180E+02 -0.80482047692E+02  0.16147379918E+03  0.12509000000E+03 0.  0.
<mgrwt>
<rscale>  2 0.45422665E+03</rscale>
<asrwt>0</asrwt>
<pdfrwt beam="1">  1       21 0.30784928E-01 0.45422665E+03</pdfrwt>
<pdfrwt beam="2">  1       21 0.36235084E-01 0.45422665E+03</pdfrwt>
<totfact> 0.68916185E+04</totfact>
</mgrwt>
</event>
<event>
 6    0  0.1572624E-007  0.4547685E+03  0.7546771E-02  0.1026310E+00
         21   -1    0    0  502  501  0.00000000000E+00  0.00000000000E+00  0.19392861087E+03  0.19392861087E+03  0.00000000000E+00 0.  1.
         21   -1    0    0  501  502 -0.00000000000E+00 -0.00000000000E+00 -0.26661144309E+03  0.26661144309E+03  0.00000000000E+00 0.  1.
      99926    2    1    2    0    0  0.14210854715E-13  0.71054273576E-14 -0.72682832212E+02  0.46054005396E+03  0.45476845449E+03 0.  0.
         25    1    3    3    0    0  0.10976907112E+03  0.70862736530E+01 -0.20777286624E+02  0.16786502908E+03  0.12509000000E+03 0.  0.
         25    1    3    3    0    0 -0.71709629753E+02 -0.46366140799E+02 -0.30096959679E+02  0.15441963960E+03  0.12509000000E+03 0.  0.
         25    1    3    3    0    0 -0.38059441365E+02  0.39279867146E+02 -0.21808585908E+02  0.13825538528E+03  0.12509000000E+03 0.  0.
<mgrwt>
<rscale>  2 0.45476845E+03</rscale>
<asrwt>0</asrwt>
<pdfrwt beam="1">  1       21 0.28518914E-01 0.45476845E+03</pdfrwt>
<pdfrwt beam="2">  1       21 0.39207565E-01 0.45476845E+03</pdfrwt>
<totfact> 0.68267158E+04</totfact>
</mgrwt>
</event>
<event>
 6    0  0.1572624E-007  0.4565201E+03  0.7546771E-02  0.1025795E+00
         21   -1    0    0  502  501  0.00000000000E+00  0.00000000000E+00  0.25487994942E+03  0.25487994942E+03  0.00000000000E+00 0.  1.
         21   -1    0    0  501  502 -0.00000000000E+00 -0.00000000000E+00 -0.20442032649E+03  0.20442032649E+03  0.00000000000E+00 0.  1.
      99926    2    1    2    0    0 -0.71054273576E-14  0.00000000000E+00  0.50459622933E+02  0.45930027591E+03  0.45652006517E+03 0.  0.
         25    1    3    3    0    0 -0.32674037434E+01  0.25449029253E+02  0.12294276775E+03  0.17725902307E+03  0.12509000000E+03 0.  0.
         25    1    3    3    0    0 -0.39393667122E+02  0.14784596416E+02 -0.16612176249E+02  0.13301848669E+03  0.12509000000E+03 0.  0.
         25    1    3    3    0    0  0.42661070866E+02 -0.40233625669E+02 -0.55870968572E+02  0.14902276615E+03  0.12509000000E+03 0.  0.
<mgrwt>
<rscale>  2 0.45652007E+03</rscale>
<asrwt>0</asrwt>
<pdfrwt beam="1">  1       21 0.37482346E-01 0.45652007E+03</pdfrwt>
<pdfrwt beam="2">  1       21 0.30061813E-01 0.45652007E+03</pdfrwt>
<totfact> 0.67410583E+04</totfact>
</mgrwt>
</event>
<event>
 6    0  0.1572624E-007  0.4538971E+03  0.7546771E-02  0.1026566E+00
         21   -1    0    0  502  501  0.00000000000E+00  0.00000000000E+00  0.30013450914E+03  0.30013450914E+03  0.00000000000E+00 0.  1.
         21   -1    0    0  501  502 -0.00000000000E+00 -0.00000000000E+00 -0.17160852660E+03  0.17160852660E+03  0.00000000000E+00 0.  1.
      99926    2    1    2    0    0  0.00000000000E+00  0.00000000000E+00  0.12852598254E+03  0.47174303574E+03  0.45389708479E+03 0.  0.
         25    1    3    3    0    0 -0.56005257977E+02  0.11247032785E+02  0.24811729164E+02  0.13973623249E+03  0.12509000000E+03 0.  0.
         25    1    3    3    0    0 -0.54124379011E+01 -0.63376301161E+01 -0.40165462345E+02  0.13164434095E+03  0.12509000000E+03 0.  0.
         25    1    3    3    0    0  0.61417695878E+02 -0.49094026685E+01  0.14387971572E+03  0.20036246230E+03  0.12509000000E+03 0.  0.
<mgrwt>
<rscale>  2 0.45389708E+03</rscale>
<asrwt>0</asrwt>
<pdfrwt beam="1">  1       21 0.44137428E-01 0.45389708E+03</pdfrwt>
<pdfrwt beam="2">  1       21 0.25236548E-01 0.45389708E+03</pdfrwt>
<totfact> 0.67898547E+04</totfact>
</mgrwt>
</event>
<event>
 6    0  0.1572624E-007  0.4562136E+03  0.7546771E-02  0.1025885E+00
         21   -1    0    0  502  501  0.00000000000E+00  0.00000000000E+00  0.70882262585E+02  0.70882262585E+02  0.00000000000E+00 0.  1.
         21   -1    0    0  501  502 -0.00000000000E+00 -0.00000000000E+00 -0.73407246714E+03  0.73407246714E+03  0.00000000000E+00 0.  1.
      99926    2    1    2    0    0  0.00000000000E+00  0.00000000000E+00 -0.66319020456E+03  0.80495472973E+03  0.45621362265E+03 0.  0.
         25    1    3    3    0    0  0.24844712351E+02 -0.29387669951E+02 -0.13851688878E+03  0.19056581922E+03  0.12509000000E+03 0.  0.
         25    1    3    3    0    0 -0.75074937194E+02 -0.23535540886E+02 -0.38829962970E+03  0.41546874540E+03  0.12509000000E+03 0.  0.
         25    1    3    3    0    0  0.50230224843E+02  0.52923210837E+02 -0.13637368608E+03  0.19892016511E+03  0.12509000000E+03 0.  0.
<mgrwt>
<rscale>  2 0.45621362E+03</rscale>
<asrwt>0</asrwt>
<pdfrwt beam="1">  1       21 0.10423863E-01 0.45621362E+03</pdfrwt>
<pdfrwt beam="2">  1       21 0.10795182E+00 0.45621362E+03</pdfrwt>
<totfact> 0.47076135E+04</totfact>
</mgrwt>
</event>
<event>
 6    0  0.1572624E-007  0.4511755E+03  0.7546771E-02  0.1027372E+00
         21   -1    0    0  502  501  0.00000000000E+00  0.00000000000E+00  0.14551989848E+03  0.14551989848E+03  0.00000000000E+00 0. -1.
         21   -1    0    0  501  502 -0.00000000000E+00 -0.00000000000E+00 -0.34971051258E+03  0.34971051258E+03  0.00000000000E+00 0. -1.
      99926    2    1    2    0    0  0.00000000000E+00 -0.71054273576E-14 -0.20419061410E+03  0.49523041106E+03  0.45117552366E+03 0.  0.
         25    1    3    3    0    0  0.53364409179E+02 -0.32664477865E+02 -0.73939924014E+02  0.15820666467E+03  0.12509000000E+03 0.  0.
         25    1    3    3    0    0 -0.53819398821E+02  0.21299241843E+02  0.22076652232E+02  0.13958893963E+03  0.12509000000E+03 0.  0.
         25    1    3    3    0    0  0.45498964217E+00  0.11365236022E+02 -0.15232734232E+03  0.19743480677E+03  0.12509000000E+03 0.  0.
<mgrwt>
<rscale>  2 0.45117552E+03</rscale>
<asrwt>0</asrwt>
<pdfrwt beam="1">  1       21 0.21399985E-01 0.45117552E+03</pdfrwt>
<pdfrwt beam="2">  1       21 0.51428017E-01 0.45117552E+03</pdfrwt>
<totfact> 0.67637311E+04</totfact>
</mgrwt>
</event>
<event>
 6    0  0.1572624E-007  0.4691116E+03  0.7546771E-02  0.1022171E+00
         21   -1    0    0  502  501  0.00000000000E+00  0.00000000000E+00  0.84279359471E+02  0.84279359471E+02  0.00000000000E+00 0. -1.
         21   -1    0    0  501  502 -0.00000000000E+00 -0.00000000000E+00 -0.65278652007E+03  0.65278652007E+03  0.00000000000E+00 0. -1.
      99926    2    1    2    0    0  0.35527136788E-14  0.00000000000E+00 -0.56850716060E+03  0.73706587954E+03  0.46911162758E+03 0.  0.
         25    1    3    3    0    0  0.24253709514E+02 -0.20608901117E+02 -0.72613098168E+02  0.14809841105E+03  0.12509000000E+03 0.  0.
         25    1    3    3    0    0  0.28253821745E+02 -0.26439140491E+02 -0.38759762004E+03  0.40911701230E+03  0.12509000000E+03 0.  0.
         25    1    3    3    0    0 -0.52507531259E+02  0.47048041607E+02 -0.10829644240E+03  0.17985045620E+03  0.12509000000E+03 0.  0.
<mgrwt>
<rscale>  2 0.46911163E+03</rscale>
<asrwt>0</asrwt>
<pdfrwt beam="1">  1       21 0.12394024E-01 0.46911163E+03</pdfrwt>
<pdfrwt beam="2">  1       21 0.95998014E-01 0.46911163E+03</pdfrwt>
<totfact> 0.45655923E+04</totfact>
</mgrwt>
</event>
<event>
 6    0  0.1572624E-007  0.4550038E+03  0.7546771E-02  0.1026240E+00
         21   -1    0    0  502  501  0.00000000000E+00  0.00000000000E+00  0.83868379316E+03  0.83868379316E+03  0.00000000000E+00 0. -1.
         21   -1    0    0  501  502 -0.00000000000E+00 -0.00000000000E+00 -0.61712297221E+02  0.61712297221E+02  0.00000000000E+00 0. -1.
      99926    2    1    2    0    0  0.71054273576E-14  0.00000000000E+00  0.77697149594E+03  0.90039609038E+03  0.45500375171E+03 0.  0.
         25    1    3    3    0    0  0.33191966797E+02  0.14788893788E+02  0.36418500007E+03  0.38677983455E+03  0.12509000000E+03 0.  0.
         25    1    3    3    0    0 -0.18472821395E+02  0.35197320519E+02  0.78570510968E+02  0.15297362451E+03  0.12509000000E+03 0.  0.
         25    1    3    3    0    0 -0.14719145402E+02 -0.49986214307E+02  0.33421598491E+03  0.36064263132E+03  0.12509000000E+03 0.  0.
<mgrwt>
<rscale>  2 0.45500375E+03</rscale>
<asrwt>0</asrwt>
<pdfrwt beam="1">  1       21 0.12333585E+00 0.45500375E+03</pdfrwt>
<pdfrwt beam="2">  1       21 0.90753383E-02 0.45500375E+03</pdfrwt>
<totfact> 0.43215299E+04</totfact>
</mgrwt>
</event>
<event>
 6    0  0.1572624E-007  0.4417668E+03  0.7546771E-02  0.1030206E+00
         21   -1    0    0  502  501  0.00000000000E+00  0.00000000000E+00  0.23180627878E+03  0.23180627878E+03  0.00000000000E+00 0. -1.
         21   -1    0    0  501  502 -0.00000000000E+00 -0.00000000000E+00 -0.21047524068E+03  0.21047524068E+03  0.00000000000E+00 0. -1.
      99926    2    1    2    0    0 -0.14210854715E-13 -0.35527136788E-14  0.21331038095E+02  0.44228151946E+03  0.44176682681E+03 0.  0.
         25    1    3    3    0    0 -0.67919621451E+02  0.92129322306E+01  0.24884618333E+02  0.14479193841E+03  0.12509000000E+03 0.  0.
         25    1    3    3    0    0 -0.50674831273E+01 -0.66445979286E+02 -0.45057440245E+00  0.14173375980E+03  0.12509000000E+03 0.  0.
         25    1    3    3    0    0  0.72987104578E+02  0.57233047055E+02 -0.31030058349E+01  0.15575582126E+03  0.12509000000E+03 0.  0.
<mgrwt>
<rscale>  2 0.44176683E+03</rscale>
<asrwt>0</asrwt>
<pdfrwt beam="1">  1       21 0.34089159E-01 0.44176683E+03</pdfrwt>
<pdfrwt beam="2">  1       21 0.30952241E-01 0.44176683E+03</pdfrwt>
<totfact> 0.77336494E+04</totfact>
</mgrwt>
</event>
<event>
 6    0  0.1572624E-007  0.4827396E+03  0.7546771E-02  0.1018385E+00
         21   -1    0    0  502  501  0.00000000000E+00  0.00000000000E+00  0.49583384478E+03  0.49583384478E+03  0.00000000000E+00 0. -1.
         21   -1    0    0  501  502 -0.00000000000E+00 -0.00000000000E+00 -0.11749779112E+03  0.11749779112E+03  0.00000000000E+00 0. -1.
      99926    2    1    2    0    0 -0.35527136788E-14 -0.14210854715E-13  0.37833605366E+03  0.61333163590E+03  0.48273960486E+03 0.  0.
         25    1    3    3    0    0  0.89095623148E+02  0.33800361460E+02  0.17225850681E+03  0.23324021045E+03  0.12509000000E+03 0.  0.
         25    1    3    3    0    0 -0.60226743494E+02 -0.10333446163E+03  0.12008295495E+03  0.21064827500E+03  0.12509000000E+03 0.  0.
         25    1    3    3    0    0 -0.28868879653E+02  0.69534100175E+02  0.85994591896E+02  0.16944315045E+03  0.12509000000E+03 0.  0.
<mgrwt>
<rscale>  2 0.48273960E+03</rscale>
<asrwt>0</asrwt>
<pdfrwt beam="1">  1       21 0.72916741E-01 0.48273960E+03</pdfrwt>
<pdfrwt beam="2">  1       21 0.17279087E-01 0.48273960E+03</pdfrwt>
<totfact> 0.46747777E+04</totfact>
</mgrwt>
</event>
<event>
 6    0  0.1572624E-007  0.4692906E+03  0.7546771E-02  0.1022121E+00
         21   -1    0    0  502  501  0.00000000000E+00  0.00000000000E+00  0.11076477683E+03  0.11076477683E+03  0.00000000000E+00 0. -1.
         21   -1    0    0  501  502 -0.00000000000E+00 -0.00000000000E+00 -0.49707512426E+03  0.49707512426E+03  0.00000000000E+00 0. -1.
      99926    2    1    2    0    0 -0.71054273576E-14  0.00000000000E+00 -0.38631034743E+03  0.60783990110E+03  0.46929059316E+03 0.  0.
         25    1    3    3    0    0 -0.11607932795E+03  0.38545495916E+02 -0.11836378092E+03  0.21122892408E+03  0.12509000000E+03 0.  0.
         25    1    3    3    0    0  0.71922434221E+02  0.22961291881E+02 -0.12917763215E+03  0.19502416829E+03  0.12509000000E+03 0.  0.
         25    1    3    3    0    0  0.44156893731E+02 -0.61506787797E+02 -0.13876893436E+03  0.20158680873E+03  0.12509000000E+03 0.  0.
<mgrwt>
<rscale>  2 0.46929059E+03</rscale>
<asrwt>0</asrwt>
<pdfrwt beam="1">  1       21 0.16288938E-01 0.46929059E+03</pdfrwt>
<pdfrwt beam="2">  1       21 0.73099283E-01 0.46929059E+03</pdfrwt>
<totfact> 0.52066435E+04</totfact>
</mgrwt>
</event>
<event>
 6    0  0.1572624E-007  0.4566083E+03  0.7546771E-02  0.1025770E+00
         21   -1    0    0  502  501  0.00000000000E+00  0.00000000000E+00  0.20968976135E+03  0.20968976135E+03  0.00000000000E+00 0.  1.
         21   -1    0    0  501  502 -0.00000000000E+00 -0.00000000000E+00 -0.24857099725E+03  0.24857099725E+03  0.00000000000E+00 0.  1.
      99926    2    1    2    0    0 -0.53290705182E-14 -0.35527136788E-14 -0.38881235904E+02  0.45826075860E+03  0.45660833585E+03 0.  0.
         25    1    3    3    0    0 -0.82364453726E+02  0.42014986954E+02 -0.81192095571E+02  0.17546745239E+03  0.12509000000E+03 0.  0.
         25    1    3    3    0    0  0.81762786463E+01 -0.30934999517E+02 -0.56854863016E+01  0.12924263454E+03  0.12509000000E+03 0.  0.
         25    1    3    3    0    0  0.74188175080E+02 -0.11079987437E+02  0.47996345969E+02  0.15355067167E+03  0.12509000000E+03 0.  0.
<mgrwt>
<rscale>  2 0.45660834E+03</rscale>
<asrwt>0</asrwt>
<pdfrwt beam="1">  1       21 0.30836730E-01 0.45660834E+03</pdfrwt>
<pdfrwt beam="2">  1       21 0.36554558E-01 0.45660834E+03</pdfrwt>
<totfact> 0.67438041E+04</totfact>
</mgrwt>
</event>
<event>
 6    0  0.1572624E-007  0.4579727E+03  0.7546771E-02  0.1025371E+00
         21   -1    0    0  502  501  0.00000000000E+00  0.00000000000E+00  0.25694802617E+03  0.25694802617E+03  0.00000000000E+00 0. -1.
         21   -1    0    0  501  502 -0.00000000000E+00 -0.00000000000E+00 -0.20406752052E+03  0.20406752052E+03  0.00000000000E+00 0. -1.
      99926    2    1    2    0    0  0.00000000000E+00  0.00000000000E+00  0.52880505653E+02  0.46101554669E+03  0.45797269177E+03 0.  0.
         25    1    3    3    0    0 -0.10083437486E+03  0.28825779244E+02  0.57675828903E+02  0.17312569435E+03  0.12509000000E+03 0.  0.
         25    1    3    3    0    0  0.15478838250E+02  0.63571048718E+01 -0.31662554588E+02  0.13011545903E+03  0.12509000000E+03 0.  0.
         25    1    3    3    0    0  0.85355536612E+02 -0.35182884115E+02  0.26867231338E+02  0.15777439331E+03  0.12509000000E+03 0.  0.
<mgrwt>
<rscale>  2 0.45797269E+03</rscale>
<asrwt>0</asrwt>
<pdfrwt beam="1">  1       21 0.37786474E-01 0.45797269E+03</pdfrwt>
<pdfrwt beam="2">  1       21 0.30009930E-01 0.45797269E+03</pdfrwt>
<totfact> 0.66515605E+04</totfact>
</mgrwt>
</event>
<event>
 6    0  0.1572624E-007  0.4862766E+03  0.7546771E-02  0.1017424E+00
         21   -1    0    0  502  501  0.00000000000E+00  0.00000000000E+00  0.15283279873E+04  0.15283279873E+04  0.00000000000E+00 0.  1.
         21   -1    0    0  501  502 -0.00000000000E+00 -0.00000000000E+00 -0.38680332578E+02  0.38680332578E+02  0.00000000000E+00 0.  1.
      99926    2    1    2    0    0  0.00000000000E+00 -0.35527136788E-14  0.14896476547E+04  0.15670083199E+04  0.48627660786E+03 0.  0.
         25    1    3    3    0    0  0.11556872988E+02  0.81176837778E+02  0.50251309090E+03  0.52429968046E+03  0.12509000000E+03 0.  0.
         25    1    3    3    0    0 -0.26536856097E+01 -0.52134575659E+02  0.17975645877E+03  0.22513317968E+03  0.12509000000E+03 0.  0.
         25    1    3    3    0    0 -0.89031873784E+01 -0.29042262120E+02  0.80737810508E+03  0.81757545975E+03  0.12509000000E+03 0.  0.
<mgrwt>
<rscale>  2 0.48627661E+03</rscale>
<asrwt>0</asrwt>
<pdfrwt beam="1">  1       21 0.22475408E+00 0.48627661E+03</pdfrwt>
<pdfrwt beam="2">  1       21 0.56882852E-02 0.48627661E+03</pdfrwt>
<totfact> 0.17524732E+04</totfact>
</mgrwt>
</event>
<event>
 6    0  0.1572624E-007  0.4616976E+03  0.7546771E-02  0.1024290E+00
         21   -1    0    0  502  501  0.00000000000E+00  0.00000000000E+00  0.11924209812E+04  0.11924209812E+04  0.00000000000E+00 0. -1.
         21   -1    0    0  501  502 -0.00000000000E+00 -0.00000000000E+00 -0.44691569317E+02  0.44691569317E+02  0.00000000000E+00 0. -1.
      99926    2    1    2    0    0  0.71054273576E-14 -0.71054273576E-14  0.11477294119E+04  0.12371125505E+04  0.46169758473E+03 0.  0.
         25    1    3    3    0    0 -0.97008573737E+02  0.10940084612E+02  0.29697691078E+03  0.33670928480E+03  0.12509000000E+03 0.  0.
         25    1    3    3    0    0  0.62112190225E+02  0.50585191479E+02  0.49219612206E+03  0.51412188871E+03  0.12509000000E+03 0.  0.
         25    1    3    3    0    0  0.34896383512E+02 -0.61525276091E+02  0.35855637902E+03  0.38628137700E+03  0.12509000000E+03 0.  0.
<mgrwt>
<rscale>  2 0.46169758E+03</rscale>
<asrwt>0</asrwt>
<pdfrwt beam="1">  1       21 0.17535601E+00 0.46169758E+03</pdfrwt>
<pdfrwt beam="2">  1       21 0.65722904E-02 0.46169758E+03</pdfrwt>
<totfact> 0.29432271E+04</totfact>
</mgrwt>
</event>
<event>
 6    0  0.1572624E-007  0.4452097E+03  0.7546771E-02  0.1029160E+00
         21   -1    0    0  502  501  0.00000000000E+00  0.00000000000E+00  0.13812182780E+03  0.13812182780E+03  0.00000000000E+00 0. -1.
         21   -1    0    0  501  502 -0.00000000000E+00 -0.00000000000E+00 -0.35876241125E+03  0.35876241125E+03  0.00000000000E+00 0. -1.
      99926    2    1    2    0    0 -0.71054273576E-14  0.17763568394E-14 -0.22064058344E+03  0.49688423905E+03  0.44520970335E+03 0.  0.
         25    1    3    3    0    0 -0.51609162209E+02 -0.74473904662E+02 -0.71239496892E+02  0.17009539123E+03  0.12509000000E+03 0.  0.
         25    1    3    3    0    0 -0.21243558027E+02  0.28084155700E+01 -0.45954079068E+02  0.13497578093E+03  0.12509000000E+03 0.  0.
         25    1    3    3    0    0  0.72852720236E+02  0.71665489092E+02 -0.10344700748E+03  0.19181306689E+03  0.12509000000E+03 0.  0.
<mgrwt>
<rscale>  2 0.44520970E+03</rscale>
<asrwt>0</asrwt>
<pdfrwt beam="1">  1       21 0.20312033E-01 0.44520970E+03</pdfrwt>
<pdfrwt beam="2">  1       21 0.52759179E-01 0.44520970E+03</pdfrwt>
<totfact> 0.70837009E+04</totfact>
</mgrwt>
</event>
<event>
 6    0  0.1572624E-007  0.4526073E+03  0.7546771E-02  0.1026947E+00
         21   -1    0    0  502  501  0.00000000000E+00  0.00000000000E+00  0.19524507976E+03  0.19524507976E+03  0.00000000000E+00 0.  1.
         21   -1    0    0  501  502 -0.00000000000E+00 -0.00000000000E+00 -0.26230290584E+03  0.26230290584E+03  0.00000000000E+00 0.  1.
      99926    2    1    2    0    0  0.00000000000E+00  0.17763568394E-14 -0.67057826087E+02  0.45754798560E+03  0.45260734316E+03 0.  0.
         25    1    3    3    0    0  0.22878463709E+02 -0.10125233656E+02  0.49381044891E+02  0.13679159387E+03  0.12509000000E+03 0.  0.
         25    1    3    3    0    0 -0.89459323907E+02  0.22871261452E+02 -0.74634594104E+02  0.17246418750E+03  0.12509000000E+03 0.  0.
         25    1    3    3    0    0  0.66580860198E+02 -0.12746027796E+02 -0.41804276874E+02  0.14829220423E+03  0.12509000000E+03 0.  0.
<mgrwt>
<rscale>  2 0.45260734E+03</rscale>
<asrwt>0</asrwt>
<pdfrwt beam="1">  1       21 0.28712512E-01 0.45260734E+03</pdfrwt>
<pdfrwt beam="2">  1       21 0.38573956E-01 0.45260734E+03</pdfrwt>
<totfact> 0.69679710E+04</totfact>
</mgrwt>
</event>
<event>
 6    0  0.1572624E-007  0.4768722E+03  0.7546771E-02  0.1019998E+00
         21   -1    0    0  502  501  0.00000000000E+00  0.00000000000E+00  0.42651463052E+03  0.42651463052E+03  0.00000000000E+00 0. -1.
         21   -1    0    0  501  502 -0.00000000000E+00 -0.00000000000E+00 -0.13329386749E+03  0.13329386749E+03  0.00000000000E+00 0. -1.
      99926    2    1    2    0    0  0.00000000000E+00  0.35527136788E-14  0.29322076302E+03  0.55980849801E+03  0.47687224555E+03 0.  0.
         25    1    3    3    0    0 -0.55260923066E+02  0.21026820050E+02  0.11131219130E+03  0.17757761349E+03  0.12509000000E+03 0.  0.
         25    1    3    3    0    0  0.23114815736E+02  0.58760430556E+02 -0.64959401096E+01  0.14027397565E+03  0.12509000000E+03 0.  0.
         25    1    3    3    0    0  0.32146107330E+02 -0.79787250607E+02  0.18840451184E+03  0.24195690888E+03  0.12509000000E+03 0.  0.
<mgrwt>
<rscale>  2 0.47687225E+03</rscale>
<asrwt>0</asrwt>
<pdfrwt beam="1">  1       21 0.62722739E-01 0.47687225E+03</pdfrwt>
<pdfrwt beam="2">  1       21 0.19602039E-01 0.47687225E+03</pdfrwt>
<totfact> 0.51679481E+04</totfact>
</mgrwt>
</event>
<event>
 6    0  0.1572624E-007  0.4519572E+03  0.7546771E-02  0.1027140E+00
         21   -1    0    0  502  501  0.00000000000E+00  0.00000000000E+00  0.37704465418E+02  0.37704465418E+02  0.00000000000E+00 0.  1.
         21   -1    0    0  501  502 -0.00000000000E+00 -0.00000000000E+00 -0.13543841077E+04  0.13543841077E+04  0.00000000000E+00 0.  1.
      99926    2    1    2    0    0  0.00000000000E+00  0.00000000000E+00 -0.13166796423E+04  0.13920885731E+04  0.45195720484E+03 0.  0.
         25    1    3    3    0    0 -0.25280454241E+02  0.12009978434E+02 -0.26140569818E+03  0.29114221283E+03  0.12509000000E+03 0.  0.
         25    1    3    3    0    0 -0.27060305276E+02  0.58697645778E+02 -0.70218628121E+03  0.71616391654E+03  0.12509000000E+03 0.  0.
         25    1    3    3    0    0  0.52340759517E+02 -0.70707624212E+02 -0.35308766288E+03  0.38478244373E+03  0.12509000000E+03 0.  0.
<mgrwt>
<rscale>  2 0.45195720E+03</rscale>
<asrwt>0</asrwt>
<pdfrwt beam="1">  1       21 0.55447748E-02 0.45195720E+03</pdfrwt>
<pdfrwt beam="2">  1       21 0.19917412E+00 0.45195720E+03</pdfrwt>
<totfact> 0.27180677E+04</totfact>
</mgrwt>
</event>
<event>
 6    0  0.1572624E-007  0.4560014E+03  0.7546771E-02  0.1025947E+00
         21   -1    0    0  502  501  0.00000000000E+00  0.00000000000E+00  0.65510536025E+02  0.65510536025E+02  0.00000000000E+00 0. -1.
         21   -1    0    0  501  502 -0.00000000000E+00 -0.00000000000E+00 -0.79352620987E+03  0.79352620987E+03  0.00000000000E+00 0. -1.
      99926    2    1    2    0    0 -0.71054273576E-14  0.71054273576E-14 -0.72801567385E+03  0.85903674590E+03  0.45600143578E+03 0.  0.
         25    1    3    3    0    0 -0.85251694842E+02 -0.14256445780E+02 -0.31251504783E+03  0.34754030117E+03  0.12509000000E+03 0.  0.
         25    1    3    3    0    0  0.33031217730E+02 -0.57119444131E+02 -0.15960172360E+03  0.21324612662E+03  0.12509000000E+03 0.  0.
         25    1    3    3    0    0  0.52220477112E+02  0.71375889911E+02 -0.25589890242E+03  0.29825031811E+03  0.12509000000E+03 0.  0.
<mgrwt>
<rscale>  2 0.45600144E+03</rscale>
<asrwt>0</asrwt>
<pdfrwt beam="1">  1       21 0.96339022E-02 0.45600144E+03</pdfrwt>
<pdfrwt beam="2">  1       21 0.11669503E+00 0.45600144E+03</pdfrwt>
<totfact> 0.44685735E+04</totfact>
</mgrwt>
</event>
<event>
 6    0  0.1572624E-007  0.4441722E+03  0.7546771E-02  0.1029474E+00
         21   -1    0    0  502  501  0.00000000000E+00  0.00000000000E+00  0.84961230145E+02  0.84961230145E+02  0.00000000000E+00 0.  1.
         21   -1    0    0  501  502 -0.00000000000E+00 -0.00000000000E+00 -0.58052632227E+03  0.58052632227E+03  0.00000000000E+00 0.  1.
      99926    2    1    2    0    0  0.00000000000E+00  0.00000000000E+00 -0.49556509213E+03  0.66548755242E+03  0.44417217595E+03 0.  0.
         25    1    3    3    0    0  0.17325565342E+02 -0.38207342040E+02 -0.29962687907E+03  0.32738929573E+03  0.12509000000E+03 0.  0.
         25    1    3    3    0    0  0.11476652607E+02  0.44125976266E+02 -0.46539966819E+02  0.14104003668E+03  0.12509000000E+03 0.  0.
         25    1    3    3    0    0 -0.28802217949E+02 -0.59186342258E+01 -0.14939824624E+03  0.19705822000E+03  0.12509000000E+03 0.  0.
<mgrwt>
<rscale>  2 0.44417218E+03</rscale>
<asrwt>0</asrwt>
<pdfrwt beam="1">  1       21 0.12494299E-01 0.44417218E+03</pdfrwt>
<pdfrwt beam="2">  1       21 0.85371518E-01 0.44417218E+03</pdfrwt>
<totfact> 0.59754404E+04</totfact>
</mgrwt>
</event>
<event>
 6    0  0.1572624E-007  0.4521800E+03  0.7546771E-02  0.1027074E+00
         21   -1    0    0  502  501  0.00000000000E+00  0.00000000000E+00  0.35420154891E+03  0.35420154891E+03  0.00000000000E+00 0.  1.
         21   -1    0    0  501  502 -0.00000000000E+00 -0.00000000000E+00 -0.14431523851E+03  0.14431523851E+03  0.00000000000E+00 0.  1.
      99926    2    1    2    0    0  0.00000000000E+00 -0.35527136788E-14  0.20988631041E+03  0.49851678742E+03  0.45217996864E+03 0.  0.
         25    1    3    3    0    0  0.97483134495E+01  0.21592315675E+02 -0.11379828997E+02  0.12782122797E+03  0.12509000000E+03 0.  0.
         25    1    3    3    0    0 -0.83097721885E+02 -0.23093278292E+02  0.10291887518E+03  0.18351657651E+03  0.12509000000E+03 0.  0.
         25    1    3    3    0    0  0.73349408435E+02  0.15009626178E+01  0.11834726422E+03  0.18717898294E+03  0.12509000000E+03 0.  0.
<mgrwt>
<rscale>  2 0.45217997E+03</rscale>
<asrwt>0</asrwt>
<pdfrwt beam="1">  1       21 0.52088463E-01 0.45217997E+03</pdfrwt>
<pdfrwt beam="2">  1       21 0.21222829E-01 0.45217997E+03</pdfrwt>
<totfact> 0.66859174E+04</totfact>
</mgrwt>
</event>
<event>
 6    0  0.1572624E-007  0.4696684E+03  0.7546771E-02  0.1022014E+00
         21   -1    0    0  502  501  0.00000000000E+00  0.00000000000E+00  0.28537950882E+04  0.28537950882E+04  0.00000000000E+00 0.  1.
         21   -1    0    0  501  502 -0.00000000000E+00 -0.00000000000E+00 -0.19324127983E+02  0.19324127983E+02  0.00000000000E+00 0.  1.
      99926    2    1    2    0    0 -0.71054273576E-14 -0.71054273576E-14  0.28344709602E+04  0.28731192162E+04  0.46966840014E+03 0.  0.
         25    1    3    3    0    0  0.44306325635E+02 -0.46608653886E+01  0.76437146202E+03  0.77581957581E+03  0.12509000000E+03 0.  0.
         25    1    3    3    0    0 -0.16363668135E+02  0.84894929319E+02  0.14927956347E+04  0.15005203210E+04  0.12509000000E+03 0.  0.
         25    1    3    3    0    0 -0.27942657500E+02 -0.80234063930E+02  0.57730386349E+03  0.59677931936E+03  0.12509000000E+03 0.  0.
<mgrwt>
<rscale>  2 0.46966840E+03</rscale>
<asrwt>0</asrwt>
<pdfrwt beam="1">  1       21 0.41967546E+00 0.46966840E+03</pdfrwt>
<pdfrwt beam="2">  1       21 0.28417855E-02 0.46966840E+03</pdfrwt>
<totfact> 0.35905384E+03</totfact>
</mgrwt>
</event>
<event>
 6    0  0.1572624E-007  0.4577927E+03  0.7546771E-02  0.1025423E+00
         21   -1    0    0  502  501  0.00000000000E+00  0.00000000000E+00  0.12038453448E+03  0.12038453448E+03  0.00000000000E+00 0.  1.
         21   -1    0    0  501  502 -0.00000000000E+00 -0.00000000000E+00 -0.43521814158E+03  0.43521814158E+03  0.00000000000E+00 0.  1.
      99926    2    1    2    0    0  0.00000000000E+00 -0.71054273576E-14 -0.31483360710E+03  0.55560267607E+03  0.45779267523E+03 0.  0.
         25    1    3    3    0    0 -0.74824152370E+02  0.13850527759E+02 -0.16215378308E+03  0.21847619633E+03  0.12509000000E+03 0.  0.
         25    1    3    3    0    0  0.42699826477E+02  0.50732881018E+02 -0.23772359313E+02  0.14356090542E+03  0.12509000000E+03 0.  0.
         25    1    3    3    0    0  0.32124325893E+02 -0.64583408777E+02 -0.12890746471E+03  0.19356557432E+03  0.12509000000E+03 0.  0.
<mgrwt>
<rscale>  2 0.45779268E+03</rscale>
<asrwt>0</asrwt>
<pdfrwt beam="1">  1       21 0.17703608E-01 0.45779268E+03</pdfrwt>
<pdfrwt beam="2">  1       21 0.64002668E-01 0.45779268E+03</pdfrwt>
<totfact> 0.60157711E+04</totfact>
</mgrwt>
</event>
<event>
 6    0  0.1572624E-007  0.4531443E+03  0.7546771E-02  0.1026788E+00
         21   -1    0    0  502  501  0.00000000000E+00  0.00000000000E+00  0.37182387188E+02  0.37182387188E+02  0.00000000000E+00 0.  1.
         21   -1    0    0  501  502 -0.00000000000E+00 -0.00000000000E+00 -0.13806254197E+04  0.13806254197E+04  0.00000000000E+00 0.  1.
      99926    2    1    2    0    0  0.00000000000E+00  0.00000000000E+00 -0.13434430325E+04  0.14178078069E+04  0.45314434308E+03 0.  0.
         25    1    3    3    0    0 -0.85111815248E+02  0.72833427952E+02 -0.56159205022E+03  0.58615856924E+03  0.12509000000E+03 0.  0.
         25    1    3    3    0    0  0.34841813316E+02 -0.63994719291E+02 -0.33812513761E+03  0.36781162684E+03  0.12509000000E+03 0.  0.
         25    1    3    3    0    0  0.50270001932E+02 -0.88387086611E+01 -0.44372584468E+03  0.46383761081E+03  0.12509000000E+03 0.  0.
<mgrwt>
<rscale>  2 0.45314434E+03</rscale>
<asrwt>0</asrwt>
<pdfrwt beam="1">  1       21 0.54679984E-02 0.45314434E+03</pdfrwt>
<pdfrwt beam="2">  1       21 0.20303314E+00 0.45314434E+03</pdfrwt>
<totfact> 0.26237609E+04</totfact>
</mgrwt>
</event>
<event>
 6    0  0.1572624E-007  0.4508112E+03  0.7546771E-02  0.1027480E+00
         21   -1    0    0  502  501  0.00000000000E+00  0.00000000000E+00  0.26758463773E+03  0.26758463773E+03  0.00000000000E+00 0.  1.
         21   -1    0    0  501  502 -0.00000000000E+00 -0.00000000000E+00 -0.18987522869E+03  0.18987522869E+03  0.00000000000E+00 0.  1.
      99926    2    1    2    0    0  0.35527136788E-14  0.71054273576E-14  0.77709409036E+02  0.45745986642E+03  0.45081124335E+03 0.  0.
         25    1    3    3    0    0  0.49957035242E+02  0.52452635219E+02  0.76967072519E+02  0.16376331294E+03  0.12509000000E+03 0.  0.
         25    1    3    3    0    0 -0.44783430561E+02 -0.88026399147E+02  0.24924426755E+02  0.16131626622E+03  0.12509000000E+03 0.  0.
         25    1    3    3    0    0 -0.51736046811E+01  0.35573763929E+02 -0.24182090238E+02  0.13238028725E+03  0.12509000000E+03 0.  0.
<mgrwt>
<rscale>  2 0.45081124E+03</rscale>
<asrwt>0</asrwt>
<pdfrwt beam="1">  1       21 0.39350682E-01 0.45081124E+03</pdfrwt>
<pdfrwt beam="2">  1       21 0.27922828E-01 0.45081124E+03</pdfrwt>
<totfact> 0.70698113E+04</totfact>
</mgrwt>
</event>
<event>
 6    0  0.1572624E-007  0.4364669E+03  0.7546771E-02  0.1031836E+00
         21   -1    0    0  502  501  0.00000000000E+00  0.00000000000E+00  0.40163521833E+02  0.40163521833E+02  0.00000000000E+00 0. -1.
         21   -1    0    0  501  502 -0.00000000000E+00 -0.00000000000E+00 -0.11857983677E+04  0.11857983677E+04  0.00000000000E+00 0. -1.
      99926    2    1    2    0    0 -0.17763568394E-14 -0.71054273576E-14 -0.11456348458E+04  0.12259618895E+04  0.43646689968E+03 0.  0.
         25    1    3    3    0    0  0.52982421314E+02  0.30395461396E+02 -0.53263391242E+03  0.55052467138E+03  0.12509000000E+03 0.  0.
         25    1    3    3    0    0 -0.46583042886E+02 -0.64225503688E+02 -0.25841005325E+03  0.29785593653E+03  0.12509000000E+03 0.  0.
         25    1    3    3    0    0 -0.63993784287E+01  0.33830042292E+02 -0.35459088017E+03  0.37758128158E+03  0.12509000000E+03 0.  0.
<mgrwt>
<rscale>  2 0.43646690E+03</rscale>
<asrwt>0</asrwt>
<pdfrwt beam="1">  1       21 0.59063998E-02 0.43646690E+03</pdfrwt>
<pdfrwt beam="2">  1       21 0.17438213E+00 0.43646690E+03</pdfrwt>
<totfact> 0.36304579E+04</totfact>
</mgrwt>
</event>
<event>
 6    0  0.1572624E-007  0.4561769E+03  0.7546771E-02  0.1025896E+00
         21   -1    0    0  502  501  0.00000000000E+00  0.00000000000E+00  0.11775442727E+03  0.11775442727E+03  0.00000000000E+00 0. -1.
         21   -1    0    0  501  502 -0.00000000000E+00 -0.00000000000E+00 -0.44180361038E+03  0.44180361038E+03  0.00000000000E+00 0. -1.
      99926    2    1    2    0    0  0.00000000000E+00  0.13322676296E-14 -0.32404918312E+03  0.55955803765E+03  0.45617685651E+03 0.  0.
         25    1    3    3    0    0 -0.20053879249E+02  0.47176820728E+02 -0.30210246435E+01  0.13521998808E+03  0.12509000000E+03 0.  0.
         25    1    3    3    0    0  0.42029087578E+02 -0.21879962972E+01 -0.10042894600E+03  0.16584544861E+03  0.12509000000E+03 0.  0.
         25    1    3    3    0    0 -0.21975208328E+02 -0.44988824431E+02 -0.22059921247E+03  0.25849260095E+03  0.12509000000E+03 0.  0.
<mgrwt>
<rscale>  2 0.45617686E+03</rscale>
<asrwt>0</asrwt>
<pdfrwt beam="1">  1       21 0.17316828E-01 0.45617686E+03</pdfrwt>
<pdfrwt beam="2">  1       21 0.64971119E-01 0.45617686E+03</pdfrwt>
<totfact> 0.60672522E+04</totfact>
</mgrwt>
</event>
<event>
 6    0  0.1572624E-007  0.4537756E+03  0.7546771E-02  0.1026602E+00
         21   -1    0    0  502  501  0.00000000000E+00  0.00000000000E+00  0.79437416611E+03  0.79437416611E+03  0.00000000000E+00 0. -1.
         21   -1    0    0  501  502 -0.00000000000E+00 -0.00000000000E+00 -0.64803308352E+02  0.64803308352E+02  0.00000000000E+00 0. -1.
      99926    2    1    2    0    0  0.00000000000E+00  0.00000000000E+00  0.72957085776E+03  0.85917747446E+03  0.45377560108E+03 0.  0.
         25    1    3    3    0    0 -0.72253521358E+02  0.40452316346E+02  0.13008647562E+03  0.19856223328E+03  0.12509000000E+03 0.  0.
         25    1    3    3    0    0  0.30067125887E+02  0.18894166081E+02  0.23750656919E+03  0.27077278312E+03  0.12509000000E+03 0.  0.
         25    1    3    3    0    0  0.42186395471E+02 -0.59346482427E+02  0.36197781295E+03  0.38984245806E+03  0.12509000000E+03 0.  0.
<mgrwt>
<rscale>  2 0.45377560E+03</rscale>
<asrwt>0</asrwt>
<pdfrwt beam="1">  1       21 0.11681972E+00 0.45377560E+03</pdfrwt>
<pdfrwt beam="2">  1       21 0.95298987E-02 0.45377560E+03</pdfrwt>
<totfact> 0.45466640E+04</totfact>
</mgrwt>
</event>
<event>
 6    0  0.1572624E-007  0.4563278E+03  0.7546771E-02  0.1025852E+00
         21   -1    0    0  502  501  0.00000000000E+00  0.00000000000E+00  0.43132007147E+02  0.43132007147E+02  0.00000000000E+00 0. -1.
         21   -1    0    0  501  502 -0.00000000000E+00 -0.00000000000E+00 -0.12069638694E+04  0.12069638694E+04  0.00000000000E+00 0. -1.
      99926    2    1    2    0    0 -0.17763568394E-14 -0.17763568394E-14 -0.11638318622E+04  0.12500958765E+04  0.45632783935E+03 0.  0.
         25    1    3    3    0    0  0.11506632161E+02 -0.36089921237E+01 -0.30022194420E+03  0.32546297990E+03  0.12509000000E+03 0.  0.
         25    1    3    3    0    0 -0.43676967313E+02 -0.28972384899E+02 -0.16572005783E+03  0.21414416225E+03  0.12509000000E+03 0.  0.
         25    1    3    3    0    0  0.32170335152E+02  0.32581377022E+02 -0.69788986021E+03  0.71048873438E+03  0.12509000000E+03 0.  0.
<mgrwt>
<rscale>  2 0.45632784E+03</rscale>
<asrwt>0</asrwt>
<pdfrwt beam="1">  1       21 0.63429420E-02 0.45632784E+03</pdfrwt>
<pdfrwt beam="2">  1       21 0.17749469E+00 0.45632784E+03</pdfrwt>
<totfact> 0.30284888E+04</totfact>
</mgrwt>
</event>
<event>
 6    0  0.1572624E-007  0.4591579E+03  0.7546771E-02  0.1025026E+00
         21   -1    0    0  502  501  0.00000000000E+00  0.00000000000E+00  0.43541872929E+03  0.43541872929E+03  0.00000000000E+00 0.  1.
         21   -1    0    0  501  502 -0.00000000000E+00 -0.00000000000E+00 -0.12104783111E+03  0.12104783111E+03  0.00000000000E+00 0.  1.
      99926    2    1    2    0    0  0.00000000000E+00  0.00000000000E+00  0.31437089818E+03  0.55646656039E+03  0.45915789355E+03 0.  0.
         25    1    3    3    0    0  0.81567929599E+02 -0.11289949166E+02  0.93267631585E+02  0.17642887885E+03  0.12509000000E+03 0.  0.
         25    1    3    3    0    0 -0.64002032656E+02 -0.67797927622E+02  0.14367224476E+03  0.21208970081E+03  0.12509000000E+03 0.  0.
         25    1    3    3    0    0 -0.17565896944E+02  0.79087876788E+02  0.77431021836E+02  0.16794798073E+03  0.12509000000E+03 0.  0.
<mgrwt>
<rscale>  2 0.45915789E+03</rscale>
<asrwt>0</asrwt>
<pdfrwt beam="1">  1       21 0.64032165E-01 0.45915789E+03</pdfrwt>
<pdfrwt beam="2">  1       21 0.17801152E-01 0.45915789E+03</pdfrwt>
<totfact> 0.59461158E+04</totfact>
</mgrwt>
</event>
<event>
 6    0  0.1572624E-007  0.4509222E+03  0.7546771E-02  0.1027447E+00
         21   -1    0    0  502  501  0.00000000000E+00  0.00000000000E+00  0.35084164753E+02  0.35084164753E+02  0.00000000000E+00 0. -1.
         21   -1    0    0  501  502 -0.00000000000E+00 -0.00000000000E+00 -0.14488789457E+04  0.14488789457E+04  0.00000000000E+00 0. -1.
      99926    2    1    2    0    0 -0.88817841970E-15  0.00000000000E+00 -0.14137947809E+04  0.14839631104E+04  0.45092220010E+03 0.  0.
         25    1    3    3    0    0 -0.36940313704E+01 -0.47706016770E+02 -0.44345405899E+03  0.46323700245E+03  0.12509000000E+03 0.  0.
         25    1    3    3    0    0  0.83159463191E+02 -0.11628436116E+02 -0.36933862006E+03  0.39888499748E+03  0.12509000000E+03 0.  0.
         25    1    3    3    0    0 -0.79465431820E+02  0.59334452887E+02 -0.60100210186E+03  0.62184111049E+03  0.12509000000E+03 0.  0.
<mgrwt>
<rscale>  2 0.45092220E+03</rscale>
<asrwt>0</asrwt>
<pdfrwt beam="1">  1       21 0.51594354E-02 0.45092220E+03</pdfrwt>
<pdfrwt beam="2">  1       21 0.21307046E+00 0.45092220E+03</pdfrwt>
<totfact> 0.24956095E+04</totfact>
</mgrwt>
</event>
<event>
 6    0  0.1572624E-007  0.4548233E+03  0.7546771E-02  0.1026293E+00
         21   -1    0    0  502  501  0.00000000000E+00  0.00000000000E+00  0.48351516832E+03  0.48351516832E+03  0.00000000000E+00 0.  1.
         21   -1    0    0  501  502 -0.00000000000E+00 -0.00000000000E+00 -0.10695849059E+03  0.10695849059E+03  0.00000000000E+00 0.  1.
      99926    2    1    2    0    0  0.71054273576E-14  0.00000000000E+00  0.37655667772E+03  0.59047365891E+03  0.45482327373E+03 0.  0.
         25    1    3    3    0    0 -0.48861460807E+02 -0.49275410785E+02  0.59433497710E+02  0.15490434858E+03  0.12509000000E+03 0.  0.
         25    1    3    3    0    0  0.95341223315E+02  0.15457452469E+02  0.19939296598E+03  0.25442866325E+03  0.12509000000E+03 0.  0.
         25    1    3    3    0    0 -0.46479762508E+02  0.33817958316E+02  0.11773021404E+03  0.18114064708E+03  0.12509000000E+03 0.  0.
<mgrwt>
<rscale>  2 0.45482327E+03</rscale>
<asrwt>0</asrwt>
<pdfrwt beam="1">  1       21 0.71105171E-01 0.45482327E+03</pdfrwt>
<pdfrwt beam="2">  1       21 0.15729190E-01 0.45482327E+03</pdfrwt>
<totfact> 0.59351357E+04</totfact>
</mgrwt>
</event>
<event>
 6    0  0.1572624E-007  0.4563824E+03  0.7546771E-02  0.1025836E+00
         21   -1    0    0  502  501  0.00000000000E+00  0.00000000000E+00  0.10735254792E+04  0.10735254792E+04  0.00000000000E+00 0. -1.
         21   -1    0    0  501  502 -0.00000000000E+00 -0.00000000000E+00 -0.48504873669E+02  0.48504873669E+02  0.00000000000E+00 0. -1.
      99926    2    1    2    0    0  0.00000000000E+00 -0.71054273576E-14  0.10250206055E+04  0.11220303528E+04  0.45638237366E+03 0.  0.
         25    1    3    3    0    0 -0.96660665955E+01  0.79170130772E+02  0.23307138936E+03  0.27628087717E+03  0.12509000000E+03 0.  0.
         25    1    3    3    0    0  0.73284089323E+02 -0.50069976332E+02  0.42183057581E+03  0.44884975556E+03  0.12509000000E+03 0.  0.
         25    1    3    3    0    0 -0.63618022727E+02 -0.29100154440E+02  0.37011864032E+03  0.39689972010E+03  0.12509000000E+03 0.  0.
<mgrwt>
<rscale>  2 0.45638237E+03</rscale>
<asrwt>0</asrwt>
<pdfrwt beam="1">  1       21 0.15787138E+00 0.45638237E+03</pdfrwt>
<pdfrwt beam="2">  1       21 0.71330703E-02 0.45638237E+03</pdfrwt>
<totfact> 0.34358271E+04</totfact>
</mgrwt>
</event>
<event>
 6    0  0.1572624E-007  0.4528062E+03  0.7546771E-02  0.1026889E+00
         21   -1    0    0  502  501  0.00000000000E+00  0.00000000000E+00  0.17130342826E+03  0.17130342826E+03  0.00000000000E+00 0.  1.
         21   -1    0    0  501  502 -0.00000000000E+00 -0.00000000000E+00 -0.29922552321E+03  0.29922552321E+03  0.00000000000E+00 0.  1.
      99926    2    1    2    0    0  0.00000000000E+00  0.00000000000E+00 -0.12792209495E+03  0.47052895147E+03  0.45280617465E+03 0.  0.
         25    1    3    3    0    0 -0.82960459523E+02  0.42326999182E+02  0.96937969020E+01  0.15625456954E+03  0.12509000000E+03 0.  0.
         25    1    3    3    0    0  0.55852331487E+02  0.22872549216E+02 -0.68999367500E+02  0.15508403288E+03  0.12509000000E+03 0.  0.
         25    1    3    3    0    0  0.27108128035E+02 -0.65199548398E+02 -0.68616524349E+02  0.15919034905E+03  0.12509000000E+03 0.  0.
<mgrwt>
<rscale>  2 0.45280617E+03</rscale>
<asrwt>0</asrwt>
<pdfrwt beam="1">  1       21 0.25191681E-01 0.45280617E+03</pdfrwt>
<pdfrwt beam="2">  1       21 0.44003753E-01 0.45280617E+03</pdfrwt>
<totfact> 0.68582367E+04</totfact>
</mgrwt>
</event>
<event>
 6    0  0.1572624E-007  0.4561408E+03  0.7546771E-02  0.1025906E+00
         21   -1    0    0  502  501  0.00000000000E+00  0.00000000000E+00  0.59431748102E+02  0.59431748102E+02  0.00000000000E+00 0.  1.
         21   -1    0    0  501  502 -0.00000000000E+00 -0.00000000000E+00 -0.87522441103E+03  0.87522441103E+03  0.00000000000E+00 0.  1.
      99926    2    1    2    0    0  0.00000000000E+00  0.00000000000E+00 -0.81579266292E+03  0.93465615913E+03  0.45614084109E+03 0.  0.
         25    1    3    3    0    0  0.52883988572E+02  0.32779954025E+02 -0.31022409702E+03  0.34023189166E+03  0.12509000000E+03 0.  0.
         25    1    3    3    0    0 -0.75878489056E+02  0.51423145231E+02 -0.30787058655E+03  0.34472262927E+03  0.12509000000E+03 0.  0.
         25    1    3    3    0    0  0.22994500484E+02 -0.84203099256E+02 -0.19769797935E+03  0.24970163820E+03  0.12509000000E+03 0.  0.
<mgrwt>
<rscale>  2 0.45614084E+03</rscale>
<asrwt>0</asrwt>
<pdfrwt beam="1">  1       21 0.87399633E-02 0.45614084E+03</pdfrwt>
<pdfrwt beam="2">  1       21 0.12870947E+00 0.45614084E+03</pdfrwt>
<totfact> 0.41397841E+04</totfact>
</mgrwt>
</event>
<event>
 6    0  0.1572624E-007  0.4566261E+03  0.7546771E-02  0.1025764E+00
         21   -1    0    0  502  501  0.00000000000E+00  0.00000000000E+00  0.11710781193E+04  0.11710781193E+04  0.00000000000E+00 0. -1.
         21   -1    0    0  501  502 -0.00000000000E+00 -0.00000000000E+00 -0.44511844315E+02  0.44511844315E+02  0.00000000000E+00 0. -1.
      99926    2    1    2    0    0  0.00000000000E+00  0.00000000000E+00  0.11265662749E+04  0.12155899636E+04  0.45662609179E+03 0.  0.
         25    1    3    3    0    0  0.17197377765E+02  0.23179021065E+02  0.44408395065E+03  0.46226732542E+03  0.12509000000E+03 0.  0.
         25    1    3    3    0    0  0.80023512834E+02 -0.24522504514E+02  0.23955161134E+03  0.28290916993E+03  0.12509000000E+03 0.  0.
         25    1    3    3    0    0 -0.97220890599E+02  0.13434834486E+01  0.44293071295E+03  0.47041346823E+03  0.12509000000E+03 0.  0.
<mgrwt>
<rscale>  2 0.45662609E+03</rscale>
<asrwt>0</asrwt>
<pdfrwt beam="1">  1       21 0.17221735E+00 0.45662609E+03</pdfrwt>
<pdfrwt beam="2">  1       21 0.65458602E-02 0.45662609E+03</pdfrwt>
<totfact> 0.31267807E+04</totfact>
</mgrwt>
</event>
<event>
 6    0  0.1572624E-007  0.4554269E+03  0.7546771E-02  0.1026116E+00
         21   -1    0    0  502  501  0.00000000000E+00  0.00000000000E+00  0.15929450432E+03  0.15929450432E+03  0.00000000000E+00 0.  1.
         21   -1    0    0  501  502 -0.00000000000E+00 -0.00000000000E+00 -0.32551918543E+03  0.32551918543E+03  0.00000000000E+00 0.  1.
      99926    2    1    2    0    0  0.71054273576E-14  0.71054273576E-14 -0.16622468110E+03  0.48481368975E+03  0.45542690869E+03 0.  0.
         25    1    3    3    0    0 -0.59429856973E+02  0.87512158047E+02 -0.59410163119E+02  0.17426233468E+03  0.12509000000E+03 0.  0.
         25    1    3    3    0    0 -0.18274207130E+02 -0.29255246324E+02 -0.24426400395E+02  0.13203777194E+03  0.12509000000E+03 0.  0.
         25    1    3    3    0    0  0.77704064103E+02 -0.58256911723E+02 -0.82388117591E+02  0.17851358313E+03  0.12509000000E+03 0.  0.
<mgrwt>
<rscale>  2 0.45542691E+03</rscale>
<asrwt>0</asrwt>
<pdfrwt beam="1">  1       21 0.23425662E-01 0.45542691E+03</pdfrwt>
<pdfrwt beam="2">  1       21 0.47870468E-01 0.45542691E+03</pdfrwt>
<totfact> 0.66126953E+04</totfact>
</mgrwt>
</event>
<event>
 6    0  0.1572624E-007  0.4798163E+03  0.7546771E-02  0.1019186E+00
         21   -1    0    0  502  501  0.00000000000E+00  0.00000000000E+00  0.29848969305E+03  0.29848969305E+03  0.00000000000E+00 0. -1.
         21   -1    0    0  501  502 -0.00000000000E+00 -0.00000000000E+00 -0.19282379889E+03  0.19282379889E+03  0.00000000000E+00 0. -1.
      99926    2    1    2    0    0 -0.33306690739E-15 -0.35527136788E-14  0.10566589417E+03  0.49131349194E+03  0.47981628377E+03 0.  0.
         25    1    3    3    0    0  0.10046298139E+03 -0.35260237383E+02  0.11519378192E+03  0.20063202751E+03  0.12509000000E+03 0.  0.
         25    1    3    3    0    0 -0.99763946757E+02  0.13074248673E+02  0.15202780137E+02  0.16125263928E+03  0.12509000000E+03 0.  0.
         25    1    3    3    0    0 -0.69903463334E+00  0.22185988710E+02 -0.24730667896E+02  0.12942882515E+03  0.12509000000E+03 0.  0.
<mgrwt>
<rscale>  2 0.47981628E+03</rscale>
<asrwt>0</asrwt>
<pdfrwt beam="1">  1       21 0.43895543E-01 0.47981628E+03</pdfrwt>
<pdfrwt beam="2">  1       21 0.28356441E-01 0.47981628E+03</pdfrwt>
<totfact> 0.54359546E+04</totfact>
</mgrwt>
</event>
<event>
 6    0  0.1572624E-007  0.4378125E+03  0.7546771E-02  0.1031420E+00
         21   -1    0    0  502  501  0.00000000000E+00  0.00000000000E+00  0.10360803891E+04  0.10360803891E+04  0.00000000000E+00 0.  1.
         21   -1    0    0  501  502 -0.00000000000E+00 -0.00000000000E+00 -0.46251192571E+02  0.46251192571E+02  0.00000000000E+00 0.  1.
      99926    2    1    2    0    0  0.37747582837E-14  0.00000000000E+00  0.98982919649E+03  0.10823315816E+04  0.43781253337E+03 0.  0.
         25    1    3    3    0    0 -0.80281589975E+02 -0.34583836648E+02  0.37322993385E+03  0.40322359438E+03  0.12509000000E+03 0.  0.
         25    1    3    3    0    0  0.23209326279E+00  0.23222585959E+02  0.20372171448E+03  0.24018615159E+03  0.12509000000E+03 0.  0.
         25    1    3    3    0    0  0.80049496712E+02  0.11361250690E+02  0.41287754816E+03  0.43892183566E+03  0.12509000000E+03 0.  0.
<mgrwt>
<rscale>  2 0.43781253E+03</rscale>
<asrwt>0</asrwt>
<pdfrwt beam="1">  1       21 0.15236475E+00 0.43781253E+03</pdfrwt>
<pdfrwt beam="2">  1       21 0.68016466E-02 0.43781253E+03</pdfrwt>
<totfact> 0.41391283E+04</totfact>
</mgrwt>
</event>
<event>
 6    0  0.1572624E-007  0.4419781E+03  0.7546771E-02  0.1030142E+00
         21   -1    0    0  502  501  0.00000000000E+00  0.00000000000E+00  0.12271795832E+04  0.12271795832E+04  0.00000000000E+00 0.  1.
         21   -1    0    0  501  502 -0.00000000000E+00 -0.00000000000E+00 -0.39795452091E+02  0.39795452091E+02  0.00000000000E+00 0.  1.
      99926    2    1    2    0    0 -0.71054273576E-14  0.00000000000E+00  0.11873841311E+04  0.12669750353E+04  0.44197812756E+03 0.  0.
         25    1    3    3    0    0 -0.49740213142E+02 -0.17607459793E+02  0.38126938472E+03  0.40471961068E+03  0.12509000000E+03 0.  0.
         25    1    3    3    0    0  0.32572294966E+02  0.22299410999E+02  0.64132653144E+03  0.65460327387E+03  0.12509000000E+03 0.  0.
         25    1    3    3    0    0  0.17167918177E+02 -0.46919512058E+01  0.16478821493E+03  0.20765215073E+03  0.12509000000E+03 0.  0.
<mgrwt>
<rscale>  2 0.44197813E+03</rscale>
<asrwt>0</asrwt>
<pdfrwt beam="1">  1       21 0.18046756E+00 0.44197813E+03</pdfrwt>
<pdfrwt beam="2">  1       21 0.58522732E-02 0.44197813E+03</pdfrwt>
<totfact> 0.33341009E+04</totfact>
</mgrwt>
</event>
<event>
 6    0  0.1572624E-007  0.4463971E+03  0.7546771E-02  0.1028802E+00
         21   -1    0    0  502  501  0.00000000000E+00  0.00000000000E+00  0.24433309207E+03  0.24433309207E+03  0.00000000000E+00 0.  1.
         21   -1    0    0  501  502 -0.00000000000E+00 -0.00000000000E+00 -0.20389210985E+03  0.20389210985E+03  0.00000000000E+00 0.  1.
      99926    2    1    2    0    0  0.00000000000E+00  0.71054273576E-14  0.40440982220E+02  0.44822520191E+03  0.44639708622E+03 0.  0.
         25    1    3    3    0    0 -0.13836185295E+02 -0.91106379923E+02  0.16827646647E+02  0.15627696656E+03  0.12509000000E+03 0.  0.
         25    1    3    3    0    0 -0.43546480628E+02  0.38675758788E+02 -0.17385939910E+02  0.13907512107E+03  0.12509000000E+03 0.  0.
         25    1    3    3    0    0  0.57382665923E+02  0.52430621136E+02  0.40999275484E+02  0.15287311429E+03  0.12509000000E+03 0.  0.
<mgrwt>
<rscale>  2 0.44639709E+03</rscale>
<asrwt>0</asrwt>
<pdfrwt beam="1">  1       21 0.35931337E-01 0.44639709E+03</pdfrwt>
<pdfrwt beam="2">  1       21 0.29984134E-01 0.44639709E+03</pdfrwt>
<totfact> 0.73995033E+04</totfact>
</mgrwt>
</event>
<event>
 6    0  0.1572624E-007  0.4524493E+03  0.7546771E-02  0.1026994E+00
         21   -1    0    0  502  501  0.00000000000E+00  0.00000000000E+00  0.51193178536E+02  0.51193178536E+02  0.00000000000E+00 0.  1.
         21   -1    0    0  501  502 -0.00000000000E+00 -0.00000000000E+00 -0.99969546642E+03  0.99969546642E+03  0.00000000000E+00 0.  1.
      99926    2    1    2    0    0  0.00000000000E+00  0.10658141036E-13 -0.94850228789E+03  0.10508886450E+04  0.45244928332E+03 0.  0.
         25    1    3    3    0    0 -0.10008204028E+02  0.12961882495E+02 -0.20628400975E+03  0.24180317476E+03  0.12509000000E+03 0.  0.
         25    1    3    3    0    0 -0.17290474076E+02 -0.10288867629E+03 -0.32594303648E+03  0.36437811588E+03  0.12509000000E+03 0.  0.
         25    1    3    3    0    0  0.27298678103E+02  0.89926793794E+02 -0.41627524165E+03  0.44470735431E+03  0.12509000000E+03 0.  0.
<mgrwt>
<rscale>  2 0.45244928E+03</rscale>
<asrwt>0</asrwt>
<pdfrwt beam="1">  1       21 0.75284087E-02 0.45244928E+03</pdfrwt>
<pdfrwt beam="2">  1       21 0.14701404E+00 0.45244928E+03</pdfrwt>
<totfact> 0.37995622E+04</totfact>
</mgrwt>
</event>
<event>
 6    0  0.1572624E-007  0.4570923E+03  0.7546771E-02  0.1025628E+00
         21   -1    0    0  502  501  0.00000000000E+00  0.00000000000E+00  0.37968160877E+03  0.37968160877E+03  0.00000000000E+00 0.  1.
         21   -1    0    0  501  502 -0.00000000000E+00 -0.00000000000E+00 -0.13757142596E+03  0.13757142596E+03  0.00000000000E+00 0.  1.
      99926    2    1    2    0    0 -0.17763568394E-14  0.35527136788E-14  0.24211018281E+03  0.51725303473E+03  0.45709228971E+03 0.  0.
         25    1    3    3    0    0  0.96926125093E+02  0.49089342348E+02  0.68227276719E+02  0.17918400220E+03  0.12509000000E+03 0.  0.
         25    1    3    3    0    0  0.21662637770E+01 -0.19791136856E+02  0.62328912253E+02  0.14116934228E+03  0.12509000000E+03 0.  0.
         25    1    3    3    0    0 -0.99092388870E+02 -0.29298205493E+02  0.11155399383E+03  0.19689969024E+03  0.12509000000E+03 0.  0.
<mgrwt>
<rscale>  2 0.45709229E+03</rscale>
<asrwt>0</asrwt>
<pdfrwt beam="1">  1       21 0.55835531E-01 0.45709229E+03</pdfrwt>
<pdfrwt beam="2">  1       21 0.20231092E-01 0.45709229E+03</pdfrwt>
<totfact> 0.63022008E+04</totfact>
</mgrwt>
</event>
<event>
 6    0  0.1572624E-007  0.4565794E+03  0.7546771E-02  0.1025778E+00
         21   -1    0    0  502  501  0.00000000000E+00  0.00000000000E+00  0.13577466765E+03  0.13577466765E+03  0.00000000000E+00 0.  1.
         21   -1    0    0  501  502 -0.00000000000E+00 -0.00000000000E+00 -0.38384315821E+03  0.38384315821E+03  0.00000000000E+00 0.  1.
      99926    2    1    2    0    0  0.71054273576E-14  0.00000000000E+00 -0.24806849057E+03  0.51961782586E+03  0.45657935668E+03 0.  0.
         25    1    3    3    0    0 -0.25589570123E+02  0.72919936134E+02 -0.17112439243E+03  0.22561739509E+03  0.12509000000E+03 0.  0.
         25    1    3    3    0    0  0.59271470114E+02 -0.67303322490E+02 -0.46819308885E+02  0.16088008010E+03  0.12509000000E+03 0.  0.
         25    1    3    3    0    0 -0.33681899991E+02 -0.56166136442E+01 -0.30124789253E+02  0.13312035067E+03  0.12509000000E+03 0.  0.
<mgrwt>
<rscale>  2 0.45657936E+03</rscale>
<asrwt>0</asrwt>
<pdfrwt beam="1">  1       21 0.19966863E-01 0.45657936E+03</pdfrwt>
<pdfrwt beam="2">  1       21 0.56447522E-01 0.45657936E+03</pdfrwt>
<totfact> 0.63118672E+04</totfact>
</mgrwt>
</event>
<event>
 6    0  0.1572624E-007  0.4685564E+03  0.7546771E-02  0.1022328E+00
         21   -1    0    0  502  501  0.00000000000E+00  0.00000000000E+00  0.52257957262E+02  0.52257957262E+02  0.00000000000E+00 0. -1.
         21   -1    0    0  501  502 -0.00000000000E+00 -0.00000000000E+00 -0.10502952630E+04  0.10502952630E+04  0.00000000000E+00 0. -1.
      99926    2    1    2    0    0 -0.71054273576E-14  0.71054273576E-14 -0.99803730577E+03  0.11025532203E+04  0.46855644257E+03 0.  0.
         25    1    3    3    0    0  0.57315089068E+02 -0.34807037424E+02 -0.51057095983E+03  0.52993090343E+03  0.12509000000E+03 0.  0.
         25    1    3    3    0    0 -0.56664119331E+01  0.66137115641E+02 -0.34831510743E+03  0.37600152719E+03  0.12509000000E+03 0.  0.
         25    1    3    3    0    0 -0.51648677135E+02 -0.31330078217E+02 -0.13915123852E+03  0.19662078967E+03  0.12509000000E+03 0.  0.
<mgrwt>
<rscale>  2 0.46855644E+03</rscale>
<asrwt>0</asrwt>
<pdfrwt beam="1">  1       21 0.76849936E-02 0.46855644E+03</pdfrwt>
<pdfrwt beam="2">  1       21 0.15445519E+00 0.46855644E+03</pdfrwt>
<totfact> 0.31896727E+04</totfact>
</mgrwt>
</event>
<event>
 6    0  0.1572624E-007  0.4453644E+03  0.7546771E-02  0.1029113E+00
         21   -1    0    0  502  501  0.00000000000E+00  0.00000000000E+00  0.14027810263E+03  0.14027810263E+03  0.00000000000E+00 0.  1.
         21   -1    0    0  501  502 -0.00000000000E+00 -0.00000000000E+00 -0.35349332052E+03  0.35349332052E+03  0.00000000000E+00 0.  1.
      99926    2    1    2    0    0  0.00000000000E+00  0.71054273576E-14 -0.21321521790E+03  0.49377142315E+03  0.44536444535E+03 0.  0.
         25    1    3    3    0    0 -0.26415904646E+01 -0.63952730855E+02 -0.16409080251E+03  0.21603293580E+03  0.12509000000E+03 0.  0.
         25    1    3    3    0    0  0.10140371149E+02  0.70737278720E+02 -0.49224277547E+02  0.15224036038E+03  0.12509000000E+03 0.  0.
         25    1    3    3    0    0 -0.74987806844E+01 -0.67845478650E+01  0.99862159914E-01  0.12549812697E+03  0.12509000000E+03 0.  0.
<mgrwt>
<rscale>  2 0.44536445E+03</rscale>
<asrwt>0</asrwt>
<pdfrwt beam="1">  1       21 0.20629132E-01 0.44536445E+03</pdfrwt>
<pdfrwt beam="2">  1       21 0.51984313E-01 0.44536445E+03</pdfrwt>
<totfact> 0.70986714E+04</totfact>
</mgrwt>
</event>
<event>
 6    0  0.1572624E-007  0.4495519E+03  0.7546771E-02  0.1027856E+00
         21   -1    0    0  502  501  0.00000000000E+00  0.00000000000E+00  0.38943781352E+02  0.38943781352E+02  0.00000000000E+00 0.  1.
         21   -1    0    0  501  502 -0.00000000000E+00 -0.00000000000E+00 -0.12973633324E+04  0.12973633324E+04  0.00000000000E+00 0.  1.
      99926    2    1    2    0    0  0.00000000000E+00 -0.58009153037E-14 -0.12584195511E+04  0.13363071138E+04  0.44955192782E+03 0.  0.
         25    1    3    3    0    0  0.50650999465E+02  0.83025499766E+02 -0.57562828925E+03  0.59703784875E+03  0.12509000000E+03 0.  0.
         25    1    3    3    0    0 -0.16179143799E+01 -0.24560216311E+00 -0.32359055708E+03  0.34693087885E+03  0.12509000000E+03 0.  0.
         25    1    3    3    0    0 -0.49033085086E+02 -0.82779897603E+02 -0.35920070476E+03  0.39233838620E+03  0.12509000000E+03 0.  0.
<mgrwt>
<rscale>  2 0.44955193E+03</rscale>
<asrwt>0</asrwt>
<pdfrwt beam="1">  1       21 0.57270274E-02 0.44955193E+03</pdfrwt>
<pdfrwt beam="2">  1       21 0.19078870E+00 0.44955193E+03</pdfrwt>
<totfact> 0.29299900E+04</totfact>
</mgrwt>
</event>
<event>
 6    0  0.1572624E-007  0.4554557E+03  0.7546771E-02  0.1026107E+00
         21   -1    0    0  502  501  0.00000000000E+00  0.00000000000E+00  0.18899216401E+03  0.18899216401E+03  0.00000000000E+00 0.  1.
         21   -1    0    0  501  502 -0.00000000000E+00 -0.00000000000E+00 -0.27440275444E+03  0.27440275444E+03  0.00000000000E+00 0.  1.
      99926    2    1    2    0    0 -0.71054273576E-14  0.00000000000E+00 -0.85410590434E+02  0.46339491845E+03  0.45545568553E+03 0.  0.
         25    1    3    3    0    0  0.59044133705E+02 -0.54484711344E+02  0.12557132972E+02  0.14919779886E+03  0.12509000000E+03 0.  0.
         25    1    3    3    0    0  0.20520283234E+02  0.77179765503E+02 -0.53659286136E+02  0.15781199357E+03  0.12509000000E+03 0.  0.
         25    1    3    3    0    0 -0.79564416938E+02 -0.22695054158E+02 -0.44308437270E+02  0.15638512602E+03  0.12509000000E+03 0.  0.
<mgrwt>
<rscale>  2 0.45545569E+03</rscale>
<asrwt>0</asrwt>
<pdfrwt beam="1">  1       21 0.27792966E-01 0.45545569E+03</pdfrwt>
<pdfrwt beam="2">  1       21 0.40353346E-01 0.45545569E+03</pdfrwt>
<totfact> 0.67683964E+04</totfact>
</mgrwt>
</event>
<event>
 6    0  0.1574255E-007  0.4348804E+03  0.7546771E-02  0.1032329E+00
         21   -1    0    0  502  501  0.00000000000E+00  0.00000000000E+00  0.28352345737E+03  0.28352345737E+03  0.00000000000E+00 0.  1.
         21   -1    0    0  501  502 -0.00000000000E+00 -0.00000000000E+00 -0.16675951687E+03  0.16675951687E+03  0.00000000000E+00 0.  1.
      99926    2    1    2    0    0  0.00000000000E+00  0.62172489379E-14  0.11676394051E+03  0.45028297424E+03  0.43488037331E+03 0.  0.
         25    1    3    3    0    0  0.35183197885E+02  0.71983795872E+02  0.62041506611E+02  0.16098503323E+03  0.12509000000E+03 0.  0.
         25    1    3    3    0    0 -0.32058392750E+02 -0.15496436468E+01 -0.14388800592E+02  0.12994109290E+03  0.12509000000E+03 0.  0.
         25    1    3    3    0    0 -0.31248051351E+01 -0.70434152225E+02  0.69111234490E+02  0.15935684811E+03  0.12509000000E+03 0.  0.
<mgrwt>
<rscale>  2 0.43488037E+03</rscale>
<asrwt>0</asrwt>
<pdfrwt beam="1">  1       21 0.41694626E-01 0.43488037E+03</pdfrwt>
<pdfrwt beam="2">  1       21 0.24523458E-01 0.43488037E+03</pdfrwt>
<totfact> 0.81124953E+04</totfact>
</mgrwt>
</event>
<event>
 6    0  0.1572624E-007  0.4322051E+03  0.7546771E-02  0.1033166E+00
         21   -1    0    0  502  501  0.00000000000E+00  0.00000000000E+00  0.10297453979E+03  0.10297453979E+03  0.00000000000E+00 0.  1.
         21   -1    0    0  501  502 -0.00000000000E+00 -0.00000000000E+00 -0.45351319753E+03  0.45351319753E+03  0.00000000000E+00 0.  1.
      99926    2    1    2    0    0  0.00000000000E+00  0.00000000000E+00 -0.35053865773E+03  0.55648773732E+03  0.43220510319E+03 0.  0.
         25    1    3    3    0    0  0.12483965000E+02 -0.20295911805E+02 -0.11224976046E+03  0.16975067081E+03  0.12509000000E+03 0.  0.
         25    1    3    3    0    0  0.60460820903E+02  0.61603019915E+02 -0.14204698368E+03  0.20802715351E+03  0.12509000000E+03 0.  0.
         25    1    3    3    0    0 -0.72944785903E+02 -0.41307108110E+02 -0.96241913595E+02  0.17870991300E+03  0.12509000000E+03 0.  0.
<mgrwt>
<rscale>  2 0.43220510E+03</rscale>
<asrwt>0</asrwt>
<pdfrwt beam="1">  1       21 0.15143315E-01 0.43220510E+03</pdfrwt>
<pdfrwt beam="2">  1       21 0.66693117E-01 0.43220510E+03</pdfrwt>
<totfact> 0.73888739E+04</totfact>
</mgrwt>
</event>
<event>
 6    0  0.1572624E-007  0.4523984E+03  0.7546771E-02  0.1027009E+00
         21   -1    0    0  502  501  0.00000000000E+00  0.00000000000E+00  0.14421330679E+03  0.14421330679E+03  0.00000000000E+00 0. -1.
         21   -1    0    0  501  502 -0.00000000000E+00 -0.00000000000E+00 -0.35479442129E+03  0.35479442129E+03  0.00000000000E+00 0. -1.
      99926    2    1    2    0    0  0.00000000000E+00 -0.71054273576E-14 -0.21058111450E+03  0.49900772808E+03  0.45239839401E+03 0.  0.
         25    1    3    3    0    0 -0.23553465224E+01  0.68720297228E+02 -0.13783527817E+02  0.14340683612E+03  0.12509000000E+03 0.  0.
         25    1    3    3    0    0 -0.66469476193E+02 -0.31051402465E+02 -0.70264100853E+02  0.16114258540E+03  0.12509000000E+03 0.  0.
         25    1    3    3    0    0  0.68824822715E+02 -0.37668894762E+02 -0.12653348583E+03  0.19445830656E+03  0.12509000000E+03 0.  0.
<mgrwt>
<rscale>  2 0.45239839E+03</rscale>
<asrwt>0</asrwt>
<pdfrwt beam="1">  1       21 0.21207839E-01 0.45239839E+03</pdfrwt>
<pdfrwt beam="2">  1       21 0.52175650E-01 0.45239839E+03</pdfrwt>
<totfact> 0.66707429E+04</totfact>
</mgrwt>
</event>
<event>
 6    0  0.1572624E-007  0.4362324E+03  0.7546771E-02  0.1031909E+00
         21   -1    0    0  502  501  0.00000000000E+00  0.00000000000E+00  0.13253895660E+03  0.13253895660E+03  0.00000000000E+00 0.  1.
         21   -1    0    0  501  502 -0.00000000000E+00 -0.00000000000E+00 -0.35894866756E+03  0.35894866756E+03  0.00000000000E+00 0.  1.
      99926    2    1    2    0    0  0.35527136788E-14  0.71054273576E-14 -0.22640971096E+03  0.49148762417E+03  0.43623242370E+03 0.  0.
         25    1    3    3    0    0 -0.66519943768E+02 -0.64652135234E+01 -0.65317504962E+02  0.15614283992E+03  0.12509000000E+03 0.  0.
         25    1    3    3    0    0  0.72185663795E+01  0.63208450413E+02 -0.49932694056E+02  0.14895703387E+03  0.12509000000E+03 0.  0.
         25    1    3    3    0    0  0.59301377388E+02 -0.56743236890E+02 -0.11115951195E+03  0.18638775037E+03  0.12509000000E+03 0.  0.
<mgrwt>
<rscale>  2 0.43623242E+03</rscale>
<asrwt>0</asrwt>
<pdfrwt beam="1">  1       21 0.19491023E-01 0.43623242E+03</pdfrwt>
<pdfrwt beam="2">  1       21 0.52786568E-01 0.43623242E+03</pdfrwt>
<totfact> 0.76674046E+04</totfact>
</mgrwt>
</event>
<event>
 6    0  0.1572624E-007  0.4524454E+03  0.7546771E-02  0.1026995E+00
         21   -1    0    0  502  501  0.00000000000E+00  0.00000000000E+00  0.94043779862E+03  0.94043779862E+03  0.00000000000E+00 0. -1.
         21   -1    0    0  501  502 -0.00000000000E+00 -0.00000000000E+00 -0.54417957396E+02  0.54417957396E+02  0.00000000000E+00 0. -1.
      99926    2    1    2    0    0  0.00000000000E+00  0.35527136788E-14  0.88601984123E+03  0.99485575602E+03  0.45244537376E+03 0.  0.
         25    1    3    3    0    0  0.23139109849E+02 -0.27740698736E+02  0.37241357262E+03  0.39451786010E+03  0.12509000000E+03 0.  0.
         25    1    3    3    0    0 -0.77887038901E+02 -0.28992078679E+02  0.34383763410E+03  0.37520495489E+03  0.12509000000E+03 0.  0.
         25    1    3    3    0    0  0.54747929051E+02  0.56732777415E+02  0.16976863451E+03  0.22513294102E+03  0.12509000000E+03 0.  0.
<mgrwt>
<rscale>  2 0.45244537E+03</rscale>
<asrwt>0</asrwt>
<pdfrwt beam="1">  1       21 0.13829967E+00 0.45244537E+03</pdfrwt>
<pdfrwt beam="2">  1       21 0.80026414E-02 0.45244537E+03</pdfrwt>
<totfact> 0.40162851E+04</totfact>
</mgrwt>
</event>
<event>
 6    0  0.1572624E-007  0.4551321E+03  0.7546771E-02  0.1026203E+00
         21   -1    0    0  502  501  0.00000000000E+00  0.00000000000E+00  0.20599490040E+04  0.20599490040E+04  0.00000000000E+00 0.  1.
         21   -1    0    0  501  502 -0.00000000000E+00 -0.00000000000E+00 -0.25139608502E+02  0.25139608502E+02  0.00000000000E+00 0.  1.
      99926    2    1    2    0    0  0.00000000000E+00 -0.53290705182E-14  0.20348093955E+04  0.20850886125E+04  0.45513211925E+03 0.  0.
         25    1    3    3    0    0 -0.55926881908E+02  0.74053754695E+02  0.56296036206E+03  0.58410928092E+03  0.12509000000E+03 0.  0.
         25    1    3    3    0    0  0.31892309035E+02  0.64034407666E+01  0.45397790620E+03  0.47201861282E+03  0.12509000000E+03 0.  0.
         25    1    3    3    0    0  0.24034572873E+02 -0.80457195462E+02  0.10178711272E+04  0.10289607187E+04  0.12509000000E+03 0.  0.
<mgrwt>
<rscale>  2 0.45513212E+03</rscale>
<asrwt>0</asrwt>
<pdfrwt beam="1">  1       21 0.30293356E+00 0.45513212E+03</pdfrwt>
<pdfrwt beam="2">  1       21 0.36970026E-02 0.45513212E+03</pdfrwt>
<totfact> 0.12357300E+04</totfact>
</mgrwt>
</event>
<event>
 6    0  0.1572624E-007  0.4577426E+03  0.7546771E-02  0.1025438E+00
         21   -1    0    0  502  501  0.00000000000E+00  0.00000000000E+00  0.91421458089E+02  0.91421458089E+02  0.00000000000E+00 0. -1.
         21   -1    0    0  501  502 -0.00000000000E+00 -0.00000000000E+00 -0.57297340089E+03  0.57297340089E+03  0.00000000000E+00 0. -1.
      99926    2    1    2    0    0  0.00000000000E+00  0.35527136788E-14 -0.48155194280E+03  0.66439485898E+03  0.45774256414E+03 0.  0.
         25    1    3    3    0    0 -0.92984206421E+02  0.62077554459E+02 -0.14397808343E+03  0.22108116614E+03  0.12509000000E+03 0.  0.
         25    1    3    3    0    0  0.11394458396E+02 -0.30801607233E+02 -0.19815403717E+03  0.23662439273E+03  0.12509000000E+03 0.  0.
         25    1    3    3    0    0  0.81589748025E+02 -0.31275947225E+02 -0.13941982220E+03  0.20668930011E+03  0.12509000000E+03 0.  0.
<mgrwt>
<rscale>  2 0.45774256E+03</rscale>
<asrwt>0</asrwt>
<pdfrwt beam="1">  1       21 0.13444332E-01 0.45774256E+03</pdfrwt>
<pdfrwt beam="2">  1       21 0.84260795E-01 0.45774256E+03</pdfrwt>
<totfact> 0.53707994E+04</totfact>
</mgrwt>
</event>
<event>
 6    0  0.1572624E-007  0.4830782E+03  0.7546771E-02  0.1018293E+00
         21   -1    0    0  502  501  0.00000000000E+00  0.00000000000E+00  0.15369996711E+03  0.15369996711E+03  0.00000000000E+00 0.  1.
         21   -1    0    0  501  502 -0.00000000000E+00 -0.00000000000E+00 -0.37957806361E+03  0.37957806361E+03  0.00000000000E+00 0.  1.
      99926    2    1    2    0    0  0.00000000000E+00 -0.14210854715E-13 -0.22587809650E+03  0.53327803072E+03  0.48307819613E+03 0.  0.
         25    1    3    3    0    0 -0.80449031044E+02 -0.11678595972E+03 -0.78944891669E+02  0.20491659524E+03  0.12509000000E+03 0.  0.
         25    1    3    3    0    0  0.52650666870E+02  0.35602357681E+02 -0.87990798498E+02  0.16561856573E+03  0.12509000000E+03 0.  0.
         25    1    3    3    0    0  0.27798364174E+02  0.81183602039E+02 -0.58942406330E+02  0.16274286975E+03  0.12509000000E+03 0.  0.
<mgrwt>
<rscale>  2 0.48307820E+03</rscale>
<asrwt>0</asrwt>
<pdfrwt beam="1">  1       21 0.22602937E-01 0.48307820E+03</pdfrwt>
<pdfrwt beam="2">  1       21 0.55820303E-01 0.48307820E+03</pdfrwt>
<totfact> 0.50715222E+04</totfact>
</mgrwt>
</event>
<event>
 6    0  0.1572624E-007  0.4590859E+03  0.7546771E-02  0.1025047E+00
         21   -1    0    0  502  501  0.00000000000E+00  0.00000000000E+00  0.70843708863E+03  0.70843708863E+03  0.00000000000E+00 0.  1.
         21   -1    0    0  501  502 -0.00000000000E+00 -0.00000000000E+00 -0.74374950362E+02  0.74374950362E+02  0.00000000000E+00 0.  1.
      99926    2    1    2    0    0  0.88817841970E-15  0.14210854715E-13  0.63406213827E+03  0.78281203899E+03  0.45908593227E+03 0.  0.
         25    1    3    3    0    0 -0.31752749558E+02 -0.46092943058E+02  0.20670887231E+03  0.24800980323E+03  0.12509000000E+03 0.  0.
         25    1    3    3    0    0  0.25843899577E+02  0.12006287108E+03  0.25208004590E+03  0.30704211079E+03  0.12509000000E+03 0.  0.
         25    1    3    3    0    0  0.59088499819E+01 -0.73969928023E+02  0.17527322006E+03  0.22776012498E+03  0.12509000000E+03 0.  0.
<mgrwt>
<rscale>  2 0.45908593E+03</rscale>
<asrwt>0</asrwt>
<pdfrwt beam="1">  1       21 0.10418192E+00 0.45908593E+03</pdfrwt>
<pdfrwt beam="2">  1       21 0.10937493E-01 0.45908593E+03</pdfrwt>
<totfact> 0.47079348E+04</totfact>
</mgrwt>
</event>
<event>
 6    0  0.1572624E-007  0.4463962E+03  0.7546771E-02  0.1028802E+00
         21   -1    0    0  502  501  0.00000000000E+00  0.00000000000E+00  0.39886115148E+03  0.39886115148E+03  0.00000000000E+00 0. -1.
         21   -1    0    0  501  502 -0.00000000000E+00 -0.00000000000E+00 -0.12489908433E+03  0.12489908433E+03  0.00000000000E+00 0. -1.
      99926    2    1    2    0    0  0.00000000000E+00  0.00000000000E+00  0.27396206715E+03  0.52376023582E+03  0.44639620337E+03 0.  0.
         25    1    3    3    0    0 -0.68530837442E+02  0.72516410305E+02  0.55401727831E+02  0.16932798053E+03  0.12509000000E+03 0.  0.
         25    1    3    3    0    0  0.71014504497E+02 -0.34994504544E+02  0.12513516643E+03  0.19384012272E+03  0.12509000000E+03 0.  0.
         25    1    3    3    0    0 -0.24836670548E+01 -0.37521905762E+02  0.93425172885E+02  0.16059213257E+03  0.12509000000E+03 0.  0.
<mgrwt>
<rscale>  2 0.44639620E+03</rscale>
<asrwt>0</asrwt>
<pdfrwt beam="1">  1       21 0.58656052E-01 0.44639620E+03</pdfrwt>
<pdfrwt beam="2">  1       21 0.18367512E-01 0.44639620E+03</pdfrwt>
<totfact> 0.68160020E+04</totfact>
</mgrwt>
</event>
<event>
 6    0  0.1572624E-007  0.4469970E+03  0.7546771E-02  0.1028621E+00
         21   -1    0    0  502  501  0.00000000000E+00  0.00000000000E+00  0.16246638735E+03  0.16246638735E+03  0.00000000000E+00 0.  1.
         21   -1    0    0  501  502 -0.00000000000E+00 -0.00000000000E+00 -0.30745788801E+03  0.30745788801E+03  0.00000000000E+00 0.  1.
      99926    2    1    2    0    0  0.17763568394E-14  0.00000000000E+00 -0.14499150066E+03  0.46992427537E+03  0.44699696790E+03 0.  0.
         25    1    3    3    0    0  0.28175541627E+01 -0.31636887566E+02 -0.99815934712E+02  0.16315501889E+03  0.12509000000E+03 0.  0.
         25    1    3    3    0    0  0.14518835506E+02  0.54769263772E+02 -0.97198963232E+02  0.16824272761E+03  0.12509000000E+03 0.  0.
         25    1    3    3    0    0 -0.17336389669E+02 -0.23132376206E+02  0.52023397287E+02  0.13852652887E+03  0.12509000000E+03 0.  0.
<mgrwt>
<rscale>  2 0.44699697E+03</rscale>
<asrwt>0</asrwt>
<pdfrwt beam="1">  1       21 0.23892116E-01 0.44699697E+03</pdfrwt>
<pdfrwt beam="2">  1       21 0.45214395E-01 0.44699697E+03</pdfrwt>
<totfact> 0.71900153E+04</totfact>
</mgrwt>
</event>
<event>
 6    0  0.1572624E-007  0.4520968E+03  0.7546771E-02  0.1027099E+00
         21   -1    0    0  502  501  0.00000000000E+00  0.00000000000E+00  0.85120220383E+02  0.85120220383E+02  0.00000000000E+00 0. -1.
         21   -1    0    0  501  502 -0.00000000000E+00 -0.00000000000E+00 -0.60030258663E+03  0.60030258663E+03  0.00000000000E+00 0. -1.
      99926    2    1    2    0    0  0.17763568394E-14  0.71054273576E-14 -0.51518236625E+03  0.68542280701E+03  0.45209684126E+03 0.  0.
         25    1    3    3    0    0  0.41373004056E+02 -0.95405260361E+02 -0.23566682793E+03  0.28635685963E+03  0.12509000000E+03 0.  0.
         25    1    3    3    0    0 -0.12550733136E+02  0.32321315407E+02 -0.76327413248E+02  0.15058409758E+03  0.12509000000E+03 0.  0.
         25    1    3    3    0    0 -0.28822270920E+02  0.63083944953E+02 -0.20318812507E+03  0.24848184980E+03  0.12509000000E+03 0.  0.
<mgrwt>
<rscale>  2 0.45209684E+03</rscale>
<asrwt>0</asrwt>
<pdfrwt beam="1">  1       21 0.12517679E-01 0.45209684E+03</pdfrwt>
<pdfrwt beam="2">  1       21 0.88279794E-01 0.45209684E+03</pdfrwt>
<totfact> 0.54946944E+04</totfact>
</mgrwt>
</event>
<event>
 6    0  0.1572624E-007  0.4502181E+03  0.7546771E-02  0.1027657E+00
         21   -1    0    0  502  501  0.00000000000E+00  0.00000000000E+00  0.76889071085E+02  0.76889071085E+02  0.00000000000E+00 0.  1.
         21   -1    0    0  501  502 -0.00000000000E+00 -0.00000000000E+00 -0.65905447681E+03  0.65905447681E+03  0.00000000000E+00 0.  1.
      99926    2    1    2    0    0  0.00000000000E+00  0.00000000000E+00 -0.58216540572E+03  0.73594354789E+03  0.45021810944E+03 0.  0.
         25    1    3    3    0    0  0.60374764614E+02 -0.51273780948E+02 -0.18455166247E+03  0.23660291003E+03  0.12509000000E+03 0.  0.
         25    1    3    3    0    0  0.33839825172E+02  0.64757465625E+02 -0.18780936154E+03  0.23718880139E+03  0.12509000000E+03 0.  0.
         25    1    3    3    0    0 -0.94214589785E+02 -0.13483684678E+02 -0.20980438171E+03  0.26215183647E+03  0.12509000000E+03 0.  0.
<mgrwt>
<rscale>  2 0.45021811E+03</rscale>
<asrwt>0</asrwt>
<pdfrwt beam="1">  1       21 0.11307216E-01 0.45021811E+03</pdfrwt>
<pdfrwt beam="2">  1       21 0.96919780E-01 0.45021811E+03</pdfrwt>
<totfact> 0.52957650E+04</totfact>
</mgrwt>
</event>
<event>
 6    0  0.1572624E-007  0.4574468E+03  0.7546771E-02  0.1025524E+00
         21   -1    0    0  502  501  0.00000000000E+00  0.00000000000E+00  0.42249726541E+03  0.42249726541E+03  0.00000000000E+00 0. -1.
         21   -1    0    0  501  502 -0.00000000000E+00 -0.00000000000E+00 -0.12382185914E+03  0.12382185914E+03  0.00000000000E+00 0. -1.
      99926    2    1    2    0    0  0.71054273576E-14  0.00000000000E+00  0.29867540626E+03  0.54631912455E+03  0.45744681390E+03 0.  0.
         25    1    3    3    0    0 -0.33428950145E+02 -0.12921450784E+02  0.10506761467E+03  0.16724583807E+03  0.12509000000E+03 0.  0.
         25    1    3    3    0    0 -0.47921886935E+02 -0.46076637923E+02  0.20662354649E+02  0.14315727299E+03  0.12509000000E+03 0.  0.
         25    1    3    3    0    0  0.81350837080E+02  0.58998088707E+02  0.17294543694E+03  0.23591601349E+03  0.12509000000E+03 0.  0.
<mgrwt>
<rscale>  2 0.45744681E+03</rscale>
<asrwt>0</asrwt>
<pdfrwt beam="1">  1       21 0.62131951E-01 0.45744681E+03</pdfrwt>
<pdfrwt beam="2">  1       21 0.18209097E-01 0.45744681E+03</pdfrwt>
<totfact> 0.60922300E+04</totfact>
</mgrwt>
</event>
<event>
 6    0  0.1572624E-007  0.4414786E+03  0.7546771E-02  0.1030294E+00
         21   -1    0    0  502  501  0.00000000000E+00  0.00000000000E+00  0.35461136813E+02  0.35461136813E+02  0.00000000000E+00 0. -1.
         21   -1    0    0  501  502 -0.00000000000E+00 -0.00000000000E+00 -0.13740631165E+04  0.13740631165E+04  0.00000000000E+00 0. -1.
      99926    2    1    2    0    0  0.00000000000E+00  0.00000000000E+00 -0.13386019797E+04  0.14095242533E+04  0.44147860724E+03 0.  0.
         25    1    3    3    0    0 -0.32754469059E+02  0.64257040307E+02 -0.47690620667E+03  0.49828592248E+03  0.12509000000E+03 0.  0.
         25    1    3    3    0    0  0.17814513520E+02 -0.71918025763E+01 -0.61987756339E+03  0.63266482486E+03  0.12509000000E+03 0.  0.
         25    1    3    3    0    0  0.14939955539E+02 -0.57065237730E+02 -0.24181820961E+03  0.27857350597E+03  0.12509000000E+03 0.  0.
<mgrwt>
<rscale>  2 0.44147861E+03</rscale>
<asrwt>0</asrwt>
<pdfrwt beam="1">  1       21 0.52148728E-02 0.44147861E+03</pdfrwt>
<pdfrwt beam="2">  1       21 0.20206812E+00 0.44147861E+03</pdfrwt>
<totfact> 0.29009879E+04</totfact>
</mgrwt>
</event>
<event>
 6    0  0.1572624E-007  0.4618951E+03  0.7546771E-02  0.1024233E+00
         21   -1    0    0  502  501  0.00000000000E+00  0.00000000000E+00  0.31782631602E+03  0.31782631602E+03  0.00000000000E+00 0.  1.
         21   -1    0    0  501  502 -0.00000000000E+00 -0.00000000000E+00 -0.16781732140E+03  0.16781732140E+03  0.00000000000E+00 0.  1.
      99926    2    1    2    0    0 -0.35527136788E-14 -0.71054273576E-14  0.15000899463E+03  0.48564363742E+03  0.46189505745E+03 0.  0.
         25    1    3    3    0    0 -0.29272030260E+02  0.54788001351E+02 -0.36689351781E+01  0.13971236893E+03  0.12509000000E+03 0.  0.
         25    1    3    3    0    0  0.62049218472E+02  0.23311436574E+02  0.17680391834E+02  0.14266615907E+03  0.12509000000E+03 0.  0.
         25    1    3    3    0    0 -0.32777188212E+02 -0.78099437925E+02  0.13599753797E+03  0.20326510942E+03  0.12509000000E+03 0.  0.
<mgrwt>
<rscale>  2 0.46189506E+03</rscale>
<asrwt>0</asrwt>
<pdfrwt beam="1">  1       21 0.46739164E-01 0.46189506E+03</pdfrwt>
<pdfrwt beam="2">  1       21 0.24679018E-01 0.46189506E+03</pdfrwt>
<totfact> 0.62784242E+04</totfact>
</mgrwt>
</event>
<event>
 6    0  0.1572624E-007  0.4517522E+03  0.7546771E-02  0.1027201E+00
         21   -1    0    0  502  501  0.00000000000E+00  0.00000000000E+00  0.46855012364E+03  0.46855012364E+03  0.00000000000E+00 0.  1.
         21   -1    0    0  501  502 -0.00000000000E+00 -0.00000000000E+00 -0.10888912235E+03  0.10888912235E+03  0.00000000000E+00 0.  1.
      99926    2    1    2    0    0  0.00000000000E+00  0.00000000000E+00  0.35966100129E+03  0.57743924599E+03  0.45175219641E+03 0.  0.
         25    1    3    3    0    0  0.45244422379E+00  0.92286923676E+02  0.92721078979E+02  0.18100217561E+03  0.12509000000E+03 0.  0.
         25    1    3    3    0    0 -0.85723732218E+00 -0.62180665755E+02  0.58422355441E+02  0.15141944976E+03  0.12509000000E+03 0.  0.
         25    1    3    3    0    0  0.40479309839E+00 -0.30106257921E+02  0.20851756687E+03  0.24501762062E+03  0.12509000000E+03 0.  0.
<mgrwt>
<rscale>  2 0.45175220E+03</rscale>
<asrwt>0</asrwt>
<pdfrwt beam="1">  1       21 0.68904429E-01 0.45175220E+03</pdfrwt>
<pdfrwt beam="2">  1       21 0.16013106E-01 0.45175220E+03</pdfrwt>
<totfact> 0.61656905E+04</totfact>
</mgrwt>
</event>
<event>
 6    0  0.1572624E-007  0.4555013E+03  0.7546771E-02  0.1026094E+00
         21   -1    0    0  502  501  0.00000000000E+00  0.00000000000E+00  0.12118225891E+04  0.12118225891E+04  0.00000000000E+00 0.  1.
         21   -1    0    0  501  502 -0.00000000000E+00 -0.00000000000E+00 -0.42803587281E+02  0.42803587281E+02  0.00000000000E+00 0.  1.
      99926    2    1    2    0    0  0.11102230246E-13  0.00000000000E+00  0.11690190018E+04  0.12546261764E+04  0.45550127974E+03 0.  0.
         25    1    3    3    0    0 -0.94872748387E+02 -0.20346434680E+01  0.55168406442E+03  0.57359200936E+03  0.12509000000E+03 0.  0.
         25    1    3    3    0    0 -0.13404466800E+01 -0.24636278903E+02  0.26841928655E+03  0.29716184905E+03  0.12509000000E+03 0.  0.
         25    1    3    3    0    0  0.96213195067E+02  0.26670922371E+02  0.34891565083E+03  0.38387231797E+03  0.12509000000E+03 0.  0.
<mgrwt>
<rscale>  2 0.45550128E+03</rscale>
<asrwt>0</asrwt>
<pdfrwt beam="1">  1       21 0.17820918E+00 0.45550128E+03</pdfrwt>
<pdfrwt beam="2">  1       21 0.62946460E-02 0.45550128E+03</pdfrwt>
<totfact> 0.30342858E+04</totfact>
</mgrwt>
</event>
<event>
 6    0  0.1572624E-007  0.4771409E+03  0.7546771E-02  0.1019924E+00
         21   -1    0    0  502  501  0.00000000000E+00  0.00000000000E+00  0.93938920437E+03  0.93938920437E+03  0.00000000000E+00 0.  1.
         21   -1    0    0  501  502 -0.00000000000E+00 -0.00000000000E+00 -0.60588155908E+02  0.60588155908E+02  0.00000000000E+00 0.  1.
      99926    2    1    2    0    0 -0.10658141036E-13  0.00000000000E+00  0.87880104846E+03  0.99997736027E+03  0.47714089983E+03 0.  0.
         25    1    3    3    0    0  0.89057233135E+02 -0.70321452773E+02  0.31220760665E+03  0.35496111794E+03  0.12509000000E+03 0.  0.
         25    1    3    3    0    0 -0.71741516550E+02  0.13713827824E+02  0.41597170130E+03  0.44047120071E+03  0.12509000000E+03 0.  0.
         25    1    3    3    0    0 -0.17315716585E+02  0.56607624949E+02  0.15062174050E+03  0.20454504163E+03  0.12509000000E+03 0.  0.
<mgrwt>
<rscale>  2 0.47714090E+03</rscale>
<asrwt>0</asrwt>
<pdfrwt beam="1">  1       21 0.13814546E+00 0.47714090E+03</pdfrwt>
<pdfrwt beam="2">  1       21 0.89100235E-02 0.47714090E+03</pdfrwt>
<totfact> 0.33068319E+04</totfact>
</mgrwt>
</event>
<event>
 6    0  0.1572624E-007  0.4559029E+03  0.7546771E-02  0.1025976E+00
         21   -1    0    0  502  501  0.00000000000E+00  0.00000000000E+00  0.61574928517E+03  0.61574928517E+03  0.00000000000E+00 0. -1.
         21   -1    0    0  501  502 -0.00000000000E+00 -0.00000000000E+00 -0.84388023904E+02  0.84388023904E+02  0.00000000000E+00 0. -1.
      99926    2    1    2    0    0  0.00000000000E+00 -0.22204460493E-14  0.53136126126E+03  0.70013730907E+03  0.45590290806E+03 0.  0.
         25    1    3    3    0    0 -0.10847344007E+03 -0.13371184659E+02  0.21688833631E+03  0.27319102164E+03  0.12509000000E+03 0.  0.
         25    1    3    3    0    0  0.53340103692E+01  0.16225511414E+02  0.12699288741E+03  0.17907099274E+03  0.12509000000E+03 0.  0.
         25    1    3    3    0    0  0.10313942970E+03 -0.28543267556E+01  0.18748003755E+03  0.24787529469E+03  0.12509000000E+03 0.  0.
<mgrwt>
<rscale>  2 0.45590291E+03</rscale>
<asrwt>0</asrwt>
<pdfrwt beam="1">  1       21 0.90551363E-01 0.45590291E+03</pdfrwt>
<pdfrwt beam="2">  1       21 0.12410004E-01 0.45590291E+03</pdfrwt>
<totfact> 0.52521306E+04</totfact>
</mgrwt>
</event>
<event>
 6    0  0.1572624E-007  0.4458031E+03  0.7546771E-02  0.1028981E+00
         21   -1    0    0  502  501  0.00000000000E+00  0.00000000000E+00  0.26720602590E+03  0.26720602590E+03  0.00000000000E+00 0. -1.
         21   -1    0    0  501  502 -0.00000000000E+00 -0.00000000000E+00 -0.18594305870E+03  0.18594305870E+03  0.00000000000E+00 0. -1.
      99926    2    1    2    0    0  0.00000000000E+00  0.00000000000E+00  0.81262967197E+02  0.45314908460E+03  0.44580312138E+03 0.  0.
         25    1    3    3    0    0 -0.76781904917E+02  0.17412236592E+02  0.58452686408E+02  0.15894298208E+03  0.12509000000E+03 0.  0.
         25    1    3    3    0    0  0.19269857804E+02 -0.54754267903E+02 -0.31692931669E+02  0.14149666883E+03  0.12509000000E+03 0.  0.
         25    1    3    3    0    0  0.57512047112E+02  0.37342031311E+02  0.54503212458E+02  0.15270943368E+03  0.12509000000E+03 0.  0.
<mgrwt>
<rscale>  2 0.44580312E+03</rscale>
<asrwt>0</asrwt>
<pdfrwt beam="1">  1       21 0.39295004E-01 0.44580312E+03</pdfrwt>
<pdfrwt beam="2">  1       21 0.27344568E-01 0.44580312E+03</pdfrwt>
<totfact> 0.73959533E+04</totfact>
</mgrwt>
</event>
<event>
 6    0  0.1572624E-007  0.4651701E+03  0.7546771E-02  0.1023292E+00
         21   -1    0    0  502  501  0.00000000000E+00  0.00000000000E+00  0.42323787766E+03  0.42323787766E+03  0.00000000000E+00 0. -1.
         21   -1    0    0  501  502 -0.00000000000E+00 -0.00000000000E+00 -0.12781419687E+03  0.12781419687E+03  0.00000000000E+00 0. -1.
      99926    2    1    2    0    0  0.00000000000E+00  0.14210854715E-13  0.29542368078E+03  0.55105207453E+03  0.46517011692E+03 0.  0.
         25    1    3    3    0    0 -0.22375151704E+02  0.14292145004E+02  0.96347172252E+01  0.12823902954E+03  0.12509000000E+03 0.  0.
         25    1    3    3    0    0  0.57123171737E+02  0.72350217854E+02  0.13642737035E+03  0.20677897924E+03  0.12509000000E+03 0.  0.
         25    1    3    3    0    0 -0.34748020033E+02 -0.86642362859E+02  0.14936159320E+03  0.21603406575E+03  0.12509000000E+03 0.  0.
<mgrwt>
<rscale>  2 0.46517012E+03</rscale>
<asrwt>0</asrwt>
<pdfrwt beam="1">  1       21 0.62240864E-01 0.46517012E+03</pdfrwt>
<pdfrwt beam="2">  1       21 0.18796206E-01 0.46517012E+03</pdfrwt>
<totfact> 0.57064540E+04</totfact>
</mgrwt>
</event>
<event>
 6    0  0.1572624E-007  0.4643750E+03  0.7546771E-02  0.1023520E+00
         21   -1    0    0  502  501  0.00000000000E+00  0.00000000000E+00  0.12213350436E+03  0.12213350436E+03  0.00000000000E+00 0.  1.
         21   -1    0    0  501  502 -0.00000000000E+00 -0.00000000000E+00 -0.44141062585E+03  0.44141062585E+03  0.00000000000E+00 0.  1.
      99926    2    1    2    0    0  0.35527136788E-14 -0.35527136788E-14 -0.31927712148E+03  0.56354413021E+03  0.46437496314E+03 0.  0.
         25    1    3    3    0    0  0.63481439133E+02 -0.54867494485E+02 -0.69582369593E+02  0.16592031016E+03  0.12509000000E+03 0.  0.
         25    1    3    3    0    0 -0.88745151193E+02  0.49302364530E+02 -0.20833471596E+03  0.26335771677E+03  0.12509000000E+03 0.  0.
         25    1    3    3    0    0  0.25263712060E+02  0.55651299552E+01 -0.41360035933E+02  0.13426610328E+03  0.12509000000E+03 0.  0.
<mgrwt>
<rscale>  2 0.46437496E+03</rscale>
<asrwt>0</asrwt>
<pdfrwt beam="1">  1       21 0.17960809E-01 0.46437496E+03</pdfrwt>
<pdfrwt beam="2">  1       21 0.64913328E-01 0.46437496E+03</pdfrwt>
<totfact> 0.56660554E+04</totfact>
</mgrwt>
</event>
<event>
 6    0  0.1572624E-007  0.4423232E+03  0.7546771E-02  0.1030036E+00
         21   -1    0    0  502  501  0.00000000000E+00  0.00000000000E+00  0.10829835542E+03  0.10829835542E+03  0.00000000000E+00 0.  1.
         21   -1    0    0  501  502 -0.00000000000E+00 -0.00000000000E+00 -0.45164529144E+03  0.45164529144E+03  0.00000000000E+00 0.  1.
      99926    2    1    2    0    0 -0.71054273576E-14 -0.71054273576E-14 -0.34334693602E+03  0.55994364686E+03  0.44232315018E+03 0.  0.
         25    1    3    3    0    0 -0.89942099916E+02  0.28990791583E+02 -0.86042301944E+02  0.17883185722E+03  0.12509000000E+03 0.  0.
         25    1    3    3    0    0  0.71374904418E+02  0.19129941173E+02 -0.12130831741E+03  0.18927109553E+03  0.12509000000E+03 0.  0.
         25    1    3    3    0    0  0.18567195498E+02 -0.48120732755E+02 -0.13599631667E+03  0.19184069411E+03  0.12509000000E+03 0.  0.
<mgrwt>
<rscale>  2 0.44232315E+03</rscale>
<asrwt>0</asrwt>
<pdfrwt beam="1">  1       21 0.15926229E-01 0.44232315E+03</pdfrwt>
<pdfrwt beam="2">  1       21 0.66418424E-01 0.44232315E+03</pdfrwt>
<totfact> 0.67756859E+04</totfact>
</mgrwt>
</event>
<event>
 6    0  0.1572624E-007  0.4672733E+03  0.7546771E-02  0.1022693E+00
         21   -1    0    0  502  501  0.00000000000E+00  0.00000000000E+00  0.68768378852E+03  0.68768378852E+03  0.00000000000E+00 0.  1.
         21   -1    0    0  501  502 -0.00000000000E+00 -0.00000000000E+00 -0.79376722444E+02  0.79376722444E+02  0.00000000000E+00 0.  1.
      99926    2    1    2    0    0  0.00000000000E+00  0.00000000000E+00  0.60830706607E+03  0.76706051096E+03  0.46727330423E+03 0.  0.
         25    1    3    3    0    0 -0.15852888637E+02  0.81212280094E+02  0.10478858669E+03  0.18296148370E+03  0.12509000000E+03 0.  0.
         25    1    3    3    0    0 -0.15049522673E+02 -0.17112959904E+02  0.35593168463E+03  0.37796059814E+03  0.12509000000E+03 0.  0.
         25    1    3    3    0    0  0.30902411310E+02 -0.64099320190E+02  0.14758679476E+03  0.20613842912E+03  0.12509000000E+03 0.  0.
<mgrwt>
<rscale>  2 0.46727330E+03</rscale>
<asrwt>0</asrwt>
<pdfrwt beam="1">  1       21 0.10112997E+00 0.46727330E+03</pdfrwt>
<pdfrwt beam="2">  1       21 0.11673048E-01 0.46727330E+03</pdfrwt>
<totfact> 0.44912941E+04</totfact>
</mgrwt>
</event>
<event>
 6    0  0.1572624E-007  0.4529724E+03  0.7546771E-02  0.1026839E+00
         21   -1    0    0  502  501  0.00000000000E+00  0.00000000000E+00  0.31475093354E+03  0.31475093354E+03  0.00000000000E+00 0.  1.
         21   -1    0    0  501  502 -0.00000000000E+00 -0.00000000000E+00 -0.16297328045E+03  0.16297328045E+03  0.00000000000E+00 0.  1.
      99926    2    1    2    0    0  0.26645352591E-14 -0.71054273576E-14  0.15177765308E+03  0.47772421399E+03  0.45297237074E+03 0.  0.
         25    1    3    3    0    0  0.27613546953E+01  0.32644761981E+02  0.38133295644E+02  0.13481454633E+03  0.12509000000E+03 0.  0.
         25    1    3    3    0    0  0.14568735733E+02  0.65596080393E+02 -0.75459770858E+01  0.14219544189E+03  0.12509000000E+03 0.  0.
         25    1    3    3    0    0 -0.17330090429E+02 -0.98240842373E+02  0.12119033453E+03  0.20071422577E+03  0.12509000000E+03 0.  0.
<mgrwt>
<rscale>  2 0.45297237E+03</rscale>
<asrwt>0</asrwt>
<pdfrwt beam="1">  1       21 0.46286902E-01 0.45297237E+03</pdfrwt>
<pdfrwt beam="2">  1       21 0.23966659E-01 0.45297237E+03</pdfrwt>
<totfact> 0.67953175E+04</totfact>
</mgrwt>
</event>
<event>
 6    0  0.1572624E-007  0.4528770E+03  0.7546771E-02  0.1026868E+00
         21   -1    0    0  502  501  0.00000000000E+00  0.00000000000E+00  0.10938801955E+03  0.10938801955E+03  0.00000000000E+00 0. -1.
         21   -1    0    0  501  502 -0.00000000000E+00 -0.00000000000E+00 -0.46873859256E+03  0.46873859256E+03  0.00000000000E+00 0. -1.
      99926    2    1    2    0    0  0.00000000000E+00  0.00000000000E+00 -0.35935057300E+03  0.57812661211E+03  0.45287696487E+03 0.  0.
         25    1    3    3    0    0 -0.23936828807E+01  0.58099408579E+02 -0.17612014821E+03  0.22371205980E+03  0.12509000000E+03 0.  0.
         25    1    3    3    0    0  0.73042978499E+02  0.69330635244E+01 -0.99455404408E+02  0.17584717696E+03  0.12509000000E+03 0.  0.
         25    1    3    3    0    0 -0.70649295619E+02 -0.65032472103E+02 -0.83775020387E+02  0.17856737535E+03  0.12509000000E+03 0.  0.
<mgrwt>
<rscale>  2 0.45287696E+03</rscale>
<asrwt>0</asrwt>
<pdfrwt beam="1">  1       21 0.16086473E-01 0.45287696E+03</pdfrwt>
<pdfrwt beam="2">  1       21 0.68932146E-01 0.45287696E+03</pdfrwt>
<totfact> 0.61063752E+04</totfact>
</mgrwt>
</event>
<event>
 6    0  0.1572624E-007  0.4577422E+03  0.7546771E-02  0.1025438E+00
         21   -1    0    0  502  501  0.00000000000E+00  0.00000000000E+00  0.10490571748E+03  0.10490571748E+03  0.00000000000E+00 0.  1.
         21   -1    0    0  501  502 -0.00000000000E+00 -0.00000000000E+00 -0.49932434884E+03  0.49932434884E+03  0.00000000000E+00 0.  1.
      99926    2    1    2    0    0  0.15543122345E-14  0.00000000000E+00 -0.39441863136E+03  0.60423006632E+03  0.45774219412E+03 0.  0.
         25    1    3    3    0    0 -0.65003140019E+02  0.32146026863E+02 -0.15845310615E+03  0.21450797235E+03  0.12509000000E+03 0.  0.
         25    1    3    3    0    0 -0.44327237851E+00 -0.77404960284E+02 -0.58071076113E+02  0.15815018921E+03  0.12509000000E+03 0.  0.
         25    1    3    3    0    0  0.65446412398E+02  0.45258933421E+02 -0.17789444910E+03  0.23157190475E+03  0.12509000000E+03 0.  0.
<mgrwt>
<rscale>  2 0.45774219E+03</rscale>
<asrwt>0</asrwt>
<pdfrwt beam="1">  1       21 0.15427311E-01 0.45774219E+03</pdfrwt>
<pdfrwt beam="2">  1       21 0.73430053E-01 0.45774219E+03</pdfrwt>
<totfact> 0.57169991E+04</totfact>
</mgrwt>
</event>
<event>
 6    0  0.1572624E-007  0.4557203E+03  0.7546771E-02  0.1026030E+00
         21   -1    0    0  502  501  0.00000000000E+00  0.00000000000E+00  0.31209307891E+03  0.31209307891E+03  0.00000000000E+00 0.  1.
         21   -1    0    0  501  502 -0.00000000000E+00 -0.00000000000E+00 -0.16636142153E+03  0.16636142153E+03  0.00000000000E+00 0.  1.
      99926    2    1    2    0    0  0.00000000000E+00  0.00000000000E+00  0.14573165738E+03  0.47845450043E+03  0.45572030131E+03 0.  0.
         25    1    3    3    0    0 -0.14884359553E+02  0.59353496163E+02  0.96625461240E+01  0.13958959332E+03  0.12509000000E+03 0.  0.
         25    1    3    3    0    0 -0.34048666491E+02 -0.99842642109E+02  0.38847611775E+02  0.16817999261E+03  0.12509000000E+03 0.  0.
         25    1    3    3    0    0  0.48933026044E+02  0.40489145946E+02  0.97221499485E+02  0.17068491450E+03  0.12509000000E+03 0.  0.
<mgrwt>
<rscale>  2 0.45572030E+03</rscale>
<asrwt>0</asrwt>
<pdfrwt beam="1">  1       21 0.45896041E-01 0.45572030E+03</pdfrwt>
<pdfrwt beam="2">  1       21 0.24464915E-01 0.45572030E+03</pdfrwt>
<totfact> 0.66432165E+04</totfact>
</mgrwt>
</event>
<event>
 6    0  0.1572624E-007  0.4677989E+03  0.7546771E-02  0.1022543E+00
         21   -1    0    0  502  501  0.00000000000E+00  0.00000000000E+00  0.64418691647E+03  0.64418691647E+03  0.00000000000E+00 0.  1.
         21   -1    0    0  501  502 -0.00000000000E+00 -0.00000000000E+00 -0.84927130520E+02  0.84927130520E+02  0.00000000000E+00 0.  1.
      99926    2    1    2    0    0  0.71054273576E-14 -0.71054273576E-14  0.55925978595E+03  0.72911404699E+03  0.46779887274E+03 0.  0.
         25    1    3    3    0    0 -0.50519135174E+01 -0.53010184535E+02  0.48716217066E+02  0.14441737915E+03  0.12509000000E+03 0.  0.
         25    1    3    3    0    0 -0.46205268487E+02  0.70700735882E+01  0.31876500833E+03  0.34560606391E+03  0.12509000000E+03 0.  0.
         25    1    3    3    0    0  0.51257182005E+02  0.45940110947E+02  0.19177856056E+03  0.23909060394E+03  0.12509000000E+03 0.  0.
<mgrwt>
<rscale>  2 0.46779887E+03</rscale>
<asrwt>0</asrwt>
<pdfrwt beam="1">  1       21 0.94733368E-01 0.46779887E+03</pdfrwt>
<pdfrwt beam="2">  1       21 0.12489284E-01 0.46779887E+03</pdfrwt>
<totfact> 0.46491546E+04</totfact>
</mgrwt>
</event>
<event>
 6    0  0.1572624E-007  0.4597185E+03  0.7546771E-02  0.1024863E+00
         21   -1    0    0  502  501  0.00000000000E+00  0.00000000000E+00  0.97023062501E+02  0.97023062501E+02  0.00000000000E+00 0. -1.
         21   -1    0    0  501  502 -0.00000000000E+00 -0.00000000000E+00 -0.54456419883E+03  0.54456419883E+03  0.00000000000E+00 0. -1.
      99926    2    1    2    0    0  0.00000000000E+00  0.00000000000E+00 -0.44754113633E+03  0.64158726133E+03  0.45971854998E+03 0.  0.
         25    1    3    3    0    0  0.25684362390E+02  0.45516155066E+02 -0.30235367917E+03  0.33135579405E+03  0.12509000000E+03 0.  0.
         25    1    3    3    0    0 -0.29468089324E+02 -0.10949079659E+02 -0.21209327864E+02  0.13071187522E+03  0.12509000000E+03 0.  0.
         25    1    3    3    0    0  0.37837269343E+01 -0.34567075407E+02 -0.12397812930E+03  0.17951959207E+03  0.12509000000E+03 0.  0.
<mgrwt>
<rscale>  2 0.45971855E+03</rscale>
<asrwt>0</asrwt>
<pdfrwt beam="1">  1       21 0.14268098E-01 0.45971855E+03</pdfrwt>
<pdfrwt beam="2">  1       21 0.80082968E-01 0.45971855E+03</pdfrwt>
<totfact> 0.54144301E+04</totfact>
</mgrwt>
</event>
<event>
 6    0  0.1572624E-007  0.4569554E+03  0.7546771E-02  0.1025668E+00
         21   -1    0    0  502  501  0.00000000000E+00  0.00000000000E+00  0.14795812765E+04  0.14795812765E+04  0.00000000000E+00 0.  1.
         21   -1    0    0  501  502 -0.00000000000E+00 -0.00000000000E+00 -0.35281637942E+02  0.35281637942E+02  0.00000000000E+00 0.  1.
      99926    2    1    2    0    0  0.35527136788E-14  0.00000000000E+00  0.14442996385E+04  0.15148629144E+04  0.45695536282E+03 0.  0.
         25    1    3    3    0    0 -0.11778502230E+02  0.20613683101E+02  0.69836348180E+03  0.70987514244E+03  0.12509000000E+03 0.  0.
         25    1    3    3    0    0 -0.16470268285E+02 -0.91518985565E+02  0.36892782686E+03  0.40050248937E+03  0.12509000000E+03 0.  0.
         25    1    3    3    0    0  0.28248770515E+02  0.70905302463E+02  0.37700832986E+03  0.40448528259E+03  0.12509000000E+03 0.  0.
<mgrwt>
<rscale>  2 0.45695536E+03</rscale>
<asrwt>0</asrwt>
<pdfrwt beam="1">  1       21 0.21758544E+00 0.45695536E+03</pdfrwt>
<pdfrwt beam="2">  1       21 0.51884771E-02 0.45695536E+03</pdfrwt>
<totfact> 0.23064910E+04</totfact>
</mgrwt>
</event>
<event>
 6    0  0.1572624E-007  0.4732289E+03  0.7546771E-02  0.1021013E+00
         21   -1    0    0  502  501  0.00000000000E+00  0.00000000000E+00  0.36698040648E+03  0.36698040648E+03  0.00000000000E+00 0. -1.
         21   -1    0    0  501  502 -0.00000000000E+00 -0.00000000000E+00 -0.15255961793E+03  0.15255961793E+03  0.00000000000E+00 0. -1.
      99926    2    1    2    0    0 -0.71054273576E-14  0.37747582837E-14  0.21442078856E+03  0.51954002441E+03  0.47322886894E+03 0.  0.
         25    1    3    3    0    0  0.57647676439E+02  0.10186940991E+01 -0.14795356306E+02  0.13853051290E+03  0.12509000000E+03 0.  0.
         25    1    3    3    0    0  0.34707900510E+02 -0.51637445182E+02  0.89407697354E+02  0.16586834704E+03  0.12509000000E+03 0.  0.
         25    1    3    3    0    0 -0.92355576949E+02  0.50618751083E+02  0.13980844751E+03  0.21514116447E+03  0.12509000000E+03 0.  0.
<mgrwt>
<rscale>  2 0.47322887E+03</rscale>
<asrwt>0</asrwt>
<pdfrwt beam="1">  1       21 0.53967707E-01 0.47322887E+03</pdfrwt>
<pdfrwt beam="2">  1       21 0.22435238E-01 0.47322887E+03</pdfrwt>
<totfact> 0.55451552E+04</totfact>
</mgrwt>
</event>
<event>
 6    0  0.1572624E-007  0.4679997E+03  0.7546771E-02  0.1022486E+00
         21   -1    0    0  502  501  0.00000000000E+00  0.00000000000E+00  0.20721461741E+03  0.20721461741E+03  0.00000000000E+00 0. -1.
         21   -1    0    0  501  502 -0.00000000000E+00 -0.00000000000E+00 -0.26424741214E+03  0.26424741214E+03  0.00000000000E+00 0. -1.
      99926    2    1    2    0    0  0.00000000000E+00  0.14210854715E-13 -0.57032794729E+02  0.47146202955E+03  0.46799968550E+03 0.  0.
         25    1    3    3    0    0 -0.23279637452E+02 -0.10648273661E+03  0.50927386626E+02  0.17355581674E+03  0.12509000000E+03 0.  0.
         25    1    3    3    0    0 -0.69017366613E+01  0.53045640412E+02 -0.72370043006E+02  0.15409868643E+03  0.12509000000E+03 0.  0.
         25    1    3    3    0    0  0.30181374114E+02  0.53437096200E+02 -0.35590138349E+02  0.14380752637E+03  0.12509000000E+03 0.  0.
<mgrwt>
<rscale>  2 0.46799969E+03</rscale>
<asrwt>0</asrwt>
<pdfrwt beam="1">  1       21 0.30472738E-01 0.46799969E+03</pdfrwt>
<pdfrwt beam="2">  1       21 0.38859913E-01 0.46799969E+03</pdfrwt>
<totfact> 0.60801045E+04</totfact>
</mgrwt>
</event>
<event>
 6    0  0.1572624E-007  0.4534409E+03  0.7546771E-02  0.1026701E+00
         21   -1    0    0  502  501  0.00000000000E+00  0.00000000000E+00  0.18372730456E+03  0.18372730456E+03  0.00000000000E+00 0. -1.
         21   -1    0    0  501  502 -0.00000000000E+00 -0.00000000000E+00 -0.27977415850E+03  0.27977415850E+03  0.00000000000E+00 0. -1.
      99926    2    1    2    0    0  0.00000000000E+00 -0.71054273576E-14 -0.96046853940E+02  0.46350146307E+03  0.45344085404E+03 0.  0.
         25    1    3    3    0    0 -0.54394981826E+02  0.19464094762E+02 -0.62389093743E+02  0.15125333765E+03  0.12509000000E+03 0.  0.
         25    1    3    3    0    0  0.25593591111E+02 -0.61604261034E+02  0.53439429214E+02  0.15150378734E+03  0.12509000000E+03 0.  0.
         25    1    3    3    0    0  0.28801390715E+02  0.42140166272E+02 -0.87097189412E+02  0.16074433808E+03  0.12509000000E+03 0.  0.
<mgrwt>
<rscale>  2 0.45344085E+03</rscale>
<asrwt>0</asrwt>
<pdfrwt beam="1">  1       21 0.27018721E-01 0.45344085E+03</pdfrwt>
<pdfrwt beam="2">  1       21 0.41143258E-01 0.45344085E+03</pdfrwt>
<totfact> 0.68769341E+04</totfact>
</mgrwt>
</event>
<event>
 6    0  0.1572624E-007  0.4594297E+03  0.7546771E-02  0.1024947E+00
         21   -1    0    0  502  501  0.00000000000E+00  0.00000000000E+00  0.30249937064E+03  0.30249937064E+03  0.00000000000E+00 0. -1.
         21   -1    0    0  501  502 -0.00000000000E+00 -0.00000000000E+00 -0.17444303222E+03  0.17444303222E+03  0.00000000000E+00 0. -1.
      99926    2    1    2    0    0  0.00000000000E+00  0.00000000000E+00  0.12805633842E+03  0.47694240286E+03  0.45942967888E+03 0.  0.
         25    1    3    3    0    0 -0.79905491244E+02 -0.48264748506E+02  0.39203812387E+02  0.16093110478E+03  0.12509000000E+03 0.  0.
         25    1    3    3    0    0  0.10008407295E+03 -0.16345828021E+02  0.46820886390E+02  0.16770125597E+03  0.12509000000E+03 0.  0.
         25    1    3    3    0    0 -0.20178581710E+02  0.64610576527E+02  0.42031639645E+02  0.14831004211E+03  0.12509000000E+03 0.  0.
<mgrwt>
<rscale>  2 0.45942968E+03</rscale>
<asrwt>0</asrwt>
<pdfrwt beam="1">  1       21 0.44485202E-01 0.45942968E+03</pdfrwt>
<pdfrwt beam="2">  1       21 0.25653387E-01 0.45942968E+03</pdfrwt>
<totfact> 0.64621746E+04</totfact>
</mgrwt>
</event>
<event>
 6    0  0.1572624E-007  0.4530773E+03  0.7546771E-02  0.1026808E+00
         21   -1    0    0  502  501  0.00000000000E+00  0.00000000000E+00  0.11513259849E+03  0.11513259849E+03  0.00000000000E+00 0. -1.
         21   -1    0    0  501  502 -0.00000000000E+00 -0.00000000000E+00 -0.44574492002E+03  0.44574492002E+03  0.00000000000E+00 0. -1.
      99926    2    1    2    0    0  0.14210854715E-13 -0.35527136788E-14 -0.33061232153E+03  0.56087751851E+03  0.45307734838E+03 0.  0.
         25    1    3    3    0    0  0.10035329770E+03 -0.21480509479E+02 -0.10882719423E+03  0.19499503314E+03  0.12509000000E+03 0.  0.
         25    1    3    3    0    0  0.14862170946E+01 -0.13871618271E+02 -0.95096292722E+02  0.15775120800E+03  0.12509000000E+03 0.  0.
         25    1    3    3    0    0 -0.10183951480E+03  0.35352127750E+02 -0.12668883458E+03  0.20813127737E+03  0.12509000000E+03 0.  0.
<mgrwt>
<rscale>  2 0.45307735E+03</rscale>
<asrwt>0</asrwt>
<pdfrwt beam="1">  1       21 0.16931264E-01 0.45307735E+03</pdfrwt>
<pdfrwt beam="2">  1       21 0.65550724E-01 0.45307735E+03</pdfrwt>
<totfact> 0.62092286E+04</totfact>
</mgrwt>
</event>
<event>
 6    0  0.1572624E-007  0.4508310E+03  0.7546771E-02  0.1027475E+00
         21   -1    0    0  502  501  0.00000000000E+00  0.00000000000E+00  0.16403590922E+04  0.16403590922E+04  0.00000000000E+00 0. -1.
         21   -1    0    0  501  502 -0.00000000000E+00 -0.00000000000E+00 -0.30976236764E+02  0.30976236764E+02  0.00000000000E+00 0. -1.
      99926    2    1    2    0    0  0.10658141036E-13  0.00000000000E+00  0.16093828554E+04  0.16713353289E+04  0.45083101764E+03 0.  0.
         25    1    3    3    0    0 -0.69779536195E+02 -0.58751045768E+02  0.47002776047E+03  0.49486813674E+03  0.12509000000E+03 0.  0.
         25    1    3    3    0    0  0.27160221924E+02 -0.32865220871E+02  0.53593498687E+03  0.55198878489E+03  0.12509000000E+03 0.  0.
         25    1    3    3    0    0  0.42619314270E+02  0.91616266640E+02  0.60342010808E+03  0.62447840731E+03  0.12509000000E+03 0.  0.
<mgrwt>
<rscale>  2 0.45083102E+03</rscale>
<asrwt>0</asrwt>
<pdfrwt beam="1">  1       21 0.24122922E+00 0.45083102E+03</pdfrwt>
<pdfrwt beam="2">  1       21 0.45553300E-02 0.45083102E+03</pdfrwt>
<totfact> 0.20521052E+04</totfact>
</mgrwt>
</event>
<event>
 6    0  0.1572624E-007  0.4572731E+03  0.7546771E-02  0.1025575E+00
         21   -1    0    0  502  501  0.00000000000E+00  0.00000000000E+00  0.54021215082E+03  0.54021215082E+03  0.00000000000E+00 0.  1.
         21   -1    0    0  501  502 -0.00000000000E+00 -0.00000000000E+00 -0.96766914975E+02  0.96766914975E+02  0.00000000000E+00 0.  1.
      99926    2    1    2    0    0  0.71054273576E-14 -0.35527136788E-14  0.44344523584E+03  0.63697906579E+03  0.45727306182E+03 0.  0.
         25    1    3    3    0    0  0.88561886975E+02  0.29713142621E+02  0.90166192187E+02  0.18028735114E+03  0.12509000000E+03 0.  0.
         25    1    3    3    0    0 -0.35212513872E+02 -0.48447175343E+02  0.10865806730E+03  0.17618494153E+03  0.12509000000E+03 0.  0.
         25    1    3    3    0    0 -0.53349373103E+02  0.18734032722E+02  0.24462097636E+03  0.28050677312E+03  0.12509000000E+03 0.  0.
<mgrwt>
<rscale>  2 0.45727306E+03</rscale>
<asrwt>0</asrwt>
<pdfrwt beam="1">  1       21 0.79442962E-01 0.45727306E+03</pdfrwt>
<pdfrwt beam="2">  1       21 0.14230429E-01 0.45727306E+03</pdfrwt>
<totfact> 0.55456325E+04</totfact>
</mgrwt>
</event>
<event>
 6    0  0.1572624E-007  0.4580289E+03  0.7546771E-02  0.1025354E+00
         21   -1    0    0  502  501  0.00000000000E+00  0.00000000000E+00  0.44299520416E+02  0.44299520416E+02  0.00000000000E+00 0. -1.
         21   -1    0    0  501  502 -0.00000000000E+00 -0.00000000000E+00 -0.11839320297E+04  0.11839320297E+04  0.00000000000E+00 0. -1.
      99926    2    1    2    0    0  0.00000000000E+00 -0.35527136788E-14 -0.11396325093E+04  0.12282315501E+04  0.45802891228E+03 0.  0.
         25    1    3    3    0    0  0.14658218084E+02 -0.49667944989E+02 -0.17501982784E+03  0.22127181554E+03  0.12509000000E+03 0.  0.
         25    1    3    3    0    0 -0.35809190786E+02 -0.11504857239E+02 -0.29392063463E+03  0.32163878411E+03  0.12509000000E+03 0.  0.
         25    1    3    3    0    0  0.21150972702E+02  0.61172802228E+02 -0.67069204683E+03  0.68532095048E+03  0.12509000000E+03 0.  0.
<mgrwt>
<rscale>  2 0.45802891E+03</rscale>
<asrwt>0</asrwt>
<pdfrwt beam="1">  1       21 0.65146342E-02 0.45802891E+03</pdfrwt>
<pdfrwt beam="2">  1       21 0.17410768E+00 0.45802891E+03</pdfrwt>
<totfact> 0.30545544E+04</totfact>
</mgrwt>
</event>
<event>
 6    0  0.1572624E-007  0.4603183E+03  0.7546771E-02  0.1024689E+00
         21   -1    0    0  502  501  0.00000000000E+00  0.00000000000E+00  0.70663830930E+02  0.70663830930E+02  0.00000000000E+00 0. -1.
         21   -1    0    0  501  502 -0.00000000000E+00 -0.00000000000E+00 -0.74965129560E+03  0.74965129560E+03  0.00000000000E+00 0. -1.
      99926    2    1    2    0    0  0.00000000000E+00  0.00000000000E+00 -0.67898746467E+03  0.82031512653E+03  0.46031829166E+03 0.  0.
         25    1    3    3    0    0  0.68984439988E+01  0.61804942173E+02 -0.17079363309E+03  0.22064771155E+03  0.12509000000E+03 0.  0.
         25    1    3    3    0    0  0.48113078900E+02 -0.10762262715E+03 -0.31212027495E+03  0.35632018238E+03  0.12509000000E+03 0.  0.
         25    1    3    3    0    0 -0.55011522899E+02  0.45817684973E+02 -0.19607355662E+03  0.24334723260E+03  0.12509000000E+03 0.  0.
<mgrwt>
<rscale>  2 0.46031829E+03</rscale>
<asrwt>0</asrwt>
<pdfrwt beam="1">  1       21 0.10391740E-01 0.46031829E+03</pdfrwt>
<pdfrwt beam="2">  1       21 0.11024283E+00 0.46031829E+03</pdfrwt>
<totfact> 0.44894820E+04</totfact>
</mgrwt>
</event>
<event>
 6    0  0.1572624E-007  0.4577236E+03  0.7546771E-02  0.1025444E+00
         21   -1    0    0  502  501  0.00000000000E+00  0.00000000000E+00  0.69885404455E+03  0.69885404455E+03  0.00000000000E+00 0. -1.
         21   -1    0    0  501  502 -0.00000000000E+00 -0.00000000000E+00 -0.74948005378E+02  0.74948005378E+02  0.00000000000E+00 0. -1.
      99926    2    1    2    0    0  0.00000000000E+00  0.00000000000E+00  0.62390603917E+03  0.77380204993E+03  0.45772357024E+03 0.  0.
         25    1    3    3    0    0 -0.11014285293E+02 -0.46691312304E+02  0.26067568904E+03  0.29308823941E+03  0.12509000000E+03 0.  0.
         25    1    3    3    0    0  0.32802465256E+02  0.62125217922E+02  0.67594015327E+02  0.15859383165E+03  0.12509000000E+03 0.  0.
         25    1    3    3    0    0 -0.21788179963E+02 -0.15433905619E+02  0.29563633481E+03  0.32211997887E+03  0.12509000000E+03 0.  0.
<mgrwt>
<rscale>  2 0.45772357E+03</rscale>
<asrwt>0</asrwt>
<pdfrwt beam="1">  1       21 0.10277265E+00 0.45772357E+03</pdfrwt>
<pdfrwt beam="2">  1       21 0.11021766E-01 0.45772357E+03</pdfrwt>
<totfact> 0.48023123E+04</totfact>
</mgrwt>
</event>
<event>
 6    0  0.1572624E-007  0.4556557E+03  0.7546771E-02  0.1026049E+00
         21   -1    0    0  502  501  0.00000000000E+00  0.00000000000E+00  0.66740608060E+03  0.66740608060E+03  0.00000000000E+00 0.  1.
         21   -1    0    0  501  502 -0.00000000000E+00 -0.00000000000E+00 -0.77772050201E+02  0.77772050201E+02  0.00000000000E+00 0.  1.
      99926    2    1    2    0    0  0.35527136788E-14  0.14210854715E-13  0.58963403039E+03  0.74517813080E+03  0.45565574376E+03 0.  0.
         25    1    3    3    0    0  0.52305384869E+02 -0.50154163442E+02  0.14325128795E+03  0.20351838491E+03  0.12509000000E+03 0.  0.
         25    1    3    3    0    0 -0.83989627328E+02 -0.21065834963E+02  0.16787257174E+03  0.22655404508E+03  0.12509000000E+03 0.  0.
         25    1    3    3    0    0  0.31684242459E+02  0.71219998405E+02  0.27851017070E+03  0.31510570080E+03  0.12509000000E+03 0.  0.
<mgrwt>
<rscale>  2 0.45565574E+03</rscale>
<asrwt>0</asrwt>
<pdfrwt beam="1">  1       21 0.98147950E-01 0.45565574E+03</pdfrwt>
<pdfrwt beam="2">  1       21 0.11437067E-01 0.45565574E+03</pdfrwt>
<totfact> 0.50258205E+04</totfact>
</mgrwt>
</event>
<event>
 6    0  0.1572624E-007  0.4579017E+03  0.7546771E-02  0.1025392E+00
         21   -1    0    0  502  501  0.00000000000E+00  0.00000000000E+00  0.24858343937E+03  0.24858343937E+03  0.00000000000E+00 0.  1.
         21   -1    0    0  501  502 -0.00000000000E+00 -0.00000000000E+00 -0.21086879827E+03  0.21086879827E+03  0.00000000000E+00 0.  1.
      99926    2    1    2    0    0  0.00000000000E+00  0.35527136788E-14  0.37714641101E+02  0.45945223764E+03  0.45790169744E+03 0.  0.
         25    1    3    3    0    0 -0.68174364317E+02  0.27691764411E+02 -0.46172300254E+02  0.15229565712E+03  0.12509000000E+03 0.  0.
         25    1    3    3    0    0  0.41788826935E+02  0.10651080791E+02 -0.25305059029E+02  0.13471304945E+03  0.12509000000E+03 0.  0.
         25    1    3    3    0    0  0.26385537382E+02 -0.38342845202E+02  0.10919200038E+03  0.17244353107E+03  0.12509000000E+03 0.  0.
<mgrwt>
<rscale>  2 0.45790170E+03</rscale>
<asrwt>0</asrwt>
<pdfrwt beam="1">  1       21 0.36556388E-01 0.45790170E+03</pdfrwt>
<pdfrwt beam="2">  1       21 0.31010117E-01 0.45790170E+03</pdfrwt>
<totfact> 0.66664069E+04</totfact>
</mgrwt>
</event>
<event>
 6    0  0.1572624E-007  0.4510375E+03  0.7546771E-02  0.1027413E+00
         21   -1    0    0  502  501  0.00000000000E+00  0.00000000000E+00  0.63161631793E+03  0.63161631793E+03  0.00000000000E+00 0. -1.
         21   -1    0    0  501  502 -0.00000000000E+00 -0.00000000000E+00 -0.80521530647E+02  0.80521530647E+02  0.00000000000E+00 0. -1.
      99926    2    1    2    0    0  0.00000000000E+00  0.00000000000E+00  0.55109478728E+03  0.71213784858E+03  0.45103752705E+03 0.  0.
         25    1    3    3    0    0 -0.23656220182E+02  0.42448288335E+02  0.74074550539E+02  0.15328411879E+03  0.12509000000E+03 0.  0.
         25    1    3    3    0    0 -0.49174211565E+01 -0.67435680259E+02  0.15006109607E+03  0.20673072500E+03  0.12509000000E+03 0.  0.
         25    1    3    3    0    0  0.28573641339E+02  0.24987391924E+02  0.32695914067E+03  0.35212300479E+03  0.12509000000E+03 0.  0.
<mgrwt>
<rscale>  2 0.45103753E+03</rscale>
<asrwt>0</asrwt>
<pdfrwt beam="1">  1       21 0.92884750E-01 0.45103753E+03</pdfrwt>
<pdfrwt beam="2">  1       21 0.11841402E-01 0.45103753E+03</pdfrwt>
<totfact> 0.53909921E+04</totfact>
</mgrwt>
</event>
<event>
 6    0  0.1572624E-007  0.4772436E+03  0.7546771E-02  0.1019895E+00
         21   -1    0    0  502  501  0.00000000000E+00  0.00000000000E+00  0.12879224157E+03  0.12879224157E+03  0.00000000000E+00 0.  1.
         21   -1    0    0  501  502 -0.00000000000E+00 -0.00000000000E+00 -0.44211028956E+03  0.44211028956E+03  0.00000000000E+00 0.  1.
      99926    2    1    2    0    0 -0.14210854715E-13  0.00000000000E+00 -0.31331804798E+03  0.57090253113E+03  0.47724364937E+03 0.  0.
         25    1    3    3    0    0  0.71096170055E+00 -0.75239500268E+01 -0.20684695850E+03  0.24184765376E+03  0.12509000000E+03 0.  0.
         25    1    3    3    0    0 -0.83806175678E+02  0.34305547232E+02 -0.81059763889E+02  0.17440911408E+03  0.12509000000E+03 0.  0.
         25    1    3    3    0    0  0.83095213978E+02 -0.26781597205E+02 -0.25411325600E+02  0.15464576329E+03  0.12509000000E+03 0.  0.
<mgrwt>
<rscale>  2 0.47724365E+03</rscale>
<asrwt>0</asrwt>
<pdfrwt beam="1">  1       21 0.18940035E-01 0.47724365E+03</pdfrwt>
<pdfrwt beam="2">  1       21 0.65016219E-01 0.47724365E+03</pdfrwt>
<totfact> 0.50935906E+04</totfact>
</mgrwt>
</event>
<event>
 6    0  0.1572624E-007  0.4291550E+03  0.7546771E-02  0.1034127E+00
         21   -1    0    0  502  501  0.00000000000E+00  0.00000000000E+00  0.55965445915E+02  0.55965445915E+02  0.00000000000E+00 0. -1.
         21   -1    0    0  501  502 -0.00000000000E+00 -0.00000000000E+00 -0.82271316915E+03  0.82271316915E+03  0.00000000000E+00 0. -1.
      99926    2    1    2    0    0 -0.71054273576E-14  0.71054273576E-14 -0.76674772324E+03  0.87867861507E+03  0.42915502733E+03 0.  0.
         25    1    3    3    0    0 -0.63623903242E+02  0.37071112243E+02 -0.20971577915E+03  0.25504996481E+03  0.12509000000E+03 0.  0.
         25    1    3    3    0    0  0.40583288767E+02  0.15730297464E+02 -0.18997905794E+03  0.23159014690E+03  0.12509000000E+03 0.  0.
         25    1    3    3    0    0  0.23040614474E+02 -0.52801409707E+02 -0.36705288615E+03  0.39203850336E+03  0.12509000000E+03 0.  0.
<mgrwt>
<rscale>  2 0.42915503E+03</rscale>
<asrwt>0</asrwt>
<pdfrwt beam="1">  1       21 0.82302134E-02 0.42915503E+03</pdfrwt>
<pdfrwt beam="2">  1       21 0.12098722E+00 0.42915503E+03</pdfrwt>
<totfact> 0.54361475E+04</totfact>
</mgrwt>
</event>
<event>
 6    0  0.1572624E-007  0.4514892E+03  0.7546771E-02  0.1027279E+00
         21   -1    0    0  502  501  0.00000000000E+00  0.00000000000E+00  0.20178358502E+03  0.20178358502E+03  0.00000000000E+00 0. -1.
         21   -1    0    0  501  502 -0.00000000000E+00 -0.00000000000E+00 -0.25255090459E+03  0.25255090459E+03  0.00000000000E+00 0. -1.
      99926    2    1    2    0    0 -0.35527136788E-14  0.00000000000E+00 -0.50767319574E+02  0.45433448961E+03  0.45148921107E+03 0.  0.
         25    1    3    3    0    0 -0.30345149485E+02  0.17304054422E+02 -0.10572822194E+03  0.16747006721E+03  0.12509000000E+03 0.  0.
         25    1    3    3    0    0 -0.35402874902E+02  0.27542881895E+02  0.18356407136E+02  0.13415080945E+03  0.12509000000E+03 0.  0.
         25    1    3    3    0    0  0.65748024387E+02 -0.44846936317E+02  0.36604495231E+02  0.15271361295E+03  0.12509000000E+03 0.  0.
<mgrwt>
<rscale>  2 0.45148921E+03</rscale>
<asrwt>0</asrwt>
<pdfrwt beam="1">  1       21 0.29674057E-01 0.45148921E+03</pdfrwt>
<pdfrwt beam="2">  1       21 0.37139839E-01 0.45148921E+03</pdfrwt>
<totfact> 0.70550048E+04</totfact>
</mgrwt>
</event>
<event>
 6    0  0.1572624E-007  0.4445090E+03  0.7546771E-02  0.1029372E+00
         21   -1    0    0  502  501  0.00000000000E+00  0.00000000000E+00  0.87807400245E+02  0.87807400245E+02  0.00000000000E+00 0. -1.
         21   -1    0    0  501  502 -0.00000000000E+00 -0.00000000000E+00 -0.56256143964E+03  0.56256143964E+03  0.00000000000E+00 0. -1.
      99926    2    1    2    0    0  0.00000000000E+00 -0.26645352591E-14 -0.47475403939E+03  0.65036883988E+03  0.44450897625E+03 0.  0.
         25    1    3    3    0    0 -0.94363486097E+01  0.63534239500E+02 -0.60029667059E+02  0.15289445147E+03  0.12509000000E+03 0.  0.
         25    1    3    3    0    0 -0.17654998400E+02 -0.64783865675E+02 -0.26384402791E+03  0.29961613339E+03  0.12509000000E+03 0.  0.
         25    1    3    3    0    0  0.27091347010E+02  0.12496261749E+01 -0.15088034442E+03  0.19785825502E+03  0.12509000000E+03 0.  0.
<mgrwt>
<rscale>  2 0.44450898E+03</rscale>
<asrwt>0</asrwt>
<pdfrwt beam="1">  1       21 0.12912853E-01 0.44450898E+03</pdfrwt>
<pdfrwt beam="2">  1       21 0.82729624E-01 0.44450898E+03</pdfrwt>
<totfact> 0.60536513E+04</totfact>
</mgrwt>
</event>
<event>
 6    0  0.1572624E-007  0.4552569E+03  0.7546771E-02  0.1026166E+00
         21   -1    0    0  502  501  0.00000000000E+00  0.00000000000E+00  0.11454741423E+04  0.11454741423E+04  0.00000000000E+00 0.  1.
         21   -1    0    0  501  502 -0.00000000000E+00 -0.00000000000E+00 -0.45234293276E+02  0.45234293276E+02  0.00000000000E+00 0.  1.
      99926    2    1    2    0    0  0.00000000000E+00  0.35527136788E-14  0.11002398490E+04  0.11907084356E+04  0.45525690898E+03 0.  0.
         25    1    3    3    0    0  0.37337742222E+02 -0.22142699740E+02  0.32900803860E+03  0.35465222924E+03  0.12509000000E+03 0.  0.
         25    1    3    3    0    0  0.26180378698E+02 -0.51070280811E+02  0.19626865466E+03  0.23971332611E+03  0.12509000000E+03 0.  0.
         25    1    3    3    0    0 -0.63518120920E+02  0.73212980552E+02  0.57496315578E+03  0.59634288024E+03  0.12509000000E+03 0.  0.
<mgrwt>
<rscale>  2 0.45525691E+03</rscale>
<asrwt>0</asrwt>
<pdfrwt beam="1">  1       21 0.16845206E+00 0.45525691E+03</pdfrwt>
<pdfrwt beam="2">  1       21 0.66521027E-02 0.45525691E+03</pdfrwt>
<totfact> 0.32386960E+04</totfact>
</mgrwt>
</event>
<event>
 6    0  0.1572624E-007  0.4511401E+03  0.7546771E-02  0.1027383E+00
         21   -1    0    0  502  501  0.00000000000E+00  0.00000000000E+00  0.16007231241E+03  0.16007231241E+03  0.00000000000E+00 0.  1.
         21   -1    0    0  501  502 -0.00000000000E+00 -0.00000000000E+00 -0.31786788149E+03  0.31786788149E+03  0.00000000000E+00 0.  1.
      99926    2    1    2    0    0  0.00000000000E+00 -0.71054273576E-14 -0.15779556908E+03  0.47794019390E+03  0.45114009722E+03 0.  0.
         25    1    3    3    0    0 -0.15366560696E+02 -0.11073026328E+03 -0.42459327361E+02  0.17305382103E+03  0.12509000000E+03 0.  0.
         25    1    3    3    0    0 -0.11961505943E+02  0.71154254778E+02 -0.34833435132E+02  0.14854925749E+03  0.12509000000E+03 0.  0.
         25    1    3    3    0    0  0.27328066639E+02  0.39576008504E+02 -0.80502806587E+02  0.15633711538E+03  0.12509000000E+03 0.  0.
<mgrwt>
<rscale>  2 0.45114010E+03</rscale>
<asrwt>0</asrwt>
<pdfrwt beam="1">  1       21 0.23540046E-01 0.45114010E+03</pdfrwt>
<pdfrwt beam="2">  1       21 0.46745276E-01 0.45114010E+03</pdfrwt>
<totfact> 0.68938382E+04</totfact>
</mgrwt>
</event>
<event>
 6    0  0.1572624E-007  0.4567810E+03  0.7546771E-02  0.1025719E+00
         21   -1    0    0  502  501  0.00000000000E+00  0.00000000000E+00  0.25383263301E+03  0.25383263301E+03  0.00000000000E+00 0. -1.
         21   -1    0    0  501  502 -0.00000000000E+00 -0.00000000000E+00 -0.20549847417E+03  0.20549847417E+03  0.00000000000E+00 0. -1.
      99926    2    1    2    0    0  0.00000000000E+00  0.00000000000E+00  0.48334158846E+02  0.45933110718E+03  0.45678099250E+03 0.  0.
         25    1    3    3    0    0  0.84646004022E+02 -0.62968220947E+01 -0.63020285018E+01  0.15130042838E+03  0.12509000000E+03 0.  0.
         25    1    3    3    0    0 -0.85625455931E+02 -0.36678544748E+02 -0.18218164158E+02  0.15702370507E+03  0.12509000000E+03 0.  0.
         25    1    3    3    0    0  0.97945190908E+00  0.42975366843E+02  0.72854351505E+02  0.15100697373E+03  0.12509000000E+03 0.  0.
<mgrwt>
<rscale>  2 0.45678099E+03</rscale>
<asrwt>0</asrwt>
<pdfrwt beam="1">  1       21 0.37328329E-01 0.45678099E+03</pdfrwt>
<pdfrwt beam="2">  1       21 0.30220364E-01 0.45678099E+03</pdfrwt>
<totfact> 0.67268664E+04</totfact>
</mgrwt>
</event>
<event>
 6    0  0.1572624E-007  0.4911361E+03  0.7546771E-02  0.1016119E+00
         21   -1    0    0  502  501  0.00000000000E+00  0.00000000000E+00  0.10856462288E+03  0.10856462288E+03  0.00000000000E+00 0. -1.
         21   -1    0    0  501  502 -0.00000000000E+00 -0.00000000000E+00 -0.55546332857E+03  0.55546332857E+03  0.00000000000E+00 0. -1.
      99926    2    1    2    0    0  0.00000000000E+00  0.00000000000E+00 -0.44689870569E+03  0.66402795145E+03  0.49113609842E+03 0.  0.
         25    1    3    3    0    0  0.11947949763E+02  0.84856787883E+01  0.90893357471E+01  0.12627305482E+03  0.12509000000E+03 0.  0.
         25    1    3    3    0    0 -0.74165887389E+01 -0.40730936779E+02 -0.12177793395E+03  0.17941958727E+03  0.12509000000E+03 0.  0.
         25    1    3    3    0    0 -0.45313610243E+01  0.32245257990E+02 -0.33421010748E+03  0.35833530937E+03  0.12509000000E+03 0.  0.
<mgrwt>
<rscale>  2 0.49113610E+03</rscale>
<asrwt>0</asrwt>
<pdfrwt beam="1">  1       21 0.15965386E-01 0.49113610E+03</pdfrwt>
<pdfrwt beam="2">  1       21 0.81685784E-01 0.49113610E+03</pdfrwt>
<totfact> 0.41685848E+04</totfact>
</mgrwt>
</event>
<event>
 6    0  0.1572624E-007  0.4558287E+03  0.7546771E-02  0.1025998E+00
         21   -1    0    0  502  501  0.00000000000E+00  0.00000000000E+00  0.72205372904E+02  0.72205372904E+02  0.00000000000E+00 0. -1.
         21   -1    0    0  501  502 -0.00000000000E+00 -0.00000000000E+00 -0.71940562212E+03  0.71940562212E+03  0.00000000000E+00 0. -1.
      99926    2    1    2    0    0  0.00000000000E+00  0.00000000000E+00 -0.64720024922E+03  0.79161099503E+03  0.45582870122E+03 0.  0.
         25    1    3    3    0    0 -0.81149465793E+02 -0.32126367845E+02 -0.10936505522E+03  0.18768474289E+03  0.12509000000E+03 0.  0.
         25    1    3    3    0    0  0.54560251427E+02  0.39636529323E+02 -0.22813388737E+03  0.26877584370E+03  0.12509000000E+03 0.  0.
         25    1    3    3    0    0  0.26589214366E+02 -0.75101614781E+01 -0.30970130663E+03  0.33515040844E+03  0.12509000000E+03 0.  0.
<mgrwt>
<rscale>  2 0.45582870E+03</rscale>
<asrwt>0</asrwt>
<pdfrwt beam="1">  1       21 0.10618437E-01 0.45582870E+03</pdfrwt>
<pdfrwt beam="2">  1       21 0.10579495E+00 0.45582870E+03</pdfrwt>
<totfact> 0.47861220E+04</totfact>
</mgrwt>
</event>
<event>
 6    0  0.1572624E-007  0.4522921E+03  0.7546771E-02  0.1027041E+00
         21   -1    0    0  502  501  0.00000000000E+00  0.00000000000E+00  0.15746096564E+03  0.15746096564E+03  0.00000000000E+00 0.  1.
         21   -1    0    0  501  502 -0.00000000000E+00 -0.00000000000E+00 -0.32479187909E+03  0.32479187909E+03  0.00000000000E+00 0.  1.
      99926    2    1    2    0    0  0.00000000000E+00 -0.71054273576E-14 -0.16733091345E+03  0.48225284473E+03  0.45229213088E+03 0.  0.
         25    1    3    3    0    0  0.43783387515E+02  0.25780227057E+02 -0.10788703904E+03  0.17282571111E+03  0.12509000000E+03 0.  0.
         25    1    3    3    0    0  0.82969410415E+01 -0.75899969230E+02  0.14257627102E+02  0.14724276753E+03  0.12509000000E+03 0.  0.
         25    1    3    3    0    0 -0.52080328556E+02  0.50119742173E+02 -0.73701501518E+02  0.16218436609E+03  0.12509000000E+03 0.  0.
<mgrwt>
<rscale>  2 0.45229213E+03</rscale>
<asrwt>0</asrwt>
<pdfrwt beam="1">  1       21 0.23156025E-01 0.45229213E+03</pdfrwt>
<pdfrwt beam="2">  1       21 0.47763511E-01 0.45229213E+03</pdfrwt>
<totfact> 0.67986167E+04</totfact>
</mgrwt>
</event>
<event>
 6    0  0.1572624E-007  0.4518779E+03  0.7546771E-02  0.1027163E+00
         21   -1    0    0  502  501  0.00000000000E+00  0.00000000000E+00  0.52033109384E+03  0.52033109384E+03  0.00000000000E+00 0. -1.
         21   -1    0    0  501  502 -0.00000000000E+00 -0.00000000000E+00 -0.98107569441E+02  0.98107569441E+02  0.00000000000E+00 0. -1.
      99926    2    1    2    0    0  0.00000000000E+00  0.00000000000E+00  0.42222352440E+03  0.61843866328E+03  0.45187794335E+03 0.  0.
         25    1    3    3    0    0  0.55919040609E+02 -0.38601364920E+02  0.15467143885E+03  0.21020886416E+03  0.12509000000E+03 0.  0.
         25    1    3    3    0    0 -0.79186756017E+02  0.40923110848E+02  0.22810496378E+03  0.27499931988E+03  0.12509000000E+03 0.  0.
         25    1    3    3    0    0  0.23267715408E+02 -0.23217459277E+01  0.39447121771E+02  0.13323047925E+03  0.12509000000E+03 0.  0.
<mgrwt>
<rscale>  2 0.45187794E+03</rscale>
<asrwt>0</asrwt>
<pdfrwt beam="1">  1       21 0.76519277E-01 0.45187794E+03</pdfrwt>
<pdfrwt beam="2">  1       21 0.14427584E-01 0.45187794E+03</pdfrwt>
<totfact> 0.58998596E+04</totfact>
</mgrwt>
</event>
<event>
 6    0  0.1572624E-007  0.4623267E+03  0.7546771E-02  0.1024109E+00
         21   -1    0    0  502  501  0.00000000000E+00  0.00000000000E+00  0.55883646092E+03  0.55883646092E+03  0.00000000000E+00 0.  1.
         21   -1    0    0  501  502 -0.00000000000E+00 -0.00000000000E+00 -0.95620982535E+02  0.95620982535E+02  0.00000000000E+00 0.  1.
      99926    2    1    2    0    0  0.00000000000E+00 -0.35527136788E-14  0.46321547838E+03  0.65445744345E+03  0.46232668739E+03 0.  0.
         25    1    3    3    0    0  0.15769544342E+02  0.27684628581E+02  0.20649037040E+02  0.13072493266E+03  0.12509000000E+03 0.  0.
         25    1    3    3    0    0  0.32979387100E+02  0.17208611185E+02  0.15073833605E+03  0.19938237216E+03  0.12509000000E+03 0.  0.
         25    1    3    3    0    0 -0.48748931442E+02 -0.44893239766E+02  0.29182810529E+03  0.32435013863E+03  0.12509000000E+03 0.  0.
<mgrwt>
<rscale>  2 0.46232669E+03</rscale>
<asrwt>0</asrwt>
<pdfrwt beam="1">  1       21 0.82181831E-01 0.46232669E+03</pdfrwt>
<pdfrwt beam="2">  1       21 0.14061909E-01 0.46232669E+03</pdfrwt>
<totfact> 0.52353408E+04</totfact>
</mgrwt>
</event>
<event>
 6    0  0.2916978E-005  0.4526720E+03  0.7546771E-02  0.1026928E+00
         21   -1    0    0  502  501  0.00000000000E+00  0.00000000000E+00  0.78851847031E+03  0.78851847031E+03  0.00000000000E+00 0.  1.
         21   -1    0    0  501  502 -0.00000000000E+00 -0.00000000000E+00 -0.64967399024E+02  0.64967399024E+02  0.00000000000E+00 0. -1.
      99926    2    1    2    0    0 -0.14210854715E-13  0.00000000000E+00  0.72355107129E+03  0.85348586933E+03  0.45267204066E+03 0.  0.
         25    1    3    3    0    0 -0.73428769405E+02 -0.42536339596E+02  0.25529536591E+03  0.29668898921E+03  0.12509000000E+03 0.  0.
         25    1    3    3    0    0 -0.15396718329E+02  0.29340563505E+01  0.30135981171E+03  0.32666636165E+03  0.12509000000E+03 0.  0.
         25    1    3    3    0    0  0.88825487734E+02  0.39602283246E+02  0.16689589366E+03  0.23013051847E+03  0.12509000000E+03 0.  0.
<mgrwt>
<rscale>  2 0.45267204E+03</rscale>
<asrwt>0</asrwt>
<pdfrwt beam="1">  1       21 0.11595859E+00 0.45267204E+03</pdfrwt>
<pdfrwt beam="2">  1       21 0.95540297E-02 0.45267204E+03</pdfrwt>
<totfact> 0.46120287E+04</totfact>
</mgrwt>
</event>
<event>
 6    0  0.1572624E-007  0.4513808E+03  0.7546771E-02  0.1027311E+00
         21   -1    0    0  502  501  0.00000000000E+00  0.00000000000E+00  0.10739709941E+04  0.10739709941E+04  0.00000000000E+00 0. -1.
         21   -1    0    0  501  502 -0.00000000000E+00 -0.00000000000E+00 -0.47427872939E+02  0.47427872939E+02  0.00000000000E+00 0. -1.
      99926    2    1    2    0    0  0.00000000000E+00  0.71054273576E-14  0.10265431212E+04  0.11213988671E+04  0.45138081417E+03 0.  0.
         25    1    3    3    0    0 -0.19473348228E+02  0.50380494672E+02  0.22574582868E+03  0.26367800971E+03  0.12509000000E+03 0.  0.
         25    1    3    3    0    0  0.85892450643E+02 -0.42864076322E+02  0.32492651251E+03  0.36116421300E+03  0.12509000000E+03 0.  0.
         25    1    3    3    0    0 -0.66419102415E+02 -0.75164183507E+01  0.47587078001E+03  0.49655664438E+03  0.12509000000E+03 0.  0.
<mgrwt>
<rscale>  2 0.45138081E+03</rscale>
<asrwt>0</asrwt>
<pdfrwt beam="1">  1       21 0.15793690E+00 0.45138081E+03</pdfrwt>
<pdfrwt beam="2">  1       21 0.69746878E-02 0.45138081E+03</pdfrwt>
<totfact> 0.35749855E+04</totfact>
</mgrwt>
</event>
<event>
 6    0  0.1572624E-007  0.4555195E+03  0.7546771E-02  0.1026089E+00
         21   -1    0    0  502  501  0.00000000000E+00  0.00000000000E+00  0.78379890981E+02  0.78379890981E+02  0.00000000000E+00 0. -1.
         21   -1    0    0  501  502 -0.00000000000E+00 -0.00000000000E+00 -0.66183443942E+03  0.66183443942E+03  0.00000000000E+00 0. -1.
      99926    2    1    2    0    0  0.71054273576E-14  0.00000000000E+00 -0.58345454844E+03  0.74021433040E+03  0.45551953288E+03 0.  0.
         25    1    3    3    0    0 -0.10395944344E+03 -0.35751157099E+02 -0.30636311015E+03  0.34869983435E+03  0.12509000000E+03 0.  0.
         25    1    3    3    0    0  0.50591688993E+02  0.35855084947E+02 -0.15680418731E+03  0.20995277414E+03  0.12509000000E+03 0.  0.
         25    1    3    3    0    0  0.53367754442E+02 -0.10392784830E+00 -0.12028725098E+03  0.18156172191E+03  0.12509000000E+03 0.  0.
<mgrwt>
<rscale>  2 0.45551953E+03</rscale>
<asrwt>0</asrwt>
<pdfrwt beam="1">  1       21 0.11526455E-01 0.45551953E+03</pdfrwt>
<pdfrwt beam="2">  1       21 0.97328588E-01 0.45551953E+03</pdfrwt>
<totfact> 0.50566528E+04</totfact>
</mgrwt>
</event>
<event>
 6    0  0.1572624E-007  0.4613046E+03  0.7546771E-02  0.1024404E+00
         21   -1    0    0  502  501  0.00000000000E+00  0.00000000000E+00  0.43716401147E+02  0.43716401147E+02  0.00000000000E+00 0. -1.
         21   -1    0    0  501  502 -0.00000000000E+00 -0.00000000000E+00 -0.12169454474E+04  0.12169454474E+04  0.00000000000E+00 0. -1.
      99926    2    1    2    0    0 -0.71054273576E-14  0.88817841970E-15 -0.11732290463E+04  0.12606618485E+04  0.46130456470E+03 0.  0.
         25    1    3    3    0    0 -0.26613794756E+02  0.24346668560E+01 -0.36509428651E+03  0.38685341903E+03  0.12509000000E+03 0.  0.
         25    1    3    3    0    0  0.70074778066E+02  0.85380531133E+02 -0.32708364356E+03  0.36719412795E+03  0.12509000000E+03 0.  0.
         25    1    3    3    0    0 -0.43460983309E+02 -0.87815197989E+02 -0.48105111618E+03  0.50661430156E+03  0.12509000000E+03 0.  0.
<mgrwt>
<rscale>  2 0.46130456E+03</rscale>
<asrwt>0</asrwt>
<pdfrwt beam="1">  1       21 0.64288823E-02 0.46130456E+03</pdfrwt>
<pdfrwt beam="2">  1       21 0.17896257E+00 0.46130456E+03</pdfrwt>
<totfact> 0.28837550E+04</totfact>
</mgrwt>
</event>
<event>
 6    0  0.1572624E-007  0.4576771E+03  0.7546771E-02  0.1025457E+00
         21   -1    0    0  502  501  0.00000000000E+00  0.00000000000E+00  0.20280351920E+03  0.20280351920E+03  0.00000000000E+00 0.  1.
         21   -1    0    0  501  502 -0.00000000000E+00 -0.00000000000E+00 -0.25821583926E+03  0.25821583926E+03  0.00000000000E+00 0.  1.
      99926    2    1    2    0    0  0.00000000000E+00 -0.71054273576E-14 -0.55412320065E+02  0.46101935846E+03  0.45767709540E+03 0.  0.
         25    1    3    3    0    0  0.13712396460E+02 -0.60579529093E+02 -0.64339825501E+02  0.15376940660E+03  0.12509000000E+03 0.  0.
         25    1    3    3    0    0 -0.21803441199E+02 -0.50484187007E+02 -0.17293940365E+02  0.13773391615E+03  0.12509000000E+03 0.  0.
         25    1    3    3    0    0  0.80910447383E+01  0.11106371610E+03  0.26221445800E+02  0.16951603570E+03  0.12509000000E+03 0.  0.
<mgrwt>
<rscale>  2 0.45767710E+03</rscale>
<asrwt>0</asrwt>
<pdfrwt beam="1">  1       21 0.29824047E-01 0.45767710E+03</pdfrwt>
<pdfrwt beam="2">  1       21 0.37972917E-01 0.45767710E+03</pdfrwt>
<totfact> 0.66671472E+04</totfact>
</mgrwt>
</event>
<event>
 6    0  0.1572624E-007  0.4631269E+03  0.7546771E-02  0.1023878E+00
         21   -1    0    0  502  501  0.00000000000E+00  0.00000000000E+00  0.41298006453E+03  0.41298006453E+03  0.00000000000E+00 0. -1.
         21   -1    0    0  501  502 -0.00000000000E+00 -0.00000000000E+00 -0.12984069986E+03  0.12984069986E+03  0.00000000000E+00 0. -1.
      99926    2    1    2    0    0 -0.44408920985E-15 -0.14210854715E-13  0.28313936467E+03  0.54282076438E+03  0.46312685349E+03 0.  0.
         25    1    3    3    0    0  0.22972232733E+02 -0.88495506932E+02  0.10437169709E+03  0.18681578487E+03  0.12509000000E+03 0.  0.
         25    1    3    3    0    0 -0.39204128461E+01 -0.34721620639E+02  0.59281007473E+02  0.14276801646E+03  0.12509000000E+03 0.  0.
         25    1    3    3    0    0 -0.19051819887E+02  0.12321712757E+03  0.11948666010E+03  0.21323696305E+03  0.12509000000E+03 0.  0.
<mgrwt>
<rscale>  2 0.46312685E+03</rscale>
<asrwt>0</asrwt>
<pdfrwt beam="1">  1       21 0.60732362E-01 0.46312685E+03</pdfrwt>
<pdfrwt beam="2">  1       21 0.19094221E-01 0.46312685E+03</pdfrwt>
<totfact> 0.58488374E+04</totfact>
</mgrwt>
</event>
<event>
 6    0  0.1572624E-007  0.4579531E+03  0.7546771E-02  0.1025377E+00
         21   -1    0    0  502  501  0.00000000000E+00  0.00000000000E+00  0.10523035306E+03  0.10523035306E+03  0.00000000000E+00 0. -1.
         21   -1    0    0  501  502 -0.00000000000E+00 -0.00000000000E+00 -0.49824269687E+03  0.49824269687E+03  0.00000000000E+00 0. -1.
      99926    2    1    2    0    0  0.00000000000E+00 -0.35527136788E-14 -0.39301234381E+03  0.60347304993E+03  0.45795307576E+03 0.  0.
         25    1    3    3    0    0  0.18705293114E+02  0.95566474219E+02 -0.16999137422E+03  0.23243797967E+03  0.12509000000E+03 0.  0.
         25    1    3    3    0    0 -0.30687588701E+02  0.12859337968E+02 -0.11377041890E+03  0.17233196740E+03  0.12509000000E+03 0.  0.
         25    1    3    3    0    0  0.11982295587E+02 -0.10842581219E+03 -0.10925055070E+03  0.19870310285E+03  0.12509000000E+03 0.  0.
<mgrwt>
<rscale>  2 0.45795308E+03</rscale>
<asrwt>0</asrwt>
<pdfrwt beam="1">  1       21 0.15475052E-01 0.45795308E+03</pdfrwt>
<pdfrwt beam="2">  1       21 0.73270983E-01 0.45795308E+03</pdfrwt>
<totfact> 0.57120609E+04</totfact>
</mgrwt>
</event>
<event>
 6    0  0.1572624E-007  0.4549082E+03  0.7546771E-02  0.1026268E+00
         21   -1    0    0  502  501  0.00000000000E+00  0.00000000000E+00  0.11616010335E+04  0.11616010335E+04  0.00000000000E+00 0. -1.
         21   -1    0    0  501  502 -0.00000000000E+00 -0.00000000000E+00 -0.44537987015E+02  0.44537987015E+02  0.00000000000E+00 0. -1.
      99926    2    1    2    0    0  0.00000000000E+00  0.00000000000E+00  0.11170630464E+04  0.12061390205E+04  0.45490821819E+03 0.  0.
         25    1    3    3    0    0  0.10235205726E+03  0.24648318407E+02  0.36501521536E+03  0.39995887135E+03  0.12509000000E+03 0.  0.
         25    1    3    3    0    0 -0.20451230506E+02  0.30674939090E+01  0.45686294611E+03  0.47412964680E+03  0.12509000000E+03 0.  0.
         25    1    3    3    0    0 -0.81900826757E+02 -0.27715812317E+02  0.29518488497E+03  0.33205050232E+03  0.12509000000E+03 0.  0.
<mgrwt>
<rscale>  2 0.45490822E+03</rscale>
<asrwt>0</asrwt>
<pdfrwt beam="1">  1       21 0.17082366E+00 0.45490822E+03</pdfrwt>
<pdfrwt beam="2">  1       21 0.65497047E-02 0.45490822E+03</pdfrwt>
<totfact> 0.31984846E+04</totfact>
</mgrwt>
</event>
<event>
 6    0  0.1572624E-007  0.4422861E+03  0.7546771E-02  0.1030048E+00
         21   -1    0    0  502  501  0.00000000000E+00  0.00000000000E+00  0.23951848838E+02  0.23951848838E+02  0.00000000000E+00 0. -1.
         21   -1    0    0  501  502 -0.00000000000E+00 -0.00000000000E+00 -0.20417734134E+04  0.20417734134E+04  0.00000000000E+00 0. -1.
      99926    2    1    2    0    0  0.17763568394E-14  0.14210854715E-13 -0.20178215646E+04  0.20657252622E+04  0.44228609818E+03 0.  0.
         25    1    3    3    0    0 -0.37845883245E+02  0.92841917904E+02 -0.63781681418E+03  0.65765471880E+03  0.12509000000E+03 0.  0.
         25    1    3    3    0    0  0.26577041358E+02 -0.22506022955E+02 -0.80000960059E+03  0.81047870381E+03  0.12509000000E+03 0.  0.
         25    1    3    3    0    0  0.11268841887E+02 -0.70335894949E+02 -0.57999514979E+03  0.59759183963E+03  0.12509000000E+03 0.  0.
<mgrwt>
<rscale>  2 0.44228610E+03</rscale>
<asrwt>0</asrwt>
<pdfrwt beam="1">  1       21 0.35223299E-02 0.44228610E+03</pdfrwt>
<pdfrwt beam="2">  1       21 0.30026086E+00 0.44228610E+03</pdfrwt>
<totfact> 0.13997872E+04</totfact>
</mgrwt>
</event>
<event>
 6    0  0.1572624E-007  0.4571604E+03  0.7546771E-02  0.1025608E+00
         21   -1    0    0  502  501  0.00000000000E+00  0.00000000000E+00  0.57600316336E+03  0.57600316336E+03  0.00000000000E+00 0. -1.
         21   -1    0    0  501  502 -0.00000000000E+00 -0.00000000000E+00 -0.90709403817E+02  0.90709403817E+02  0.00000000000E+00 0. -1.
      99926    2    1    2    0    0  0.17763568394E-14  0.00000000000E+00  0.48529375954E+03  0.66671256718E+03  0.45716038125E+03 0.  0.
         25    1    3    3    0    0  0.92476091911E+01 -0.65607222959E+02  0.17507283759E+03  0.22513958458E+03  0.12509000000E+03 0.  0.
         25    1    3    3    0    0 -0.34994015442E+02  0.14974001040E+02  0.26742526647E+03  0.29767865740E+03  0.12509000000E+03 0.  0.
         25    1    3    3    0    0  0.25746406251E+02  0.50633221920E+02  0.42795655476E+02  0.14389432520E+03  0.12509000000E+03 0.  0.
<mgrwt>
<rscale>  2 0.45716038E+03</rscale>
<asrwt>0</asrwt>
<pdfrwt beam="1">  1       21 0.84706346E-01 0.45716038E+03</pdfrwt>
<pdfrwt beam="2">  1       21 0.13339618E-01 0.45716038E+03</pdfrwt>
<totfact> 0.53825029E+04</totfact>
</mgrwt>
</event>
<event>
 6    0  0.1572624E-007  0.4513419E+03  0.7546771E-02  0.1027323E+00
         21   -1    0    0  502  501  0.00000000000E+00  0.00000000000E+00  0.40312384561E+03  0.40312384561E+03  0.00000000000E+00 0.  1.
         21   -1    0    0  501  502 -0.00000000000E+00 -0.00000000000E+00 -0.12633181779E+03  0.12633181779E+03  0.00000000000E+00 0.  1.
      99926    2    1    2    0    0  0.00000000000E+00  0.00000000000E+00  0.27679202782E+03  0.52945566341E+03  0.45134185807E+03 0.  0.
         25    1    3    3    0    0 -0.10344216639E+03  0.23359240048E+01  0.11410431926E+03  0.19842641483E+03  0.12509000000E+03 0.  0.
         25    1    3    3    0    0  0.12587817405E+02 -0.47537561702E+01  0.35243182659E+02  0.13065466455E+03  0.12509000000E+03 0.  0.
         25    1    3    3    0    0  0.90854348984E+02  0.24178321655E+01  0.12744452590E+03  0.20037458403E+03  0.12509000000E+03 0.  0.
<mgrwt>
<rscale>  2 0.45134186E+03</rscale>
<asrwt>0</asrwt>
<pdfrwt beam="1">  1       21 0.59282918E-01 0.45134186E+03</pdfrwt>
<pdfrwt beam="2">  1       21 0.18578209E-01 0.45134186E+03</pdfrwt>
<totfact> 0.65109909E+04</totfact>
</mgrwt>
</event>
<event>
 6    0  0.1572624E-007  0.4574183E+03  0.7546771E-02  0.1025533E+00
         21   -1    0    0  502  501  0.00000000000E+00  0.00000000000E+00  0.30588449384E+02  0.30588449384E+02  0.00000000000E+00 0. -1.
         21   -1    0    0  501  502 -0.00000000000E+00 -0.00000000000E+00 -0.17100533458E+04  0.17100533458E+04  0.00000000000E+00 0. -1.
      99926    2    1    2    0    0  0.17763568394E-14  0.17763568394E-14 -0.16794648965E+04  0.17406417952E+04  0.45741832151E+03 0.  0.
         25    1    3    3    0    0  0.72308779748E+01 -0.14774823744E+02 -0.46171745804E+03  0.47864506701E+03  0.12509000000E+03 0.  0.
         25    1    3    3    0    0 -0.52450745063E+02 -0.86396809100E+02 -0.68643080295E+03  0.70501790376E+03  0.12509000000E+03 0.  0.
         25    1    3    3    0    0  0.45219867088E+02  0.10117163284E+03 -0.53131663547E+03  0.55697882446E+03  0.12509000000E+03 0.  0.
<mgrwt>
<rscale>  2 0.45741832E+03</rscale>
<asrwt>0</asrwt>
<pdfrwt beam="1">  1       21 0.44983011E-02 0.45741832E+03</pdfrwt>
<pdfrwt beam="2">  1       21 0.25147845E+00 0.45741832E+03</pdfrwt>
<totfact> 0.18086453E+04</totfact>
</mgrwt>
</event>
<event>
 6    0  0.1572624E-007  0.4559783E+03  0.7546771E-02  0.1025954E+00
         21   -1    0    0  502  501  0.00000000000E+00  0.00000000000E+00  0.22796569689E+02  0.22796569689E+02  0.00000000000E+00 0.  1.
         21   -1    0    0  501  502 -0.00000000000E+00 -0.00000000000E+00 -0.22801259106E+04  0.22801259106E+04  0.00000000000E+00 0.  1.
      99926    2    1    2    0    0  0.00000000000E+00  0.00000000000E+00 -0.22573293409E+04  0.23029224803E+04  0.45597828554E+03 0.  0.
         25    1    3    3    0    0  0.23579148633E+02 -0.68284158560E+02 -0.10318710361E+04  0.10419328413E+04  0.12509000000E+03 0.  0.
         25    1    3    3    0    0 -0.32554008907E+02  0.41085020612E+02 -0.33631366037E+03  0.36263222232E+03  0.12509000000E+03 0.  0.
         25    1    3    3    0    0  0.89748602740E+01  0.27199137949E+02 -0.88914464445E+03  0.89835741667E+03  0.12509000000E+03 0.  0.
<mgrwt>
<rscale>  2 0.45597829E+03</rscale>
<asrwt>0</asrwt>
<pdfrwt beam="1">  1       21 0.33524356E-02 0.45597829E+03</pdfrwt>
<pdfrwt beam="2">  1       21 0.33531275E+00 0.45597829E+03</pdfrwt>
<totfact> 0.92936809E+03</totfact>
</mgrwt>
</event>
<event>
 6    0  0.1572624E-007  0.4528244E+03  0.7546771E-02  0.1026883E+00
         21   -1    0    0  502  501  0.00000000000E+00  0.00000000000E+00  0.15206151550E+04  0.15206151550E+04  0.00000000000E+00 0. -1.
         21   -1    0    0  501  502 -0.00000000000E+00 -0.00000000000E+00 -0.33711672099E+02  0.33711672099E+02  0.00000000000E+00 0. -1.
      99926    2    1    2    0    0  0.14210854715E-13  0.00000000000E+00  0.14869034829E+04  0.15543268271E+04  0.45282437874E+03 0.  0.
         25    1    3    3    0    0  0.10251026498E+03  0.21762163385E+02  0.56722835254E+03  0.59023508724E+03  0.12509000000E+03 0.  0.
         25    1    3    3    0    0 -0.16722237445E+02 -0.47186002151E+02  0.39554848318E+03  0.41786632153E+03  0.12509000000E+03 0.  0.
         25    1    3    3    0    0 -0.85788027538E+02  0.25423838766E+02  0.52412664722E+03  0.54622541837E+03  0.12509000000E+03 0.  0.
<mgrwt>
<rscale>  2 0.45282438E+03</rscale>
<asrwt>0</asrwt>
<pdfrwt beam="1">  1       21 0.22361983E+00 0.45282438E+03</pdfrwt>
<pdfrwt beam="2">  1       21 0.49575999E-02 0.45282438E+03</pdfrwt>
<totfact> 0.22862415E+04</totfact>
</mgrwt>
</event>
<event>
 6    0  0.1572624E-007  0.4568563E+03  0.7546771E-02  0.1025697E+00
         21   -1    0    0  502  501  0.00000000000E+00  0.00000000000E+00  0.80343382303E+02  0.80343382303E+02  0.00000000000E+00 0. -1.
         21   -1    0    0  501  502 -0.00000000000E+00 -0.00000000000E+00 -0.64945512888E+03  0.64945512888E+03  0.00000000000E+00 0. -1.
      99926    2    1    2    0    0 -0.14210854715E-13  0.00000000000E+00 -0.56911174658E+03  0.72979851119E+03  0.45685630874E+03 0.  0.
         25    1    3    3    0    0  0.64788985549E+02 -0.56444263950E+02 -0.17061016618E+03  0.22833945013E+03  0.12509000000E+03 0.  0.
         25    1    3    3    0    0 -0.89111516947E+02 -0.12693336209E+02 -0.25172419564E+03  0.29515176098E+03  0.12509000000E+03 0.  0.
         25    1    3    3    0    0  0.24322531398E+02  0.69137600159E+02 -0.14677738476E+03  0.20630730008E+03  0.12509000000E+03 0.  0.
<mgrwt>
<rscale>  2 0.45685631E+03</rscale>
<asrwt>0</asrwt>
<pdfrwt beam="1">  1       21 0.11815203E-01 0.45685631E+03</pdfrwt>
<pdfrwt beam="2">  1       21 0.95508109E-01 0.45685631E+03</pdfrwt>
<totfact> 0.50572537E+04</totfact>
</mgrwt>
</event>
<event>
 6    0  0.1572624E-007  0.4499640E+03  0.7546771E-02  0.1027733E+00
         21   -1    0    0  502  501  0.00000000000E+00  0.00000000000E+00  0.23845029926E+03  0.23845029926E+03  0.00000000000E+00 0. -1.
         21   -1    0    0  501  502 -0.00000000000E+00 -0.00000000000E+00 -0.21227442224E+03  0.21227442224E+03  0.00000000000E+00 0. -1.
      99926    2    1    2    0    0  0.17763568394E-14  0.35527136788E-14  0.26175877023E+02  0.45072472150E+03  0.44996399638E+03 0.  0.
         25    1    3    3    0    0  0.42222122829E+02 -0.88667797192E+02 -0.45374042042E+02  0.16538137049E+03  0.12509000000E+03 0.  0.
         25    1    3    3    0    0 -0.29721101888E+02  0.70006308177E+02  0.58249275339E+02  0.15755860262E+03  0.12509000000E+03 0.  0.
         25    1    3    3    0    0 -0.12501020941E+02  0.18661489015E+02  0.13300643726E+02  0.12778474839E+03  0.12509000000E+03 0.  0.
<mgrwt>
<rscale>  2 0.44996400E+03</rscale>
<asrwt>0</asrwt>
<pdfrwt beam="1">  1       21 0.35066221E-01 0.44996400E+03</pdfrwt>
<pdfrwt beam="2">  1       21 0.31216827E-01 0.44996400E+03</pdfrwt>
<totfact> 0.71698078E+04</totfact>
</mgrwt>
</event>
<event>
 6    0  0.1572624E-007  0.4558541E+03  0.7546771E-02  0.1025991E+00
         21   -1    0    0  502  501  0.00000000000E+00  0.00000000000E+00  0.71619280814E+02  0.71619280814E+02  0.00000000000E+00 0.  1.
         21   -1    0    0  501  502 -0.00000000000E+00 -0.00000000000E+00 -0.72537362460E+03  0.72537362460E+03  0.00000000000E+00 0.  1.
      99926    2    1    2    0    0  0.00000000000E+00  0.35527136788E-14 -0.65375434379E+03  0.79699290541E+03  0.45585408769E+03 0.  0.
         25    1    3    3    0    0  0.98923225112E+02 -0.23401958118E+02 -0.15540185622E+03  0.22389886361E+03  0.12509000000E+03 0.  0.
         25    1    3    3    0    0 -0.91950591165E+02 -0.11197793270E+01 -0.27989282634E+03  0.32006822313E+03  0.12509000000E+03 0.  0.
         25    1    3    3    0    0 -0.69726339465E+01  0.24521737445E+02 -0.21845966123E+03  0.25302581867E+03  0.12509000000E+03 0.  0.
<mgrwt>
<rscale>  2 0.45585409E+03</rscale>
<asrwt>0</asrwt>
<pdfrwt beam="1">  1       21 0.10532247E-01 0.45585409E+03</pdfrwt>
<pdfrwt beam="2">  1       21 0.10667259E+00 0.45585409E+03</pdfrwt>
<totfact> 0.47590808E+04</totfact>
</mgrwt>
</event>
<event>
 6    0  0.1572624E-007  0.4502603E+03  0.7546771E-02  0.1027644E+00
         21   -1    0    0  502  501  0.00000000000E+00  0.00000000000E+00  0.43216162510E+02  0.43216162510E+02  0.00000000000E+00 0.  1.
         21   -1    0    0  501  502 -0.00000000000E+00 -0.00000000000E+00 -0.11727921586E+04  0.11727921586E+04  0.00000000000E+00 0.  1.
      99926    2    1    2    0    0  0.00000000000E+00  0.00000000000E+00 -0.11295759960E+04  0.12160083211E+04  0.45026026480E+03 0.  0.
         25    1    3    3    0    0 -0.12562455277E+02 -0.43499481291E+02 -0.34099224013E+03  0.36602354581E+03  0.12509000000E+03 0.  0.
         25    1    3    3    0    0 -0.33434454263E+02 -0.48639939696E+02 -0.23009929853E+03  0.26847141701E+03  0.12509000000E+03 0.  0.
         25    1    3    3    0    0  0.45996909540E+02  0.92139420987E+02 -0.55848445738E+03  0.58151335825E+03  0.12509000000E+03 0.  0.
<mgrwt>
<rscale>  2 0.45026026E+03</rscale>
<asrwt>0</asrwt>
<pdfrwt beam="1">  1       21 0.63553179E-02 0.45026026E+03</pdfrwt>
<pdfrwt beam="2">  1       21 0.17246944E+00 0.45026026E+03</pdfrwt>
<totfact> 0.32848646E+04</totfact>
</mgrwt>
</event>
<event>
 6    0  0.1572624E-007  0.4485823E+03  0.7546771E-02  0.1028146E+00
         21   -1    0    0  502  501  0.00000000000E+00  0.00000000000E+00  0.10725741469E+03  0.10725741469E+03  0.00000000000E+00 0. -1.
         21   -1    0    0  501  502 -0.00000000000E+00 -0.00000000000E+00 -0.46902607982E+03  0.46902607982E+03  0.00000000000E+00 0. -1.
      99926    2    1    2    0    0  0.00000000000E+00  0.00000000000E+00 -0.36176866513E+03  0.57628349451E+03  0.44858232129E+03 0.  0.
         25    1    3    3    0    0 -0.29185014454E+02  0.44008297726E+02 -0.11349562239E+03  0.17696683231E+03  0.12509000000E+03 0.  0.
         25    1    3    3    0    0  0.23262122293E+02 -0.11114779411E+03 -0.11393286458E+03  0.20377233424E+03  0.12509000000E+03 0.  0.
         25    1    3    3    0    0  0.59228921612E+01  0.67139496388E+02 -0.13434017816E+03  0.19554432795E+03  0.12509000000E+03 0.  0.
<mgrwt>
<rscale>  2 0.44858232E+03</rscale>
<asrwt>0</asrwt>
<pdfrwt beam="1">  1       21 0.15773149E-01 0.44858232E+03</pdfrwt>
<pdfrwt beam="2">  1       21 0.68974425E-01 0.44858232E+03</pdfrwt>
<totfact> 0.63314311E+04</totfact>
</mgrwt>
</event>
<event>
 6    0  0.1572624E-007  0.4227804E+03  0.7546771E-02  0.1036165E+00
         21   -1    0    0  502  501  0.00000000000E+00  0.00000000000E+00  0.13537152233E+03  0.13537152233E+03  0.00000000000E+00 0. -1.
         21   -1    0    0  501  502 -0.00000000000E+00 -0.00000000000E+00 -0.33009757846E+03  0.33009757846E+03  0.00000000000E+00 0. -1.
      99926    2    1    2    0    0  0.00000000000E+00  0.00000000000E+00 -0.19472605612E+03  0.46546910079E+03  0.42278037663E+03 0.  0.
         25    1    3    3    0    0  0.55913850683E+02  0.31262570211E+02 -0.63322326452E+02  0.15414581448E+03  0.12509000000E+03 0.  0.
         25    1    3    3    0    0 -0.45835165002E+02 -0.37078198271E+02 -0.13349753465E+02  0.13892940349E+03  0.12509000000E+03 0.  0.
         25    1    3    3    0    0 -0.10078685682E+02  0.58156280593E+01 -0.11805397621E+03  0.17239388282E+03  0.12509000000E+03 0.  0.
<mgrwt>
<rscale>  2 0.42278038E+03</rscale>
<asrwt>0</asrwt>
<pdfrwt beam="1">  1       21 0.19907577E-01 0.42278038E+03</pdfrwt>
<pdfrwt beam="2">  1       21 0.48543761E-01 0.42278038E+03</pdfrwt>
<totfact> 0.88281636E+04</totfact>
</mgrwt>
</event>
<event>
 6    0  0.1572624E-007  0.4575474E+03  0.7546771E-02  0.1025495E+00
         21   -1    0    0  502  501  0.00000000000E+00  0.00000000000E+00  0.29592695816E+02  0.29592695816E+02  0.00000000000E+00 0. -1.
         21   -1    0    0  501  502 -0.00000000000E+00 -0.00000000000E+00 -0.17685916964E+04  0.17685916964E+04  0.00000000000E+00 0. -1.
      99926    2    1    2    0    0  0.00000000000E+00 -0.17763568394E-14 -0.17389990006E+04  0.17981843922E+04  0.45754735752E+03 0.  0.
         25    1    3    3    0    0 -0.54897203051E+02  0.11873778990E+02 -0.34998091022E+03  0.37588407143E+03  0.12509000000E+03 0.  0.
         25    1    3    3    0    0 -0.12509601064E+02 -0.44123836976E+02 -0.37707214857E+03  0.39991788712E+03  0.12509000000E+03 0.  0.
         25    1    3    3    0    0  0.67406804115E+02  0.32250057986E+02 -0.10119459418E+04  0.10223824337E+04  0.12509000000E+03 0.  0.
<mgrwt>
<rscale>  2 0.45754736E+03</rscale>
<asrwt>0</asrwt>
<pdfrwt beam="1">  1       21 0.43518656E-02 0.45754736E+03</pdfrwt>
<pdfrwt beam="2">  1       21 0.26008710E+00 0.45754736E+03</pdfrwt>
<totfact> 0.16956521E+04</totfact>
</mgrwt>
</event>
<event>
 6    0  0.1572624E-007  0.4593877E+03  0.7546771E-02  0.1024959E+00
         21   -1    0    0  502  501  0.00000000000E+00  0.00000000000E+00  0.13559803910E+03  0.13559803910E+03  0.00000000000E+00 0.  1.
         21   -1    0    0  501  502 -0.00000000000E+00 -0.00000000000E+00 -0.38908575210E+03  0.38908575210E+03  0.00000000000E+00 0.  1.
      99926    2    1    2    0    0  0.00000000000E+00  0.00000000000E+00 -0.25348771299E+03  0.52468379120E+03  0.45938770130E+03 0.  0.
         25    1    3    3    0    0  0.54394015867E+02 -0.79340165532E+02 -0.72371185961E+02  0.17360491780E+03  0.12509000000E+03 0.  0.
         25    1    3    3    0    0  0.42081723951E+02  0.32551228093E+02 -0.78236305658E+02  0.15684030593E+03  0.12509000000E+03 0.  0.
         25    1    3    3    0    0 -0.96475739817E+02  0.46788937438E+02 -0.10288022138E+03  0.19423856746E+03  0.12509000000E+03 0.  0.
<mgrwt>
<rscale>  2 0.45938770E+03</rscale>
<asrwt>0</asrwt>
<pdfrwt beam="1">  1       21 0.19940889E-01 0.45938770E+03</pdfrwt>
<pdfrwt beam="2">  1       21 0.57218491E-01 0.45938770E+03</pdfrwt>
<totfact> 0.61403842E+04</totfact>
</mgrwt>
</event>
<event>
 6    0  0.1572624E-007  0.4549047E+03  0.7546771E-02  0.1026269E+00
         21   -1    0    0  502  501  0.00000000000E+00  0.00000000000E+00  0.24801677244E+03  0.24801677244E+03  0.00000000000E+00 0.  1.
         21   -1    0    0  501  502 -0.00000000000E+00 -0.00000000000E+00 -0.20859303938E+03  0.20859303938E+03  0.00000000000E+00 0.  1.
      99926    2    1    2    0    0  0.00000000000E+00 -0.14210854715E-13  0.39423733056E+02  0.45660981182E+03  0.45490470378E+03 0.  0.
         25    1    3    3    0    0  0.35409941938E+02 -0.80401370486E+02  0.29221977373E+02  0.15562672144E+03  0.12509000000E+03 0.  0.
         25    1    3    3    0    0  0.42860285713E+02  0.29258165712E+01 -0.12197697918E+02  0.13282265028E+03  0.12509000000E+03 0.  0.
         25    1    3    3    0    0 -0.78270227651E+02  0.77475553915E+02  0.22399453601E+02  0.16816044009E+03  0.12509000000E+03 0.  0.
<mgrwt>
<rscale>  2 0.45490470E+03</rscale>
<asrwt>0</asrwt>
<pdfrwt beam="1">  1       21 0.36473055E-01 0.45490470E+03</pdfrwt>
<pdfrwt beam="2">  1       21 0.30675447E-01 0.45490470E+03</pdfrwt>
<totfact> 0.68480097E+04</totfact>
</mgrwt>
</event>
<event>
 6    0  0.1572624E-007  0.4487977E+03  0.7546771E-02  0.1028081E+00
         21   -1    0    0  502  501  0.00000000000E+00  0.00000000000E+00  0.21476128358E+03  0.21476128358E+03  0.00000000000E+00 0.  1.
         21   -1    0    0  501  502 -0.00000000000E+00 -0.00000000000E+00 -0.23446887442E+03  0.23446887442E+03  0.00000000000E+00 0.  1.
      99926    2    1    2    0    0  0.00000000000E+00  0.35527136788E-14 -0.19707590840E+02  0.44923015799E+03  0.44879766679E+03 0.  0.
         25    1    3    3    0    0 -0.26847046478E+02  0.69167478602E+02  0.32945038326E+02  0.14912339740E+03  0.12509000000E+03 0.  0.
         25    1    3    3    0    0  0.14238096946E+02  0.23537548891E+02 -0.64590456161E+02  0.14344397770E+03  0.12509000000E+03 0.  0.
         25    1    3    3    0    0  0.12608949531E+02 -0.92705027493E+02  0.11937826995E+02  0.15666278289E+03  0.12509000000E+03 0.  0.
<mgrwt>
<rscale>  2 0.44879767E+03</rscale>
<asrwt>0</asrwt>
<pdfrwt beam="1">  1       21 0.31582542E-01 0.44879767E+03</pdfrwt>
<pdfrwt beam="2">  1       21 0.34480717E-01 0.44879767E+03</pdfrwt>
<totfact> 0.72492187E+04</totfact>
</mgrwt>
</event>
<event>
 6    0  0.1572624E-007  0.4500789E+03  0.7546771E-02  0.1027699E+00
         21   -1    0    0  502  501  0.00000000000E+00  0.00000000000E+00  0.10913272401E+03  0.10913272401E+03  0.00000000000E+00 0.  1.
         21   -1    0    0  501  502 -0.00000000000E+00 -0.00000000000E+00 -0.46404747248E+03  0.46404747248E+03  0.00000000000E+00 0.  1.
      99926    2    1    2    0    0 -0.53290705182E-14  0.71054273576E-14 -0.35491474847E+03  0.57318019649E+03  0.45007894748E+03 0.  0.
         25    1    3    3    0    0  0.11115251043E+02 -0.46104875077E+02 -0.41038584536E+02  0.13993170417E+03  0.12509000000E+03 0.  0.
         25    1    3    3    0    0  0.64617944535E+02  0.11678553163E+02 -0.10529801128E+03  0.17620172145E+03  0.12509000000E+03 0.  0.
         25    1    3    3    0    0 -0.75733195577E+02  0.34426321914E+02 -0.20857815265E+03  0.25704677087E+03  0.12509000000E+03 0.  0.
<mgrwt>
<rscale>  2 0.45007895E+03</rscale>
<asrwt>0</asrwt>
<pdfrwt beam="1">  1       21 0.16048930E-01 0.45007895E+03</pdfrwt>
<pdfrwt beam="2">  1       21 0.68242274E-01 0.45007895E+03</pdfrwt>
<totfact> 0.62767143E+04</totfact>
</mgrwt>
</event>
<event>
 6    0  0.1572624E-007  0.4503288E+03  0.7546771E-02  0.1027624E+00
         21   -1    0    0  502  501  0.00000000000E+00  0.00000000000E+00  0.38271514094E+03  0.38271514094E+03  0.00000000000E+00 0. -1.
         21   -1    0    0  501  502 -0.00000000000E+00 -0.00000000000E+00 -0.13247192131E+03  0.13247192131E+03  0.00000000000E+00 0. -1.
      99926    2    1    2    0    0  0.00000000000E+00  0.14210854715E-13  0.25024321963E+03  0.51518706225E+03  0.45032881335E+03 0.  0.
         25    1    3    3    0    0 -0.80034703822E+02  0.65689231685E+02  0.57247801141E+02  0.17217853470E+03  0.12509000000E+03 0.  0.
         25    1    3    3    0    0  0.60626802133E+02 -0.51404511659E-02  0.11531183457E+03  0.18060990132E+03  0.12509000000E+03 0.  0.
         25    1    3    3    0    0  0.19407901689E+02 -0.65684091234E+02  0.77683583925E+02  0.16239862623E+03  0.12509000000E+03 0.  0.
<mgrwt>
<rscale>  2 0.45032881E+03</rscale>
<asrwt>0</asrwt>
<pdfrwt beam="1">  1       21 0.56281638E-01 0.45032881E+03</pdfrwt>
<pdfrwt beam="2">  1       21 0.19481165E-01 0.45032881E+03</pdfrwt>
<totfact> 0.66652643E+04</totfact>
</mgrwt>
</event>
<event>
 6    0  0.1572624E-007  0.4511428E+03  0.7546771E-02  0.1027382E+00
         21   -1    0    0  502  501  0.00000000000E+00  0.00000000000E+00  0.10910640074E+04  0.10910640074E+04  0.00000000000E+00 0.  1.
         21   -1    0    0  501  502 -0.00000000000E+00 -0.00000000000E+00 -0.46635622978E+02  0.46635622978E+02  0.00000000000E+00 0.  1.
      99926    2    1    2    0    0 -0.71054273576E-14  0.00000000000E+00  0.10444283844E+04  0.11376996304E+04  0.45114276984E+03 0.  0.
         25    1    3    3    0    0 -0.10221196271E+02 -0.83693901680E+02  0.28018804837E+03  0.31821689550E+03  0.12509000000E+03 0.  0.
         25    1    3    3    0    0  0.47962266289E+02  0.55379654604E+02  0.25853276238E+03  0.29640172479E+03  0.12509000000E+03 0.  0.
         25    1    3    3    0    0 -0.37741070017E+02  0.28314247076E+02  0.50570757367E+03  0.52308101010E+03  0.12509000000E+03 0.  0.
<mgrwt>
<rscale>  2 0.45114277E+03</rscale>
<asrwt>0</asrwt>
<pdfrwt beam="1">  1       21 0.16045057E+00 0.45114277E+03</pdfrwt>
<pdfrwt beam="2">  1       21 0.68581806E-02 0.45114277E+03</pdfrwt>
<totfact> 0.35243478E+04</totfact>
</mgrwt>
</event>
<event>
 6    0  0.1572624E-007  0.4587544E+03  0.7546771E-02  0.1025143E+00
         21   -1    0    0  502  501  0.00000000000E+00  0.00000000000E+00  0.17196264572E+03  0.17196264572E+03  0.00000000000E+00 0. -1.
         21   -1    0    0  501  502 -0.00000000000E+00 -0.00000000000E+00 -0.30596123412E+03  0.30596123412E+03  0.00000000000E+00 0. -1.
      99926    2    1    2    0    0  0.00000000000E+00  0.00000000000E+00 -0.13399858840E+03  0.47792387985E+03  0.45875441495E+03 0.  0.
         25    1    3    3    0    0 -0.54928748164E+02  0.30213601109E+02 -0.12239889943E+03  0.18590058566E+03  0.12509000000E+03 0.  0.
         25    1    3    3    0    0  0.18548657771E+02 -0.10022812218E+01 -0.71963114668E+02  0.14550345441E+03  0.12509000000E+03 0.  0.
         25    1    3    3    0    0  0.36380090393E+02 -0.29211319887E+02  0.60363425694E+02  0.14651983978E+03  0.12509000000E+03 0.  0.
<mgrwt>
<rscale>  2 0.45875441E+03</rscale>
<asrwt>0</asrwt>
<pdfrwt beam="1">  1       21 0.25288625E-01 0.45875441E+03</pdfrwt>
<pdfrwt beam="2">  1       21 0.44994299E-01 0.45875441E+03</pdfrwt>
<totfact> 0.64896269E+04</totfact>
</mgrwt>
</event>
<event>
 6    0  0.1572624E-007  0.4671661E+03  0.7546771E-02  0.1022723E+00
         21   -1    0    0  502  501  0.00000000000E+00  0.00000000000E+00  0.17483952788E+04  0.17483952788E+04  0.00000000000E+00 0. -1.
         21   -1    0    0  501  502 -0.00000000000E+00 -0.00000000000E+00 -0.31206348381E+02  0.31206348381E+02  0.00000000000E+00 0. -1.
      99926    2    1    2    0    0 -0.53290705182E-14 -0.35527136788E-14  0.17171889304E+04  0.17796016272E+04  0.46716606118E+03 0.  0.
         25    1    3    3    0    0 -0.70768268299E+02 -0.46746262595E+02  0.72160467126E+03  0.73726126342E+03  0.12509000000E+03 0.  0.
         25    1    3    3    0    0  0.63454944472E+02  0.16246347774E+02  0.26315704822E+03  0.29864630237E+03  0.12509000000E+03 0.  0.
         25    1    3    3    0    0  0.73133238270E+01  0.30499914821E+02  0.73242721095E+03  0.74369406140E+03  0.12509000000E+03 0.  0.
<mgrwt>
<rscale>  2 0.46716606E+03</rscale>
<asrwt>0</asrwt>
<pdfrwt beam="1">  1       21 0.25711689E+00 0.46716606E+03</pdfrwt>
<pdfrwt beam="2">  1       21 0.45891701E-02 0.46716606E+03</pdfrwt>
<totfact> 0.16081359E+04</totfact>
</mgrwt>
</event>
<event>
 6    0  0.1572624E-007  0.4362814E+03  0.7546771E-02  0.1031894E+00
         21   -1    0    0  502  501  0.00000000000E+00  0.00000000000E+00  0.63686066113E+02  0.63686066113E+02  0.00000000000E+00 0. -1.
         21   -1    0    0  501  502 -0.00000000000E+00 -0.00000000000E+00 -0.74718631343E+03  0.74718631343E+03  0.00000000000E+00 0. -1.
      99926    2    1    2    0    0  0.71054273576E-14  0.35527136788E-14 -0.68350024731E+03  0.81087237954E+03  0.43628136314E+03 0.  0.
         25    1    3    3    0    0 -0.43611186611E+02 -0.54259275331E+02 -0.29007863182E+03  0.32347971389E+03  0.12509000000E+03 0.  0.
         25    1    3    3    0    0  0.33350141627E+01  0.36007953753E+02 -0.96171337886E+02  0.16187689577E+03  0.12509000000E+03 0.  0.
         25    1    3    3    0    0  0.40276172448E+02  0.18251321578E+02 -0.29725027761E+03  0.32551576989E+03  0.12509000000E+03 0.  0.
<mgrwt>
<rscale>  2 0.43628136E+03</rscale>
<asrwt>0</asrwt>
<pdfrwt beam="1">  1       21 0.93655981E-02 0.43628136E+03</pdfrwt>
<pdfrwt beam="2">  1       21 0.10988034E+00 0.43628136E+03</pdfrwt>
<totfact> 0.54870134E+04</totfact>
</mgrwt>
</event>
<event>
 6    0  0.1572624E-007  0.4532293E+03  0.7546771E-02  0.1026763E+00
         21   -1    0    0  502  501  0.00000000000E+00  0.00000000000E+00  0.11812157013E+03  0.11812157013E+03  0.00000000000E+00 0.  1.
         21   -1    0    0  501  502 -0.00000000000E+00 -0.00000000000E+00 -0.43475718139E+03  0.43475718139E+03  0.00000000000E+00 0.  1.
      99926    2    1    2    0    0  0.00000000000E+00  0.71054273576E-14 -0.31663561125E+03  0.55287875152E+03  0.45322930573E+03 0.  0.
         25    1    3    3    0    0 -0.31630673126E+02 -0.73202571423E+02 -0.19437288891E+03  0.24451471119E+03  0.12509000000E+03 0.  0.
         25    1    3    3    0    0  0.34104028309E+02  0.87620009123E+02 -0.78188859093E+02  0.17493243419E+03  0.12509000000E+03 0.  0.
         25    1    3    3    0    0 -0.24733551834E+01 -0.14417437700E+02 -0.44073863252E+02  0.13343160614E+03  0.12509000000E+03 0.  0.
<mgrwt>
<rscale>  2 0.45322931E+03</rscale>
<asrwt>0</asrwt>
<pdfrwt beam="1">  1       21 0.17370819E-01 0.45322931E+03</pdfrwt>
<pdfrwt beam="2">  1       21 0.63934879E-01 0.45322931E+03</pdfrwt>
<totfact> 0.62548294E+04</totfact>
</mgrwt>
</event>
<event>
 6    0  0.1572624E-007  0.4633524E+03  0.7546771E-02  0.1023813E+00
         21   -1    0    0  502  501  0.00000000000E+00  0.00000000000E+00  0.13141877357E+04  0.13141877357E+04  0.00000000000E+00 0. -1.
         21   -1    0    0  501  502 -0.00000000000E+00 -0.00000000000E+00 -0.40841844861E+02  0.40841844861E+02  0.00000000000E+00 0. -1.
      99926    2    1    2    0    0  0.00000000000E+00 -0.14210854715E-13  0.12733458908E+04  0.13550295805E+04  0.46335235672E+03 0.  0.
         25    1    3    3    0    0  0.30805223192E+02  0.10601596871E+03  0.50851192564E+03  0.53518243059E+03  0.12509000000E+03 0.  0.
         25    1    3    3    0    0  0.19829310917E+02 -0.76160088341E+02  0.29262640278E+03  0.32782812620E+03  0.12509000000E+03 0.  0.
         25    1    3    3    0    0 -0.50634534109E+02 -0.29855880366E+02  0.47220756241E+03  0.49201902375E+03  0.12509000000E+03 0.  0.
<mgrwt>
<rscale>  2 0.46335236E+03</rscale>
<asrwt>0</asrwt>
<pdfrwt beam="1">  1       21 0.19326287E+00 0.46335236E+03</pdfrwt>
<pdfrwt beam="2">  1       21 0.60061545E-02 0.46335236E+03</pdfrwt>
<totfact> 0.25836851E+04</totfact>
</mgrwt>
</event>
<event>
 6    0  0.1572624E-007  0.4660727E+03  0.7546771E-02  0.1023035E+00
         21   -1    0    0  502  501  0.00000000000E+00  0.00000000000E+00  0.62098561181E+02  0.62098561181E+02  0.00000000000E+00 0. -1.
         21   -1    0    0  501  502 -0.00000000000E+00 -0.00000000000E+00 -0.87451216911E+03  0.87451216911E+03  0.00000000000E+00 0. -1.
      99926    2    1    2    0    0 -0.71054273576E-14 -0.17763568394E-14 -0.81241360793E+03  0.93661073029E+03  0.46607273011E+03 0.  0.
         25    1    3    3    0    0 -0.58797348307E+02 -0.10478988840E+02 -0.30273983850E+03  0.33296524637E+03  0.12509000000E+03 0.  0.
         25    1    3    3    0    0  0.36244766379E+02 -0.81678957724E+01 -0.75269313836E+02  0.15064320535E+03  0.12509000000E+03 0.  0.
         25    1    3    3    0    0  0.22552581928E+02  0.18646884612E+02 -0.43440445559E+03  0.45300227857E+03  0.12509000000E+03 0.  0.
<mgrwt>
<rscale>  2 0.46607273E+03</rscale>
<asrwt>0</asrwt>
<pdfrwt beam="1">  1       21 0.91321416E-02 0.46607273E+03</pdfrwt>
<pdfrwt beam="2">  1       21 0.12860473E+00 0.46607273E+03</pdfrwt>
<totfact> 0.38263859E+04</totfact>
</mgrwt>
</event>
<event>
 6    0  0.1572624E-007  0.4553665E+03  0.7546771E-02  0.1026134E+00
         21   -1    0    0  502  501  0.00000000000E+00  0.00000000000E+00  0.17446717617E+04  0.17446717617E+04  0.00000000000E+00 0.  1.
         21   -1    0    0  501  502 -0.00000000000E+00 -0.00000000000E+00 -0.29713131020E+02  0.29713131020E+02  0.00000000000E+00 0.  1.
      99926    2    1    2    0    0  0.71054273576E-14 -0.71054273576E-14  0.17149586307E+04  0.17743848928E+04  0.45536649259E+03 0.  0.
         25    1    3    3    0    0 -0.61607672003E+02  0.39689891984E+02  0.48881880681E+03  0.50986481224E+03  0.12509000000E+03 0.  0.
         25    1    3    3    0    0  0.11347381815E+03 -0.13810322841E+02  0.74419316971E+03  0.76324177976E+03  0.12509000000E+03 0.  0.
         25    1    3    3    0    0 -0.51866146152E+02 -0.25879569143E+02  0.48194665420E+03  0.50127830076E+03  0.12509000000E+03 0.  0.
<mgrwt>
<rscale>  2 0.45536649E+03</rscale>
<asrwt>0</asrwt>
<pdfrwt beam="1">  1       21 0.25656931E+00 0.45536649E+03</pdfrwt>
<pdfrwt beam="2">  1       21 0.43695793E-02 0.45536649E+03</pdfrwt>
<totfact> 0.17706439E+04</totfact>
</mgrwt>
</event>
<event>
 6    0  0.1572624E-007  0.4530010E+03  0.7546771E-02  0.1026831E+00
         21   -1    0    0  502  501  0.00000000000E+00  0.00000000000E+00  0.64471239114E+03  0.64471239114E+03  0.00000000000E+00 0.  1.
         21   -1    0    0  501  502 -0.00000000000E+00 -0.00000000000E+00 -0.79574191014E+02  0.79574191014E+02  0.00000000000E+00 0.  1.
      99926    2    1    2    0    0  0.17763568394E-14 -0.14210854715E-13  0.56513820013E+03  0.72428658216E+03  0.45300095789E+03 0.  0.
         25    1    3    3    0    0  0.16995587295E+02 -0.30983430423E+02  0.28883888587E+03  0.31674000859E+03  0.12509000000E+03 0.  0.
         25    1    3    3    0    0 -0.53735272263E+01 -0.58301467771E+02  0.86153024339E+02  0.16278141062E+03  0.12509000000E+03 0.  0.
         25    1    3    3    0    0 -0.11622060068E+02  0.89284898194E+02  0.19014628992E+03  0.24476516295E+03  0.12509000000E+03 0.  0.
<mgrwt>
<rscale>  2 0.45300096E+03</rscale>
<asrwt>0</asrwt>
<pdfrwt beam="1">  1       21 0.94810643E-01 0.45300096E+03</pdfrwt>
<pdfrwt beam="2">  1       21 0.11702087E-01 0.45300096E+03</pdfrwt>
<totfact> 0.52423498E+04</totfact>
</mgrwt>
</event>
<event>
 6    0  0.1572624E-007  0.4623615E+03  0.7546771E-02  0.1024099E+00
         21   -1    0    0  502  501  0.00000000000E+00  0.00000000000E+00  0.20365631904E+03  0.20365631904E+03  0.00000000000E+00 0. -1.
         21   -1    0    0  501  502 -0.00000000000E+00 -0.00000000000E+00 -0.26242511118E+03  0.26242511118E+03  0.00000000000E+00 0. -1.
      99926    2    1    2    0    0 -0.17763568394E-14  0.00000000000E+00 -0.58768792134E+02  0.46608143022E+03  0.46236146971E+03 0.  0.
         25    1    3    3    0    0 -0.98397421852E+02  0.80474775290E+01 -0.67164213455E+02  0.17293164601E+03  0.12509000000E+03 0.  0.
         25    1    3    3    0    0  0.14411769320E+02  0.42449921535E+02 -0.96078079514E+01  0.13322729828E+03  0.12509000000E+03 0.  0.
         25    1    3    3    0    0  0.83985652533E+02 -0.50497399064E+02  0.18003229273E+02  0.15992248594E+03  0.12509000000E+03 0.  0.
<mgrwt>
<rscale>  2 0.46236147E+03</rscale>
<asrwt>0</asrwt>
<pdfrwt beam="1">  1       21 0.29949459E-01 0.46236147E+03</pdfrwt>
<pdfrwt beam="2">  1       21 0.38591928E-01 0.46236147E+03</pdfrwt>
<totfact> 0.63904738E+04</totfact>
</mgrwt>
</event>
<event>
 6    0  0.1572624E-007  0.4671647E+03  0.7546771E-02  0.1022724E+00
         21   -1    0    0  502  501  0.00000000000E+00  0.00000000000E+00  0.30425564814E+02  0.30425564814E+02  0.00000000000E+00 0. -1.
         21   -1    0    0  501  502 -0.00000000000E+00 -0.00000000000E+00 -0.17932523664E+04  0.17932523664E+04  0.00000000000E+00 0. -1.
      99926    2    1    2    0    0 -0.14210854715E-13  0.00000000000E+00 -0.17628268016E+04  0.18236779312E+04  0.46716470801E+03 0.  0.
         25    1    3    3    0    0  0.67250085335E+02 -0.17096271052E+02 -0.69306885091E+03  0.70767704262E+03  0.12509000000E+03 0.  0.
         25    1    3    3    0    0 -0.10631088749E+03  0.66764188655E+02 -0.63005304136E+03  0.65450271559E+03  0.12509000000E+03 0.  0.
         25    1    3    3    0    0  0.39060802150E+02 -0.49667917603E+02 -0.43970490932E+03  0.46149817300E+03  0.12509000000E+03 0.  0.
<mgrwt>
<rscale>  2 0.46716471E+03</rscale>
<asrwt>0</asrwt>
<pdfrwt beam="1">  1       21 0.44743480E-02 0.46716471E+03</pdfrwt>
<pdfrwt beam="2">  1       21 0.26371357E+00 0.46716471E+03</pdfrwt>
<totfact> 0.15311086E+04</totfact>
</mgrwt>
</event>
<event>
 6    0  0.1572624E-007  0.4542962E+03  0.7546771E-02  0.1026449E+00
         21   -1    0    0  502  501  0.00000000000E+00  0.00000000000E+00  0.26537614859E+02  0.26537614859E+02  0.00000000000E+00 0. -1.
         21   -1    0    0  501  502 -0.00000000000E+00 -0.00000000000E+00 -0.19442692676E+04  0.19442692676E+04  0.00000000000E+00 0. -1.
      99926    2    1    2    0    0  0.00000000000E+00  0.00000000000E+00 -0.19177316527E+04  0.19708068824E+04  0.45429624258E+03 0.  0.
         25    1    3    3    0    0 -0.79223714770E+02 -0.21507261634E+02 -0.89972896752E+03  0.91208480000E+03  0.12509000000E+03 0.  0.
         25    1    3    3    0    0 -0.38764698206E+01  0.45228719692E+02 -0.37250255451E+03  0.39555824517E+03  0.12509000000E+03 0.  0.
         25    1    3    3    0    0  0.83100184590E+02 -0.23721458058E+02 -0.64550013067E+03  0.66316383726E+03  0.12509000000E+03 0.  0.
<mgrwt>
<rscale>  2 0.45429624E+03</rscale>
<asrwt>0</asrwt>
<pdfrwt beam="1">  1       21 0.39025904E-02 0.45429624E+03</pdfrwt>
<pdfrwt beam="2">  1       21 0.28592195E+00 0.45429624E+03</pdfrwt>
<totfact> 0.14270160E+04</totfact>
</mgrwt>
</event>
<event>
 6    0  0.1572624E-007  0.4789221E+03  0.7546771E-02  0.1019432E+00
         21   -1    0    0  502  501  0.00000000000E+00  0.00000000000E+00  0.26268784107E+03  0.26268784107E+03  0.00000000000E+00 0.  1.
         21   -1    0    0  501  502 -0.00000000000E+00 -0.00000000000E+00 -0.21828792397E+03  0.21828792397E+03  0.00000000000E+00 0.  1.
      99926    2    1    2    0    0  0.00000000000E+00  0.71054273576E-14  0.44399917108E+02  0.48097576504E+03  0.47892205411E+03 0.  0.
         25    1    3    3    0    0 -0.68495987158E+02 -0.37698313218E+02 -0.44002830376E+02  0.15393706590E+03  0.12509000000E+03 0.  0.
         25    1    3    3    0    0  0.74741854531E+02 -0.50607826751E+02  0.79490830269E+02  0.17353327388E+03  0.12509000000E+03 0.  0.
         25    1    3    3    0    0 -0.62458673730E+01  0.88306139968E+02  0.89119172152E+01  0.15350542526E+03  0.12509000000E+03 0.  0.
<mgrwt>
<rscale>  2 0.47892205E+03</rscale>
<asrwt>0</asrwt>
<pdfrwt beam="1">  1       21 0.38630565E-01 0.47892205E+03</pdfrwt>
<pdfrwt beam="2">  1       21 0.32101165E-01 0.47892205E+03</pdfrwt>
<totfact> 0.55341796E+04</totfact>
</mgrwt>
</event>
<event>
 6    0  0.1572624E-007  0.4565505E+03  0.7546771E-02  0.1025786E+00
         21   -1    0    0  502  501  0.00000000000E+00  0.00000000000E+00  0.97711160434E+02  0.97711160434E+02  0.00000000000E+00 0.  1.
         21   -1    0    0  501  502 -0.00000000000E+00 -0.00000000000E+00 -0.53330230804E+03  0.53330230804E+03  0.00000000000E+00 0.  1.
      99926    2    1    2    0    0  0.00000000000E+00 -0.35527136788E-14 -0.43559114760E+03  0.63101346847E+03  0.45655048957E+03 0.  0.
         25    1    3    3    0    0 -0.85509739110E+02 -0.34303935910E+02 -0.21480637027E+03  0.26509990628E+03  0.12509000000E+03 0.  0.
         25    1    3    3    0    0  0.64173680708E+02  0.57071054904E+02 -0.16861715880E+03  0.22683611032E+03  0.12509000000E+03 0.  0.
         25    1    3    3    0    0  0.21336058402E+02 -0.22767118994E+02 -0.52167618533E+02  0.13907745187E+03  0.12509000000E+03 0.  0.
<mgrwt>
<rscale>  2 0.45655049E+03</rscale>
<asrwt>0</asrwt>
<pdfrwt beam="1">  1       21 0.14369288E-01 0.45655049E+03</pdfrwt>
<pdfrwt beam="2">  1       21 0.78426810E-01 0.45655049E+03</pdfrwt>
<totfact> 0.56118763E+04</totfact>
</mgrwt>
</event>
<event>
 6    0  0.1572624E-007  0.4536683E+03  0.7546771E-02  0.1026634E+00
         21   -1    0    0  502  501  0.00000000000E+00  0.00000000000E+00  0.54313923534E+02  0.54313923534E+02  0.00000000000E+00 0.  1.
         21   -1    0    0  501  502 -0.00000000000E+00 -0.00000000000E+00 -0.94733958023E+03  0.94733958023E+03  0.00000000000E+00 0.  1.
      99926    2    1    2    0    0  0.00000000000E+00  0.00000000000E+00 -0.89302565670E+03  0.10016535038E+04  0.45366829081E+03 0.  0.
         25    1    3    3    0    0 -0.27923323724E+02  0.29128583789E+02 -0.24569635482E+03  0.27864384664E+03  0.12509000000E+03 0.  0.
         25    1    3    3    0    0  0.48012889727E+02 -0.73370454113E+02 -0.50409485863E+03  0.52673294535E+03  0.12509000000E+03 0.  0.
         25    1    3    3    0    0 -0.20089566004E+02  0.44241870325E+02 -0.14323444325E+03  0.19627671178E+03  0.12509000000E+03 0.  0.
<mgrwt>
<rscale>  2 0.45366829E+03</rscale>
<asrwt>0</asrwt>
<pdfrwt beam="1">  1       21 0.79873423E-02 0.45366829E+03</pdfrwt>
<pdfrwt beam="2">  1       21 0.13931463E+00 0.45366829E+03</pdfrwt>
<totfact> 0.39511878E+04</totfact>
</mgrwt>
</event>
<event>
 6    0  0.1572624E-007  0.4541559E+03  0.7546771E-02  0.1026490E+00
         21   -1    0    0  502  501  0.00000000000E+00  0.00000000000E+00  0.69176277501E+02  0.69176277501E+02  0.00000000000E+00 0. -1.
         21   -1    0    0  501  502 -0.00000000000E+00 -0.00000000000E+00 -0.74540579950E+03  0.74540579950E+03  0.00000000000E+00 0. -1.
      99926    2    1    2    0    0  0.17763568394E-14  0.00000000000E+00 -0.67622952200E+03  0.81458207700E+03  0.45415591348E+03 0.  0.
         25    1    3    3    0    0 -0.80606667312E+01 -0.37841745341E+02 -0.45857161189E+03  0.47689873492E+03  0.12509000000E+03 0.  0.
         25    1    3    3    0    0 -0.10447770088E+02  0.12508267916E+02 -0.81719067256E+02  0.15030344879E+03  0.12509000000E+03 0.  0.
         25    1    3    3    0    0  0.18508436819E+02  0.25333477425E+02 -0.13593884286E+03  0.18737989329E+03  0.12509000000E+03 0.  0.
<mgrwt>
<rscale>  2 0.45415591E+03</rscale>
<asrwt>0</asrwt>
<pdfrwt beam="1">  1       21 0.10172982E-01 0.45415591E+03</pdfrwt>
<pdfrwt beam="2">  1       21 0.10961850E+00 0.45415591E+03</pdfrwt>
<totfact> 0.47380619E+04</totfact>
</mgrwt>
</event>
<event>
 6    0  0.1572624E-007  0.4734278E+03  0.7546771E-02  0.1020957E+00
         21   -1    0    0  502  501  0.00000000000E+00  0.00000000000E+00  0.47471475009E+02  0.47471475009E+02  0.00000000000E+00 0.  1.
         21   -1    0    0  501  502 -0.00000000000E+00 -0.00000000000E+00 -0.11803610721E+04  0.11803610721E+04  0.00000000000E+00 0.  1.
      99926    2    1    2    0    0 -0.88817841970E-15 -0.53290705182E-14 -0.11328895970E+04  0.12278325471E+04  0.47342784512E+03 0.  0.
         25    1    3    3    0    0 -0.30142411841E+02  0.88586505399E+02 -0.22732127629E+03  0.27582350278E+03  0.12509000000E+03 0.  0.
         25    1    3    3    0    0  0.24342850315E+02 -0.10453923796E+03 -0.57495791582E+03  0.59811799814E+03  0.12509000000E+03 0.  0.
         25    1    3    3    0    0  0.57995615257E+01  0.15952732565E+02 -0.33061040493E+03  0.35389104614E+03  0.12509000000E+03 0.  0.
<mgrwt>
<rscale>  2 0.47342785E+03</rscale>
<asrwt>0</asrwt>
<pdfrwt beam="1">  1       21 0.69811008E-02 0.47342785E+03</pdfrwt>
<pdfrwt beam="2">  1       21 0.17358247E+00 0.47342785E+03</pdfrwt>
<totfact> 0.27171663E+04</totfact>
</mgrwt>
</event>
<event>
 6    0  0.1572624E-007  0.4498077E+03  0.7546771E-02  0.1027779E+00
         21   -1    0    0  502  501  0.00000000000E+00  0.00000000000E+00  0.24200884492E+03  0.24200884492E+03  0.00000000000E+00 0. -1.
         21   -1    0    0  501  502 -0.00000000000E+00 -0.00000000000E+00 -0.20900779661E+03  0.20900779661E+03  0.00000000000E+00 0. -1.
      99926    2    1    2    0    0  0.44408920985E-15  0.00000000000E+00  0.33001048312E+02  0.45101664153E+03  0.44980767196E+03 0.  0.
         25    1    3    3    0    0 -0.27331937618E+02  0.32240005625E+01 -0.25356378781E+02  0.13056754206E+03  0.12509000000E+03 0.  0.
         25    1    3    3    0    0 -0.34160786039E+00 -0.72061236496E+02 -0.33807751558E+02  0.14826803656E+03  0.12509000000E+03 0.  0.
         25    1    3    3    0    0  0.27673545478E+02  0.68837235933E+02  0.92165178651E+02  0.17218106291E+03  0.12509000000E+03 0.  0.
<mgrwt>
<rscale>  2 0.44980767E+03</rscale>
<asrwt>0</asrwt>
<pdfrwt beam="1">  1       21 0.35589536E-01 0.44980767E+03</pdfrwt>
<pdfrwt beam="2">  1       21 0.30736440E-01 0.44980767E+03</pdfrwt>
<totfact> 0.71766010E+04</totfact>
</mgrwt>
</event>
<event>
 6    0  0.1572624E-007  0.4530333E+03  0.7546771E-02  0.1026821E+00
         21   -1    0    0  502  501  0.00000000000E+00  0.00000000000E+00  0.44245920714E+03  0.44245920714E+03  0.00000000000E+00 0. -1.
         21   -1    0    0  501  502 -0.00000000000E+00 -0.00000000000E+00 -0.11596501999E+03  0.11596501999E+03  0.00000000000E+00 0. -1.
      99926    2    1    2    0    0  0.00000000000E+00  0.35527136788E-14  0.32649418715E+03  0.55842422713E+03  0.45303329150E+03 0.  0.
         25    1    3    3    0    0 -0.83517229607E+02 -0.28511126579E+02  0.93010336713E+02  0.17912689026E+03  0.12509000000E+03 0.  0.
         25    1    3    3    0    0  0.10337178454E+03  0.27762684923E+02  0.88972994068E+02  0.18713683306E+03  0.12509000000E+03 0.  0.
         25    1    3    3    0    0 -0.19854554938E+02  0.74844165547E+00  0.14451085637E+03  0.19216050381E+03  0.12509000000E+03 0.  0.
<mgrwt>
<rscale>  2 0.45303329E+03</rscale>
<asrwt>0</asrwt>
<pdfrwt beam="1">  1       21 0.65067530E-01 0.45303329E+03</pdfrwt>
<pdfrwt beam="2">  1       21 0.17053680E-01 0.45303329E+03</pdfrwt>
<totfact> 0.62276436E+04</totfact>
</mgrwt>
</event>
<event>
 6    0  0.1572624E-007  0.4530114E+03  0.7546771E-02  0.1026828E+00
         21   -1    0    0  502  501  0.00000000000E+00  0.00000000000E+00  0.18082753745E+03  0.18082753745E+03  0.00000000000E+00 0.  1.
         21   -1    0    0  501  502 -0.00000000000E+00 -0.00000000000E+00 -0.28372251291E+03  0.28372251291E+03  0.00000000000E+00 0.  1.
      99926    2    1    2    0    0  0.00000000000E+00  0.00000000000E+00 -0.10289497546E+03  0.46455005036E+03  0.45301144943E+03 0.  0.
         25    1    3    3    0    0 -0.43117416540E+01 -0.30747548415E+02 -0.40817659042E+02  0.13519464575E+03  0.12509000000E+03 0.  0.
         25    1    3    3    0    0  0.80538425851E+02 -0.42027081314E+02 -0.59837185989E+02  0.16577306937E+03  0.12509000000E+03 0.  0.
         25    1    3    3    0    0 -0.76226684197E+02  0.72774629729E+02 -0.22401304269E+01  0.16358233523E+03  0.12509000000E+03 0.  0.
<mgrwt>
<rscale>  2 0.45301145E+03</rscale>
<asrwt>0</asrwt>
<pdfrwt beam="1">  1       21 0.26592285E-01 0.45301145E+03</pdfrwt>
<pdfrwt beam="2">  1       21 0.41723898E-01 0.45301145E+03</pdfrwt>
<totfact> 0.68924331E+04</totfact>
</mgrwt>
</event>
<event>
 6    0  0.1572624E-007  0.4619173E+03  0.7546771E-02  0.1024227E+00
         21   -1    0    0  502  501  0.00000000000E+00  0.00000000000E+00  0.12567873696E+03  0.12567873696E+03  0.00000000000E+00 0. -1.
         21   -1    0    0  501  502 -0.00000000000E+00 -0.00000000000E+00 -0.42443065860E+03  0.42443065860E+03  0.00000000000E+00 0. -1.
      99926    2    1    2    0    0  0.00000000000E+00 -0.71054273576E-14 -0.29875192163E+03  0.55010939556E+03  0.46191734802E+03 0.  0.
         25    1    3    3    0    0  0.20346938081E+02  0.45643919679E+02 -0.19669475874E+03  0.23839819947E+03  0.12509000000E+03 0.  0.
         25    1    3    3    0    0  0.11255295935E+02 -0.82376061620E+02 -0.13145322174E+02  0.15077401901E+03  0.12509000000E+03 0.  0.
         25    1    3    3    0    0 -0.31602234016E+02  0.36732141942E+02 -0.88911840720E+02  0.16093717708E+03  0.12509000000E+03 0.  0.
<mgrwt>
<rscale>  2 0.46191735E+03</rscale>
<asrwt>0</asrwt>
<pdfrwt beam="1">  1       21 0.18482167E-01 0.46191735E+03</pdfrwt>
<pdfrwt beam="2">  1       21 0.62416274E-01 0.46191735E+03</pdfrwt>
<totfact> 0.58586388E+04</totfact>
</mgrwt>
</event>
<event>
 6    0  0.1572624E-007  0.4715805E+03  0.7546771E-02  0.1021475E+00
         21   -1    0    0  502  501  0.00000000000E+00  0.00000000000E+00  0.13321987260E+03  0.13321987260E+03  0.00000000000E+00 0.  1.
         21   -1    0    0  501  502 -0.00000000000E+00 -0.00000000000E+00 -0.41733303468E+03  0.41733303468E+03  0.00000000000E+00 0.  1.
      99926    2    1    2    0    0  0.14210854715E-13  0.00000000000E+00 -0.28411316208E+03  0.55055290728E+03  0.47158054970E+03 0.  0.
         25    1    3    3    0    0  0.69873842859E+02 -0.37777594490E+02 -0.17436491059E+03  0.22882336136E+03  0.12509000000E+03 0.  0.
         25    1    3    3    0    0 -0.11136186947E+03  0.21963832864E+02 -0.72912268971E+02  0.18397712628E+03  0.12509000000E+03 0.  0.
         25    1    3    3    0    0  0.41488026615E+02  0.15813761626E+02 -0.36835982519E+02  0.13775241964E+03  0.12509000000E+03 0.  0.
<mgrwt>
<rscale>  2 0.47158055E+03</rscale>
<asrwt>0</asrwt>
<pdfrwt beam="1">  1       21 0.19591158E-01 0.47158055E+03</pdfrwt>
<pdfrwt beam="2">  1       21 0.61372506E-01 0.47158055E+03</pdfrwt>
<totfact> 0.54338409E+04</totfact>
</mgrwt>
</event>
<event>
 6    0  0.1572624E-007  0.4632856E+03  0.7546771E-02  0.1023833E+00
         21   -1    0    0  502  501  0.00000000000E+00  0.00000000000E+00  0.17258385663E+03  0.17258385663E+03  0.00000000000E+00 0. -1.
         21   -1    0    0  501  502 -0.00000000000E+00 -0.00000000000E+00 -0.31091194808E+03  0.31091194808E+03  0.00000000000E+00 0. -1.
      99926    2    1    2    0    0  0.00000000000E+00  0.00000000000E+00 -0.13832809146E+03  0.48349580471E+03  0.46328558394E+03 0.  0.
         25    1    3    3    0    0  0.33199875875E+02  0.36513780501E+02  0.86840014271E+01  0.13475313690E+03  0.12509000000E+03 0.  0.
         25    1    3    3    0    0 -0.96240820353E+02 -0.41744973531E+02 -0.12765051156E+03  0.20723681989E+03  0.12509000000E+03 0.  0.
         25    1    3    3    0    0  0.63040944479E+02  0.52311930294E+01 -0.19361581319E+02  0.14150584791E+03  0.12509000000E+03 0.  0.
<mgrwt>
<rscale>  2 0.46328558E+03</rscale>
<asrwt>0</asrwt>
<pdfrwt beam="1">  1       21 0.25379979E-01 0.46328558E+03</pdfrwt>
<pdfrwt beam="2">  1       21 0.45722345E-01 0.46328558E+03</pdfrwt>
<totfact> 0.62250862E+04</totfact>
</mgrwt>
</event>
<event>
 6    0  0.1572624E-007  0.4476499E+03  0.7546771E-02  0.1028425E+00
         21   -1    0    0  502  501  0.00000000000E+00  0.00000000000E+00  0.20881359546E+03  0.20881359546E+03  0.00000000000E+00 0. -1.
         21   -1    0    0  501  502 -0.00000000000E+00 -0.00000000000E+00 -0.23991545274E+03  0.23991545274E+03  0.00000000000E+00 0. -1.
      99926    2    1    2    0    0  0.00000000000E+00  0.00000000000E+00 -0.31101857286E+02  0.44872904820E+03  0.44764990023E+03 0.  0.
         25    1    3    3    0    0  0.21949736967E+02  0.39935890037E+02  0.57655326761E+02  0.14508036073E+03  0.12509000000E+03 0.  0.
         25    1    3    3    0    0 -0.14163245930E+02  0.15050930216E+02 -0.10657666005E+03  0.16562976968E+03  0.12509000000E+03 0.  0.
         25    1    3    3    0    0 -0.77864910373E+01 -0.54986820252E+02  0.17819476001E+02  0.13801891779E+03  0.12509000000E+03 0.  0.
<mgrwt>
<rscale>  2 0.44764990E+03</rscale>
<asrwt>0</asrwt>
<pdfrwt beam="1">  1       21 0.30707882E-01 0.44764990E+03</pdfrwt>
<pdfrwt beam="2">  1       21 0.35281684E-01 0.44764990E+03</pdfrwt>
<totfact> 0.73207657E+04</totfact>
</mgrwt>
</event>
<event>
 6    0  0.1572624E-007  0.4654454E+03  0.7546771E-02  0.1023214E+00
         21   -1    0    0  502  501  0.00000000000E+00  0.00000000000E+00  0.15933345852E+04  0.15933345852E+04  0.00000000000E+00 0.  1.
         21   -1    0    0  501  502 -0.00000000000E+00 -0.00000000000E+00 -0.33991520638E+02  0.33991520638E+02  0.00000000000E+00 0.  1.
      99926    2    1    2    0    0 -0.35527136788E-14 -0.71054273576E-14  0.15593430646E+04  0.16273261059E+04  0.46544544444E+03 0.  0.
         25    1    3    3    0    0  0.81603151685E+02 -0.75767902311E+02  0.38507752960E+03  0.41991911279E+03  0.12509000000E+03 0.  0.
         25    1    3    3    0    0 -0.59554763560E+02  0.32078792502E+02  0.49675780990E+03  0.51671234608E+03  0.12509000000E+03 0.  0.
         25    1    3    3    0    0 -0.22048388126E+02  0.43689109810E+02  0.67750772509E+03  0.69069464700E+03  0.12509000000E+03 0.  0.
<mgrwt>
<rscale>  2 0.46544544E+03</rscale>
<asrwt>0</asrwt>
<pdfrwt beam="1">  1       21 0.23431386E+00 0.46544544E+03</pdfrwt>
<pdfrwt beam="2">  1       21 0.49987541E-02 0.46544544E+03</pdfrwt>
<totfact> 0.19213141E+04</totfact>
</mgrwt>
</event>
<event>
 6    0  0.1572624E-007  0.4525011E+03  0.7546771E-02  0.1026979E+00
         21   -1    0    0  502  501  0.00000000000E+00  0.00000000000E+00  0.21616412925E+03  0.21616412925E+03  0.00000000000E+00 0. -1.
         21   -1    0    0  501  502 -0.00000000000E+00 -0.00000000000E+00 -0.23680758412E+03  0.23680758412E+03  0.00000000000E+00 0. -1.
      99926    2    1    2    0    0  0.00000000000E+00  0.00000000000E+00 -0.20643454876E+02  0.45297171337E+03  0.45250107280E+03 0.  0.
         25    1    3    3    0    0 -0.63341658430E+02 -0.61879998784E+02 -0.18610870804E+02  0.15438643902E+03  0.12509000000E+03 0.  0.
         25    1    3    3    0    0  0.93659276554E+02  0.39353611124E+02  0.30314019630E+02  0.16397321330E+03  0.12509000000E+03 0.  0.
         25    1    3    3    0    0 -0.30317618124E+02  0.22526387660E+02 -0.32346603702E+02  0.13461206105E+03  0.12509000000E+03 0.  0.
<mgrwt>
<rscale>  2 0.45250107E+03</rscale>
<asrwt>0</asrwt>
<pdfrwt beam="1">  1       21 0.31788843E-01 0.45250107E+03</pdfrwt>
<pdfrwt beam="2">  1       21 0.34824645E-01 0.45250107E+03</pdfrwt>
<totfact> 0.70081605E+04</totfact>
</mgrwt>
</event>
<event>
 6    0  0.1572624E-007  0.4593399E+03  0.7546771E-02  0.1024973E+00
         21   -1    0    0  502  501  0.00000000000E+00  0.00000000000E+00  0.73964007660E+03  0.73964007660E+03  0.00000000000E+00 0.  1.
         21   -1    0    0  501  502 -0.00000000000E+00 -0.00000000000E+00 -0.71316150044E+02  0.71316150044E+02  0.00000000000E+00 0.  1.
      99926    2    1    2    0    0  0.00000000000E+00  0.00000000000E+00  0.66832392656E+03  0.81095622665E+03  0.45933988584E+03 0.  0.
         25    1    3    3    0    0 -0.81822714406E+01 -0.42103236008E+02  0.16256862929E+03  0.20956072957E+03  0.12509000000E+03 0.  0.
         25    1    3    3    0    0  0.89666198838E+02  0.52738223976E+02  0.17837529273E+03  0.24142618052E+03  0.12509000000E+03 0.  0.
         25    1    3    3    0    0 -0.81483927397E+02 -0.10634987967E+02  0.32738000454E+03  0.35996931656E+03  0.12509000000E+03 0.  0.
<mgrwt>
<rscale>  2 0.45933989E+03</rscale>
<asrwt>0</asrwt>
<pdfrwt beam="1">  1       21 0.10877060E+00 0.45933989E+03</pdfrwt>
<pdfrwt beam="2">  1       21 0.10487670E-01 0.45933989E+03</pdfrwt>
<totfact> 0.45664322E+04</totfact>
</mgrwt>
</event>
<event>
 6    0  0.1572624E-007  0.4655263E+03  0.7546771E-02  0.1023191E+00
         21   -1    0    0  502  501  0.00000000000E+00  0.00000000000E+00  0.16720690870E+03  0.16720690870E+03  0.00000000000E+00 0.  1.
         21   -1    0    0  501  502 -0.00000000000E+00 -0.00000000000E+00 -0.32402183723E+03  0.32402183723E+03  0.00000000000E+00 0.  1.
      99926    2    1    2    0    0  0.00000000000E+00 -0.71054273576E-14 -0.15681492853E+03  0.49122874593E+03  0.46552632473E+03 0.  0.
         25    1    3    3    0    0 -0.14494065006E+02 -0.26903767124E+02 -0.10994445644E+02  0.12923728773E+03  0.12509000000E+03 0.  0.
         25    1    3    3    0    0 -0.25893325085E+02 -0.81481809498E+02 -0.11169577900E+03  0.18823709706E+03  0.12509000000E+03 0.  0.
         25    1    3    3    0    0  0.40387390091E+02  0.10838557662E+03 -0.34124703890E+02  0.17375436114E+03  0.12509000000E+03 0.  0.
<mgrwt>
<rscale>  2 0.46552632E+03</rscale>
<asrwt>0</asrwt>
<pdfrwt beam="1">  1       21 0.24589251E-01 0.46552632E+03</pdfrwt>
<pdfrwt beam="2">  1       21 0.47650270E-01 0.46552632E+03</pdfrwt>
<totfact> 0.60661728E+04</totfact>
</mgrwt>
</event>
<event>
 6    0  0.1572624E-007  0.4555517E+03  0.7546771E-02  0.1026079E+00
         21   -1    0    0  502  501  0.00000000000E+00  0.00000000000E+00  0.60734549320E+02  0.60734549320E+02  0.00000000000E+00 0. -1.
         21   -1    0    0  501  502 -0.00000000000E+00 -0.00000000000E+00 -0.85423941861E+03  0.85423941861E+03  0.00000000000E+00 0. -1.
      99926    2    1    2    0    0  0.00000000000E+00  0.00000000000E+00 -0.79350486929E+03  0.91497396793E+03  0.45555173625E+03 0.  0.
         25    1    3    3    0    0  0.42828422914E+02  0.97024984999E+01 -0.42551549261E+03  0.44568975177E+03  0.12509000000E+03 0.  0.
         25    1    3    3    0    0 -0.56149450285E+02  0.54628847827E+02 -0.15829276296E+03  0.21642822988E+03  0.12509000000E+03 0.  0.
         25    1    3    3    0    0  0.13321027371E+02 -0.64331346327E+02 -0.20969661373E+03  0.25285598628E+03  0.12509000000E+03 0.  0.
<mgrwt>
<rscale>  2 0.45555174E+03</rscale>
<asrwt>0</asrwt>
<pdfrwt beam="1">  1       21 0.89315507E-02 0.45555174E+03</pdfrwt>
<pdfrwt beam="2">  1       21 0.12562345E+00 0.45555174E+03</pdfrwt>
<totfact> 0.42409236E+04</totfact>
</mgrwt>
</event>
<event>
 6    0  0.1572624E-007  0.4566037E+03  0.7546771E-02  0.1025771E+00
         21   -1    0    0  502  501  0.00000000000E+00  0.00000000000E+00  0.51133104627E+03  0.51133104627E+03  0.00000000000E+00 0. -1.
         21   -1    0    0  501  502 -0.00000000000E+00 -0.00000000000E+00 -0.10193343176E+03  0.10193343176E+03  0.00000000000E+00 0. -1.
      99926    2    1    2    0    0  0.00000000000E+00  0.00000000000E+00  0.40939761451E+03  0.61326447803E+03  0.45660367197E+03 0.  0.
         25    1    3    3    0    0 -0.81897648698E+02  0.40854274341E+02  0.14179502915E+03  0.21007054764E+03  0.12509000000E+03 0.  0.
         25    1    3    3    0    0  0.40063712649E+02 -0.99233649730E+01  0.22580054042E+03  0.26141340133E+03  0.12509000000E+03 0.  0.
         25    1    3    3    0    0  0.41833936050E+02 -0.30930909368E+02  0.41802044943E+02  0.14178052906E+03  0.12509000000E+03 0.  0.
<mgrwt>
<rscale>  2 0.45660367E+03</rscale>
<asrwt>0</asrwt>
<pdfrwt beam="1">  1       21 0.75195741E-01 0.45660367E+03</pdfrwt>
<pdfrwt beam="2">  1       21 0.14990211E-01 0.45660367E+03</pdfrwt>
<totfact> 0.57141931E+04</totfact>
</mgrwt>
</event>
<event>
 6    0  0.1572624E-007  0.4738028E+03  0.7546771E-02  0.1020852E+00
         21   -1    0    0  502  501  0.00000000000E+00  0.00000000000E+00  0.22493328988E+02  0.22493328988E+02  0.00000000000E+00 0.  1.
         21   -1    0    0  501  502 -0.00000000000E+00 -0.00000000000E+00 -0.24950630011E+04  0.24950630011E+04  0.00000000000E+00 0.  1.
      99926    2    1    2    0    0  0.00000000000E+00  0.71054273576E-14 -0.24725696721E+04  0.25175563301E+04  0.47380279835E+03 0.  0.
         25    1    3    3    0    0  0.11034293453E+02  0.24170855896E+02 -0.80502224053E+03  0.81511612777E+03  0.12509000000E+03 0.  0.
         25    1    3    3    0    0 -0.25457697984E+02  0.60662129047E+02 -0.37059575327E+03  0.39663170414E+03  0.12509000000E+03 0.  0.
         25    1    3    3    0    0  0.14423404531E+02 -0.84832984943E+02 -0.12969516783E+04  0.13058084982E+04  0.12509000000E+03 0.  0.
<mgrwt>
<rscale>  2 0.47380280E+03</rscale>
<asrwt>0</asrwt>
<pdfrwt beam="1">  1       21 0.33078424E-02 0.47380280E+03</pdfrwt>
<pdfrwt beam="2">  1       21 0.36692104E+00 0.47380280E+03</pdfrwt>
<totfact> 0.60239226E+03</totfact>
</mgrwt>
</event>
<event>
 6    0  0.1572624E-007  0.4474619E+03  0.7546771E-02  0.1028482E+00
         21   -1    0    0  502  501  0.00000000000E+00  0.00000000000E+00  0.60396488453E+03  0.60396488453E+03  0.00000000000E+00 0. -1.
         21   -1    0    0  501  502 -0.00000000000E+00 -0.00000000000E+00 -0.82878213078E+02  0.82878213078E+02  0.00000000000E+00 0. -1.
      99926    2    1    2    0    0  0.00000000000E+00  0.00000000000E+00  0.52108667145E+03  0.68684309760E+03  0.44746186605E+03 0.  0.
         25    1    3    3    0    0 -0.18059775416E+02 -0.64797324707E+02  0.23450212936E+03  0.27415981753E+03  0.12509000000E+03 0.  0.
         25    1    3    3    0    0  0.66405495032E+02 -0.10035192404E+02  0.11776802652E+03  0.18446466065E+03  0.12509000000E+03 0.  0.
         25    1    3    3    0    0 -0.48345719616E+02  0.74832517111E+02  0.16881651557E+03  0.22821861942E+03  0.12509000000E+03 0.  0.
<mgrwt>
<rscale>  2 0.44746187E+03</rscale>
<asrwt>0</asrwt>
<pdfrwt beam="1">  1       21 0.88818363E-01 0.44746187E+03</pdfrwt>
<pdfrwt beam="2">  1       21 0.12187973E-01 0.44746187E+03</pdfrwt>
<totfact> 0.56927108E+04</totfact>
</mgrwt>
</event>
<event>
 6    0  0.1572624E-007  0.4286038E+03  0.7546771E-02  0.1034302E+00
         21   -1    0    0  502  501  0.00000000000E+00  0.00000000000E+00  0.47367234650E+03  0.47367234650E+03  0.00000000000E+00 0. -1.
         21   -1    0    0  501  502 -0.00000000000E+00 -0.00000000000E+00 -0.96955832948E+02  0.96955832948E+02  0.00000000000E+00 0. -1.
      99926    2    1    2    0    0  0.00000000000E+00  0.00000000000E+00  0.37671651355E+03  0.57062817945E+03  0.42860376526E+03 0.  0.
         25    1    3    3    0    0  0.46347810700E+02  0.63004087899E+02  0.17149766650E+03  0.22622244001E+03  0.12509000000E+03 0.  0.
         25    1    3    3    0    0 -0.45463065034E+02 -0.10074229262E+02  0.14100894189E+03  0.19416335950E+03  0.12509000000E+03 0.  0.
         25    1    3    3    0    0 -0.88474566555E+00 -0.52929858636E+02  0.64209905162E+02  0.15024237994E+03  0.12509000000E+03 0.  0.
<mgrwt>
<rscale>  2 0.42860377E+03</rscale>
<asrwt>0</asrwt>
<pdfrwt beam="1">  1       21 0.69657697E-01 0.42860377E+03</pdfrwt>
<pdfrwt beam="2">  1       21 0.14258211E-01 0.42860377E+03</pdfrwt>
<totfact> 0.74992745E+04</totfact>
</mgrwt>
</event>
<event>
 6    0  0.1572624E-007  0.4606584E+03  0.7546771E-02  0.1024590E+00
         21   -1    0    0  502  501  0.00000000000E+00  0.00000000000E+00  0.16624142648E+03  0.16624142648E+03  0.00000000000E+00 0. -1.
         21   -1    0    0  501  502 -0.00000000000E+00 -0.00000000000E+00 -0.31912348295E+03  0.31912348295E+03  0.00000000000E+00 0. -1.
      99926    2    1    2    0    0  0.00000000000E+00  0.00000000000E+00 -0.15288205648E+03  0.48536490943E+03  0.46065841153E+03 0.  0.
         25    1    3    3    0    0 -0.55289245868E+02 -0.27155328654E+01 -0.66624327684E+02  0.15215315957E+03  0.12509000000E+03 0.  0.
         25    1    3    3    0    0  0.59015492929E+02 -0.83039854897E+02 -0.83100286584E+02  0.18147069085E+03  0.12509000000E+03 0.  0.
         25    1    3    3    0    0 -0.37262470619E+01  0.85755387762E+02 -0.31574422075E+01  0.15174105901E+03  0.12509000000E+03 0.  0.
<mgrwt>
<rscale>  2 0.46065841E+03</rscale>
<asrwt>0</asrwt>
<pdfrwt beam="1">  1       21 0.24447269E-01 0.46065841E+03</pdfrwt>
<pdfrwt beam="2">  1       21 0.46929924E-01 0.46065841E+03</pdfrwt>
<totfact> 0.63415040E+04</totfact>
</mgrwt>
</event>
<event>
 6    0  0.1572624E-007  0.4562619E+03  0.7546771E-02  0.1025871E+00
         21   -1    0    0  502  501  0.00000000000E+00  0.00000000000E+00  0.24143472279E+03  0.24143472279E+03  0.00000000000E+00 0.  1.
         21   -1    0    0  501  502 -0.00000000000E+00 -0.00000000000E+00 -0.21556022977E+03  0.21556022977E+03  0.00000000000E+00 0.  1.
      99926    2    1    2    0    0  0.35527136788E-14  0.35527136788E-14  0.25874493025E+02  0.45699495256E+03  0.45626187357E+03 0.  0.
         25    1    3    3    0    0  0.36117772478E+02  0.74439680120E+02  0.31336613436E+02  0.15321635326E+03  0.12509000000E+03 0.  0.
         25    1    3    3    0    0 -0.43170309427E+02 -0.98742694672E+02 -0.43244907404E+02  0.17067930596E+03  0.12509000000E+03 0.  0.
         25    1    3    3    0    0  0.70525369492E+01  0.24303014551E+02  0.37782786993E+02  0.13309929334E+03  0.12509000000E+03 0.  0.
<mgrwt>
<rscale>  2 0.45626187E+03</rscale>
<asrwt>0</asrwt>
<pdfrwt beam="1">  1       21 0.35505106E-01 0.45626187E+03</pdfrwt>
<pdfrwt beam="2">  1       21 0.31700034E-01 0.45626187E+03</pdfrwt>
<totfact> 0.67715571E+04</totfact>
</mgrwt>
</event>
<event>
 6    0  0.1572624E-007  0.4551765E+03  0.7546771E-02  0.1026190E+00
         21   -1    0    0  502  501  0.00000000000E+00  0.00000000000E+00  0.19038374730E+03  0.19038374730E+03  0.00000000000E+00 0.  1.
         21   -1    0    0  501  502 -0.00000000000E+00 -0.00000000000E+00 -0.27206317173E+03  0.27206317173E+03  0.00000000000E+00 0.  1.
      99926    2    1    2    0    0  0.00000000000E+00  0.00000000000E+00 -0.81679424432E+02  0.46244691902E+03  0.45517647626E+03 0.  0.
         25    1    3    3    0    0 -0.10268996476E+03  0.95212770903E+00 -0.45533554738E+02  0.16812777319E+03  0.12509000000E+03 0.  0.
         25    1    3    3    0    0  0.90657015436E+02 -0.25267914635E+02  0.13297035647E+02  0.15710340930E+03  0.12509000000E+03 0.  0.
         25    1    3    3    0    0  0.12032949326E+02  0.24315786926E+02 -0.49442905341E+02  0.13721573653E+03  0.12509000000E+03 0.  0.
<mgrwt>
<rscale>  2 0.45517648E+03</rscale>
<asrwt>0</asrwt>
<pdfrwt beam="1">  1       21 0.27997610E-01 0.45517648E+03</pdfrwt>
<pdfrwt beam="2">  1       21 0.40009289E-01 0.45517648E+03</pdfrwt>
<totfact> 0.67904748E+04</totfact>
</mgrwt>
</event>
<event>
 6    0  0.1572624E-007  0.4531871E+03  0.7546771E-02  0.1026776E+00
         21   -1    0    0  502  501  0.00000000000E+00  0.00000000000E+00  0.16934160250E+03  0.16934160250E+03  0.00000000000E+00 0.  1.
         21   -1    0    0  501  502 -0.00000000000E+00 -0.00000000000E+00 -0.30320154825E+03  0.30320154825E+03  0.00000000000E+00 0.  1.
      99926    2    1    2    0    0  0.00000000000E+00  0.00000000000E+00 -0.13385994575E+03  0.47254315075E+03  0.45318709629E+03 0.  0.
         25    1    3    3    0    0 -0.57917293786E+02 -0.68654595768E+02 -0.40432341717E+02  0.15921730056E+03  0.12509000000E+03 0.  0.
         25    1    3    3    0    0  0.55604522791E+02 -0.28150592791E+02 -0.57401964657E+02  0.15108544760E+03  0.12509000000E+03 0.  0.
         25    1    3    3    0    0  0.23127709944E+01  0.96805188559E+02 -0.36025639373E+02  0.16224040259E+03  0.12509000000E+03 0.  0.
<mgrwt>
<rscale>  2 0.45318710E+03</rscale>
<asrwt>0</asrwt>
<pdfrwt beam="1">  1       21 0.24903177E-01 0.45318710E+03</pdfrwt>
<pdfrwt beam="2">  1       21 0.44588462E-01 0.45318710E+03</pdfrwt>
<totfact> 0.68223245E+04</totfact>
</mgrwt>
</event>
<event>
 6    0  0.1572624E-007  0.4535556E+03  0.7546771E-02  0.1026667E+00
         21   -1    0    0  502  501  0.00000000000E+00  0.00000000000E+00  0.15459809836E+03  0.15459809836E+03  0.00000000000E+00 0.  1.
         21   -1    0    0  501  502 -0.00000000000E+00 -0.00000000000E+00 -0.33265720718E+03  0.33265720718E+03  0.00000000000E+00 0.  1.
      99926    2    1    2    0    0  0.35527136788E-14  0.00000000000E+00 -0.17805910882E+03  0.48725530554E+03  0.45355560468E+03 0.  0.
         25    1    3    3    0    0 -0.29981232245E+02 -0.18476302338E+02 -0.12419424568E+03  0.17975529699E+03  0.12509000000E+03 0.  0.
         25    1    3    3    0    0  0.96933593611E+02  0.30360808027E+01 -0.44776869485E+02  0.16449260013E+03  0.12509000000E+03 0.  0.
         25    1    3    3    0    0 -0.66952361366E+02  0.15440221535E+02 -0.90879936520E+01  0.14300740842E+03  0.12509000000E+03 0.  0.
<mgrwt>
<rscale>  2 0.45355560E+03</rscale>
<asrwt>0</asrwt>
<pdfrwt beam="1">  1       21 0.22735015E-01 0.45355560E+03</pdfrwt>
<pdfrwt beam="2">  1       21 0.48920177E-01 0.45355560E+03</pdfrwt>
<totfact> 0.66939921E+04</totfact>
</mgrwt>
</event>
<event>
 6    0  0.1572624E-007  0.4573323E+03  0.7546771E-02  0.1025558E+00
         21   -1    0    0  502  501  0.00000000000E+00  0.00000000000E+00  0.15248824288E+03  0.15248824288E+03  0.00000000000E+00 0.  1.
         21   -1    0    0  501  502 -0.00000000000E+00 -0.00000000000E+00 -0.34289986716E+03  0.34289986716E+03  0.00000000000E+00 0.  1.
      99926    2    1    2    0    0 -0.71054273576E-14  0.00000000000E+00 -0.19041162428E+03  0.49538811004E+03  0.45733225658E+03 0.  0.
         25    1    3    3    0    0 -0.62100578928E+01  0.53421913855E+02  0.56094874624E+01  0.13627707125E+03  0.12509000000E+03 0.  0.
         25    1    3    3    0    0  0.51101307756E+02 -0.89844780374E+02 -0.11918384218E+03  0.20133485677E+03  0.12509000000E+03 0.  0.
         25    1    3    3    0    0 -0.44891249863E+02  0.36422866519E+02 -0.76837269560E+02  0.15777618202E+03  0.12509000000E+03 0.  0.
<mgrwt>
<rscale>  2 0.45733226E+03</rscale>
<asrwt>0</asrwt>
<pdfrwt beam="1">  1       21 0.22424742E-01 0.45733226E+03</pdfrwt>
<pdfrwt beam="2">  1       21 0.50426451E-01 0.45733226E+03</pdfrwt>
<totfact> 0.64395333E+04</totfact>
</mgrwt>
</event>
<event>
 6    0  0.1572624E-007  0.4542469E+03  0.7546771E-02  0.1026463E+00
         21   -1    0    0  502  501  0.00000000000E+00  0.00000000000E+00  0.52298360321E+03  0.52298360321E+03  0.00000000000E+00 0.  1.
         21   -1    0    0  501  502 -0.00000000000E+00 -0.00000000000E+00 -0.98636105577E+02  0.98636105577E+02  0.00000000000E+00 0.  1.
      99926    2    1    2    0    0  0.00000000000E+00 -0.88817841970E-15  0.42434749763E+03  0.62161970879E+03  0.45424691920E+03 0.  0.
         25    1    3    3    0    0 -0.39536251252E+02 -0.10368967539E+02  0.17015928013E+03  0.21511001689E+03  0.12509000000E+03 0.  0.
         25    1    3    3    0    0 -0.23417640907E+02  0.59415734839E+01  0.13636168528E+02  0.12812939317E+03  0.12509000000E+03 0.  0.
         25    1    3    3    0    0  0.62953892160E+02  0.44273940547E+01  0.24055204898E+03  0.27838029873E+03  0.12509000000E+03 0.  0.
<mgrwt>
<rscale>  2 0.45424692E+03</rscale>
<asrwt>0</asrwt>
<pdfrwt beam="1">  1       21 0.76909352E-01 0.45424692E+03</pdfrwt>
<pdfrwt beam="2">  1       21 0.14505310E-01 0.45424692E+03</pdfrwt>
<totfact> 0.57709267E+04</totfact>
</mgrwt>
</event>
<event>
 6    0  0.1572624E-007  0.4524895E+03  0.7546771E-02  0.1026982E+00
         21   -1    0    0  502  501  0.00000000000E+00  0.00000000000E+00  0.77735304586E+02  0.77735304586E+02  0.00000000000E+00 0.  1.
         21   -1    0    0  501  502 -0.00000000000E+00 -0.00000000000E+00 -0.65847423555E+03  0.65847423555E+03  0.00000000000E+00 0.  1.
      99926    2    1    2    0    0 -0.44408920985E-15  0.71054273576E-14 -0.58073893097E+03  0.73620954014E+03  0.45248953695E+03 0.  0.
         25    1    3    3    0    0  0.13122758070E+02 -0.77832235726E+02 -0.21892219394E+03  0.26420541024E+03  0.12509000000E+03 0.  0.
         25    1    3    3    0    0 -0.12196498090E+02  0.54395059549E+02 -0.70348440701E+02  0.15396099596E+03  0.12509000000E+03 0.  0.
         25    1    3    3    0    0 -0.92625997922E+00  0.23437176177E+02 -0.29146829632E+03  0.31804313394E+03  0.12509000000E+03 0.  0.
<mgrwt>
<rscale>  2 0.45248954E+03</rscale>
<asrwt>0</asrwt>
<pdfrwt beam="1">  1       21 0.11431662E-01 0.45248954E+03</pdfrwt>
<pdfrwt beam="2">  1       21 0.96834454E-01 0.45248954E+03</pdfrwt>
<totfact> 0.51999510E+04</totfact>
</mgrwt>
</event>
<event>
 6    0  0.1572624E-007  0.4501066E+03  0.7546771E-02  0.1027690E+00
         21   -1    0    0  502  501  0.00000000000E+00  0.00000000000E+00  0.22503730034E+03  0.22503730034E+03  0.00000000000E+00 0. -1.
         21   -1    0    0  501  502 -0.00000000000E+00 -0.00000000000E+00 -0.22506929817E+03  0.22506929817E+03  0.00000000000E+00 0. -1.
      99926    2    1    2    0    0  0.14210854715E-13 -0.35527136788E-14 -0.31997829181E-01  0.45010659851E+03  0.45010659738E+03 0.  0.
         25    1    3    3    0    0 -0.51162707394E+02  0.52995802814E+02  0.39085564463E+01  0.14522039339E+03  0.12509000000E+03 0.  0.
         25    1    3    3    0    0 -0.36531444590E+02 -0.69763934873E+02  0.20639944095E+02  0.14924834487E+03  0.12509000000E+03 0.  0.
         25    1    3    3    0    0  0.87694151983E+02  0.16768132059E+02 -0.24580498371E+02  0.15563786026E+03  0.12509000000E+03 0.  0.
<mgrwt>
<rscale>  2 0.45010660E+03</rscale>
<asrwt>0</asrwt>
<pdfrwt beam="1">  1       21 0.33093721E-01 0.45010660E+03</pdfrwt>
<pdfrwt beam="2">  1       21 0.33098426E-01 0.45010660E+03</pdfrwt>
<totfact> 0.71663203E+04</totfact>
</mgrwt>
</event>
<event>
 6    0  0.1572624E-007  0.4527930E+03  0.7546771E-02  0.1026892E+00
         21   -1    0    0  502  501  0.00000000000E+00  0.00000000000E+00  0.51746210568E+02  0.51746210568E+02  0.00000000000E+00 0.  1.
         21   -1    0    0  501  502 -0.00000000000E+00 -0.00000000000E+00 -0.99051474797E+03  0.99051474797E+03  0.00000000000E+00 0.  1.
      99926    2    1    2    0    0  0.00000000000E+00 -0.53290705182E-14 -0.93876853741E+03  0.10422609585E+04  0.45279304199E+03 0.  0.
         25    1    3    3    0    0 -0.22685193448E+02 -0.75983003071E+02 -0.33886988400E+03  0.36982203982E+03  0.12509000000E+03 0.  0.
         25    1    3    3    0    0  0.81265579917E+02  0.88359293939E+01 -0.32004897675E+03  0.35321526545E+03  0.12509000000E+03 0.  0.
         25    1    3    3    0    0 -0.58580386469E+02  0.67147073677E+02 -0.27984967665E+03  0.31922365327E+03  0.12509000000E+03 0.  0.
<mgrwt>
<rscale>  2 0.45279304E+03</rscale>
<asrwt>0</asrwt>
<pdfrwt beam="1">  1       21 0.76097366E-02 0.45279304E+03</pdfrwt>
<pdfrwt beam="2">  1       21 0.14566394E+00 0.45279304E+03</pdfrwt>
<totfact> 0.38216781E+04</totfact>
</mgrwt>
</event>
<event>
 6    0  0.1572624E-007  0.4504937E+03  0.7546771E-02  0.1027575E+00
         21   -1    0    0  502  501  0.00000000000E+00  0.00000000000E+00  0.31328353477E+03  0.31328353477E+03  0.00000000000E+00 0. -1.
         21   -1    0    0  501  502 -0.00000000000E+00 -0.00000000000E+00 -0.16194956920E+03  0.16194956920E+03  0.00000000000E+00 0. -1.
      99926    2    1    2    0    0 -0.35527136788E-14 -0.71054273576E-14  0.15133396556E+03  0.47523310397E+03  0.45049365586E+03 0.  0.
         25    1    3    3    0    0  0.59484447840E+02  0.71990450572E+02 -0.65440721970E+01  0.15624134373E+03  0.12509000000E+03 0.  0.
         25    1    3    3    0    0 -0.11739537037E+02 -0.46192383348E+02  0.42716135168E+02  0.14051238135E+03  0.12509000000E+03 0.  0.
         25    1    3    3    0    0 -0.47744910803E+02 -0.25798067223E+02  0.11516190259E+03  0.17847937889E+03  0.12509000000E+03 0.  0.
<mgrwt>
<rscale>  2 0.45049366E+03</rscale>
<asrwt>0</asrwt>
<pdfrwt beam="1">  1       21 0.46071108E-01 0.45049366E+03</pdfrwt>
<pdfrwt beam="2">  1       21 0.23816113E-01 0.45049366E+03</pdfrwt>
<totfact> 0.69501490E+04</totfact>
</mgrwt>
</event>
<event>
 6    0  0.1572624E-007  0.4518370E+03  0.7546771E-02  0.1027176E+00
         21   -1    0    0  502  501  0.00000000000E+00  0.00000000000E+00  0.26579417362E+03  0.26579417362E+03  0.00000000000E+00 0.  1.
         21   -1    0    0  501  502 -0.00000000000E+00 -0.00000000000E+00 -0.19202512114E+03  0.19202512114E+03  0.00000000000E+00 0.  1.
      99926    2    1    2    0    0 -0.88817841970E-15 -0.14210854715E-13  0.73769052474E+02  0.45781929476E+03  0.45183695461E+03 0.  0.
         25    1    3    3    0    0 -0.24421132990E+02  0.33072741857E+02 -0.30120797478E+02  0.13507393728E+03  0.12509000000E+03 0.  0.
         25    1    3    3    0    0  0.16753403015E+02  0.65899033094E+02  0.73347035415E+02  0.16015821796E+03  0.12509000000E+03 0.  0.
         25    1    3    3    0    0  0.76677299746E+01 -0.98971774951E+02  0.30542814537E+02  0.16258713953E+03  0.12509000000E+03 0.  0.
<mgrwt>
<rscale>  2 0.45183695E+03</rscale>
<asrwt>0</asrwt>
<pdfrwt beam="1">  1       21 0.39087379E-01 0.45183695E+03</pdfrwt>
<pdfrwt beam="2">  1       21 0.28238988E-01 0.45183695E+03</pdfrwt>
<totfact> 0.70091070E+04</totfact>
</mgrwt>
</event>
<event>
 6    0  0.1572624E-007  0.4534012E+03  0.7546771E-02  0.1026713E+00
         21   -1    0    0  502  501  0.00000000000E+00  0.00000000000E+00  0.39639601681E+02  0.39639601681E+02  0.00000000000E+00 0.  1.
         21   -1    0    0  501  502 -0.00000000000E+00 -0.00000000000E+00 -0.12965104631E+04  0.12965104631E+04  0.00000000000E+00 0.  1.
      99926    2    1    2    0    0  0.35527136788E-14  0.00000000000E+00 -0.12568708614E+04  0.13361500648E+04  0.45340118364E+03 0.  0.
         25    1    3    3    0    0  0.69939531576E+02  0.50537031006E+02 -0.71802018423E+03  0.73392507972E+03  0.12509000000E+03 0.  0.
         25    1    3    3    0    0 -0.26511223201E+02 -0.45973727283E+02 -0.25375409933E+03  0.28784558288E+03  0.12509000000E+03 0.  0.
         25    1    3    3    0    0 -0.43428308375E+02 -0.45633037233E+01 -0.28509657785E+03  0.31437940218E+03  0.12509000000E+03 0.  0.
<mgrwt>
<rscale>  2 0.45340118E+03</rscale>
<asrwt>0</asrwt>
<pdfrwt beam="1">  1       21 0.58293530E-02 0.45340118E+03</pdfrwt>
<pdfrwt beam="2">  1       21 0.19066331E+00 0.45340118E+03</pdfrwt>
<totfact> 0.28434515E+04</totfact>
</mgrwt>
</event>
<event>
 6    0  0.1572624E-007  0.4543610E+03  0.7546771E-02  0.1026429E+00
         21   -1    0    0  502  501  0.00000000000E+00  0.00000000000E+00  0.32812659072E+03  0.32812659072E+03  0.00000000000E+00 0.  1.
         21   -1    0    0  501  502 -0.00000000000E+00 -0.00000000000E+00 -0.15728986099E+03  0.15728986099E+03  0.00000000000E+00 0.  1.
      99926    2    1    2    0    0  0.00000000000E+00  0.00000000000E+00  0.17083672973E+03  0.48541645172E+03  0.45436102757E+03 0.  0.
         25    1    3    3    0    0 -0.38159131041E+02 -0.56464645878E+02  0.28743511675E+02  0.14532058725E+03  0.12509000000E+03 0.  0.
         25    1    3    3    0    0  0.38205159792E+02  0.10365340040E+03  0.39298869459E+02  0.17145136596E+03  0.12509000000E+03 0.  0.
         25    1    3    3    0    0 -0.46028750620E-01 -0.47188754521E+02  0.10279434860E+03  0.16864449850E+03  0.12509000000E+03 0.  0.
<mgrwt>
<rscale>  2 0.45436103E+03</rscale>
<asrwt>0</asrwt>
<pdfrwt beam="1">  1       21 0.48253910E-01 0.45436103E+03</pdfrwt>
<pdfrwt beam="2">  1       21 0.23130862E-01 0.45436103E+03</pdfrwt>
<totfact> 0.66645304E+04</totfact>
</mgrwt>
</event>
<event>
 6    0  0.1572624E-007  0.4550879E+03  0.7546771E-02  0.1026216E+00
         21   -1    0    0  502  501  0.00000000000E+00  0.00000000000E+00  0.12039150439E+04  0.12039150439E+04  0.00000000000E+00 0.  1.
         21   -1    0    0  501  502 -0.00000000000E+00 -0.00000000000E+00 -0.43006554690E+02  0.43006554690E+02  0.00000000000E+00 0.  1.
      99926    2    1    2    0    0 -0.33306690739E-15  0.71054273576E-14  0.11609084892E+04  0.12469215986E+04  0.45508785164E+03 0.  0.
         25    1    3    3    0    0  0.26023294840E+01 -0.11958963640E+02  0.59701867050E+03  0.61010539250E+03  0.12509000000E+03 0.  0.
         25    1    3    3    0    0  0.58183180107E+00  0.49688657069E+02  0.14424426026E+03  0.19728967507E+03  0.12509000000E+03 0.  0.
         25    1    3    3    0    0 -0.31841612851E+01 -0.37729693429E+02  0.41964555845E+03  0.43952653102E+03  0.12509000000E+03 0.  0.
<mgrwt>
<rscale>  2 0.45508785E+03</rscale>
<asrwt>0</asrwt>
<pdfrwt beam="1">  1       21 0.17704631E+00 0.45508785E+03</pdfrwt>
<pdfrwt beam="2">  1       21 0.63244941E-02 0.45508785E+03</pdfrwt>
<totfact> 0.30675012E+04</totfact>
</mgrwt>
</event>
<event>
 6    0  0.1572624E-007  0.4545329E+03  0.7546771E-02  0.1026379E+00
         21   -1    0    0  502  501  0.00000000000E+00  0.00000000000E+00  0.11206569520E+03  0.11206569520E+03  0.00000000000E+00 0. -1.
         21   -1    0    0  501  502 -0.00000000000E+00 -0.00000000000E+00 -0.46089075751E+03  0.46089075751E+03  0.00000000000E+00 0. -1.
      99926    2    1    2    0    0 -0.71054273576E-14  0.00000000000E+00 -0.34882506231E+03  0.57295645272E+03  0.45453291698E+03 0.  0.
         25    1    3    3    0    0 -0.33083992851E+02 -0.46869471347E+02 -0.24944260918E+03  0.28488668151E+03  0.12509000000E+03 0.  0.
         25    1    3    3    0    0  0.55167052459E+02  0.76718835992E+01 -0.59344932235E+02  0.14923669306E+03  0.12509000000E+03 0.  0.
         25    1    3    3    0    0 -0.22083059608E+02  0.39197587747E+02 -0.40037520891E+02  0.13883307814E+03  0.12509000000E+03 0.  0.
<mgrwt>
<rscale>  2 0.45453292E+03</rscale>
<asrwt>0</asrwt>
<pdfrwt beam="1">  1       21 0.16480250E-01 0.45453292E+03</pdfrwt>
<pdfrwt beam="2">  1       21 0.67778051E-01 0.45453292E+03</pdfrwt>
<totfact> 0.60598031E+04</totfact>
</mgrwt>
</event>
<event>
 6    0  0.1572624E-007  0.4595576E+03  0.7546771E-02  0.1024910E+00
         21   -1    0    0  502  501  0.00000000000E+00  0.00000000000E+00  0.13581467610E+04  0.13581467610E+04  0.00000000000E+00 0. -1.
         21   -1    0    0  501  502 -0.00000000000E+00 -0.00000000000E+00 -0.38875246795E+02  0.38875246795E+02  0.00000000000E+00 0. -1.
      99926    2    1    2    0    0  0.00000000000E+00 -0.35527136788E-14  0.13192715142E+04  0.13970220078E+04  0.45955757210E+03 0.  0.
         25    1    3    3    0    0  0.10126434597E+03  0.16887750675E+02  0.62630869200E+03  0.64687692002E+03  0.12509000000E+03 0.  0.
         25    1    3    3    0    0 -0.58001135992E+02  0.20973836008E+02  0.44727909392E+03  0.46851908129E+03  0.12509000000E+03 0.  0.
         25    1    3    3    0    0 -0.43263209975E+02 -0.37861586683E+02  0.24568372829E+03  0.28162600649E+03  0.12509000000E+03 0.  0.
<mgrwt>
<rscale>  2 0.45955757E+03</rscale>
<asrwt>0</asrwt>
<pdfrwt beam="1">  1       21 0.19972743E+00 0.45955757E+03</pdfrwt>
<pdfrwt beam="2">  1       21 0.57169490E-02 0.45955757E+03</pdfrwt>
<totfact> 0.25496408E+04</totfact>
</mgrwt>
</event>
<event>
 6    0  0.1572624E-007  0.4695668E+03  0.7546771E-02  0.1022043E+00
         21   -1    0    0  502  501  0.00000000000E+00  0.00000000000E+00  0.12725987795E+03  0.12725987795E+03  0.00000000000E+00 0. -1.
         21   -1    0    0  501  502 -0.00000000000E+00 -0.00000000000E+00 -0.43315489716E+03  0.43315489716E+03  0.00000000000E+00 0. -1.
      99926    2    1    2    0    0  0.00000000000E+00 -0.71054273576E-14 -0.30589501921E+03  0.56041477511E+03  0.46956677628E+03 0.  0.
         25    1    3    3    0    0 -0.25402549967E+02 -0.36792339625E+02 -0.15291925561E+03  0.20256054067E+03  0.12509000000E+03 0.  0.
         25    1    3    3    0    0  0.32700258895E+02 -0.63453329730E+02 -0.12465673651E+02  0.14456324950E+03  0.12509000000E+03 0.  0.
         25    1    3    3    0    0 -0.72977089284E+01  0.10024566936E+03 -0.14051008995E+03  0.21329098494E+03  0.12509000000E+03 0.  0.
<mgrwt>
<rscale>  2 0.46956678E+03</rscale>
<asrwt>0</asrwt>
<pdfrwt beam="1">  1       21 0.18714688E-01 0.46956678E+03</pdfrwt>
<pdfrwt beam="2">  1       21 0.63699249E-01 0.46956678E+03</pdfrwt>
<totfact> 0.54613302E+04</totfact>
</mgrwt>
</event>
<event>
 6    0  0.1572624E-007  0.4550929E+03  0.7546771E-02  0.1026214E+00
         21   -1    0    0  502  501  0.00000000000E+00  0.00000000000E+00  0.41473656948E+03  0.41473656948E+03  0.00000000000E+00 0. -1.
         21   -1    0    0  501  502 -0.00000000000E+00 -0.00000000000E+00 -0.12484406049E+03  0.12484406049E+03  0.00000000000E+00 0. -1.
      99926    2    1    2    0    0  0.71054273576E-14 -0.14210854715E-13  0.28989250900E+03  0.53958062997E+03  0.45509294597E+03 0.  0.
         25    1    3    3    0    0 -0.82428651535E+01 -0.40022608751E+01  0.67903278103E+02  0.14262652697E+03  0.12509000000E+03 0.  0.
         25    1    3    3    0    0 -0.28371247385E+02  0.99854625059E+02  0.77691553251E+02  0.18016481169E+03  0.12509000000E+03 0.  0.
         25    1    3    3    0    0  0.36614112538E+02 -0.95852364184E+02  0.14429767764E+03  0.21678929132E+03  0.12509000000E+03 0.  0.
<mgrwt>
<rscale>  2 0.45509295E+03</rscale>
<asrwt>0</asrwt>
<pdfrwt beam="1">  1       21 0.60990671E-01 0.45509295E+03</pdfrwt>
<pdfrwt beam="2">  1       21 0.18359421E-01 0.45509295E+03</pdfrwt>
<totfact> 0.62514332E+04</totfact>
</mgrwt>
</event>
<event>
 6    0  0.1572624E-007  0.4711283E+03  0.7546771E-02  0.1021602E+00
         21   -1    0    0  502  501  0.00000000000E+00  0.00000000000E+00  0.26108233977E+03  0.26108233977E+03  0.00000000000E+00 0.  1.
         21   -1    0    0  501  502 -0.00000000000E+00 -0.00000000000E+00 -0.21254006870E+03  0.21254006870E+03  0.00000000000E+00 0.  1.
      99926    2    1    2    0    0  0.00000000000E+00  0.00000000000E+00  0.48542271067E+02  0.47362240847E+03  0.47112825613E+03 0.  0.
         25    1    3    3    0    0 -0.33281642607E+02  0.36055994264E+02  0.13081114722E+03  0.18752804269E+03  0.12509000000E+03 0.  0.
         25    1    3    3    0    0  0.36084834138E+02 -0.41094070939E+02 -0.47154918535E+00  0.13652314229E+03  0.12509000000E+03 0.  0.
         25    1    3    3    0    0 -0.28031915313E+01  0.50380766748E+01 -0.81797326971E+02  0.14957122350E+03  0.12509000000E+03 0.  0.
<mgrwt>
<rscale>  2 0.47112826E+03</rscale>
<asrwt>0</asrwt>
<pdfrwt beam="1">  1       21 0.38394462E-01 0.47112826E+03</pdfrwt>
<pdfrwt beam="2">  1       21 0.31255892E-01 0.47112826E+03</pdfrwt>
<totfact> 0.59208736E+04</totfact>
</mgrwt>
</event>
<event>
 6    0  0.1572624E-007  0.4565054E+03  0.7546771E-02  0.1025800E+00
         21   -1    0    0  502  501  0.00000000000E+00  0.00000000000E+00  0.37761275990E+03  0.37761275990E+03  0.00000000000E+00 0.  1.
         21   -1    0    0  501  502 -0.00000000000E+00 -0.00000000000E+00 -0.13797015359E+03  0.13797015359E+03  0.00000000000E+00 0.  1.
      99926    2    1    2    0    0  0.00000000000E+00  0.35527136788E-14  0.23964260631E+03  0.51558291348E+03  0.45650537994E+03 0.  0.
         25    1    3    3    0    0  0.36140582283E+02 -0.59713730261E+02  0.15904419717E+03  0.21404307048E+03  0.12509000000E+03 0.  0.
         25    1    3    3    0    0  0.26115692208E+02  0.51111963310E+02  0.84491050508E+02  0.16149522559E+03  0.12509000000E+03 0.  0.
         25    1    3    3    0    0 -0.62256274492E+02  0.86017669513E+01 -0.38926413657E+01  0.14004461741E+03  0.12509000000E+03 0.  0.
<mgrwt>
<rscale>  2 0.45650538E+03</rscale>
<asrwt>0</asrwt>
<pdfrwt beam="1">  1       21 0.55531288E-01 0.45650538E+03</pdfrwt>
<pdfrwt beam="2">  1       21 0.20289729E-01 0.45650538E+03</pdfrwt>
<totfact> 0.63428139E+04</totfact>
</mgrwt>
</event>
<event>
 6    0  0.1572624E-007  0.4532686E+03  0.7546771E-02  0.1026752E+00
         21   -1    0    0  502  501  0.00000000000E+00  0.00000000000E+00  0.45115257437E+03  0.45115257437E+03  0.00000000000E+00 0. -1.
         21   -1    0    0  501  502 -0.00000000000E+00 -0.00000000000E+00 -0.11384861584E+03  0.11384861584E+03  0.00000000000E+00 0. -1.
      99926    2    1    2    0    0 -0.71054273576E-14  0.71054273576E-14  0.33730395854E+03  0.56500119021E+03  0.45326855670E+03 0.  0.
         25    1    3    3    0    0 -0.76145016507E+02 -0.33078077286E+02  0.28853435089E+02  0.15287985986E+03  0.12509000000E+03 0.  0.
         25    1    3    3    0    0  0.40194591186E+02 -0.19359374350E+02  0.14231694665E+03  0.19465870630E+03  0.12509000000E+03 0.  0.
         25    1    3    3    0    0  0.35950425320E+02  0.52437451636E+02  0.16613357680E+03  0.21746262404E+03  0.12509000000E+03 0.  0.
<mgrwt>
<rscale>  2 0.45326856E+03</rscale>
<asrwt>0</asrwt>
<pdfrwt beam="1">  1       21 0.66345966E-01 0.45326856E+03</pdfrwt>
<pdfrwt beam="2">  1       21 0.16742444E-01 0.45326856E+03</pdfrwt>
<totfact> 0.61726907E+04</totfact>
</mgrwt>
</event>
<event>
 6    0  0.1572624E-007  0.4732670E+03  0.7546771E-02  0.1021002E+00
         21   -1    0    0  502  501  0.00000000000E+00  0.00000000000E+00  0.30619972828E+03  0.30619972828E+03  0.00000000000E+00 0. -1.
         21   -1    0    0  501  502 -0.00000000000E+00 -0.00000000000E+00 -0.18287214923E+03  0.18287214923E+03  0.00000000000E+00 0. -1.
      99926    2    1    2    0    0  0.00000000000E+00 -0.71054273576E-14  0.12332757905E+03  0.48907187751E+03  0.47326695386E+03 0.  0.
         25    1    3    3    0    0 -0.90162046279E+02 -0.58637276757E+02  0.23214666909E+02  0.16659517902E+03  0.12509000000E+03 0.  0.
         25    1    3    3    0    0  0.98672330004E+02  0.24137328988E+02  0.47365508057E+01  0.16121036683E+03  0.12509000000E+03 0.  0.
         25    1    3    3    0    0 -0.85102837250E+01  0.34499947769E+02  0.95376361337E+02  0.16126633166E+03  0.12509000000E+03 0.  0.
<mgrwt>
<rscale>  2 0.47326695E+03</rscale>
<asrwt>0</asrwt>
<pdfrwt beam="1">  1       21 0.45029372E-01 0.47326695E+03</pdfrwt>
<pdfrwt beam="2">  1       21 0.26892963E-01 0.47326695E+03</pdfrwt>
<totfact> 0.57279591E+04</totfact>
</mgrwt>
</event>
<event>
 6    0  0.1572624E-007  0.4747971E+03  0.7546771E-02  0.1020575E+00
         21   -1    0    0  502  501  0.00000000000E+00  0.00000000000E+00  0.14241080769E+03  0.14241080769E+03  0.00000000000E+00 0.  1.
         21   -1    0    0  501  502 -0.00000000000E+00 -0.00000000000E+00 -0.39574288750E+03  0.39574288750E+03  0.00000000000E+00 0.  1.
      99926    2    1    2    0    0  0.35527136788E-14  0.00000000000E+00 -0.25333207980E+03  0.53815369519E+03  0.47479706927E+03 0.  0.
         25    1    3    3    0    0 -0.46561731765E+02  0.92554448158E+02 -0.10993135903E+03  0.19612937704E+03  0.12509000000E+03 0.  0.
         25    1    3    3    0    0  0.22640680484E+02 -0.18981077299E+02 -0.14652523090E+03  0.19491032066E+03  0.12509000000E+03 0.  0.
         25    1    3    3    0    0  0.23921051282E+02 -0.73573370859E+02  0.31245101312E+01  0.14711399749E+03  0.12509000000E+03 0.  0.
<mgrwt>
<rscale>  2 0.47479707E+03</rscale>
<asrwt>0</asrwt>
<pdfrwt beam="1">  1       21 0.20942766E-01 0.47479707E+03</pdfrwt>
<pdfrwt beam="2">  1       21 0.58197483E-01 0.47479707E+03</pdfrwt>
<totfact> 0.53719688E+04</totfact>
</mgrwt>
</event>
<event>
 6    0  0.1572624E-007  0.4569046E+03  0.7546771E-02  0.1025683E+00
         21   -1    0    0  502  501  0.00000000000E+00  0.00000000000E+00  0.46594980386E+03  0.46594980386E+03  0.00000000000E+00 0.  1.
         21   -1    0    0  501  502 -0.00000000000E+00 -0.00000000000E+00 -0.11200876717E+03  0.11200876717E+03  0.00000000000E+00 0.  1.
      99926    2    1    2    0    0 -0.17763568394E-14  0.00000000000E+00  0.35394103668E+03  0.57795857103E+03  0.45690464254E+03 0.  0.
         25    1    3    3    0    0 -0.62490103198E+02 -0.53744726847E+02  0.66471847272E+02  0.16388875264E+03  0.12509000000E+03 0.  0.
         25    1    3    3    0    0  0.68422010869E+02  0.26259618422E+02  0.68544999752E+02  0.16036540843E+03  0.12509000000E+03 0.  0.
         25    1    3    3    0    0 -0.59319076710E+01  0.27485108425E+02  0.21892418966E+03  0.25370440996E+03  0.12509000000E+03 0.  0.
<mgrwt>
<rscale>  2 0.45690464E+03</rscale>
<asrwt>0</asrwt>
<pdfrwt beam="1">  1       21 0.68522029E-01 0.45690464E+03</pdfrwt>
<pdfrwt beam="2">  1       21 0.16471878E-01 0.45690464E+03</pdfrwt>
<totfact> 0.59160004E+04</totfact>
</mgrwt>
</event>
<event>
 6    0  0.1572624E-007  0.4684343E+03  0.7546771E-02  0.1022363E+00
         21   -1    0    0  502  501  0.00000000000E+00  0.00000000000E+00  0.32920887274E+02  0.32920887274E+02  0.00000000000E+00 0. -1.
         21   -1    0    0  501  502 -0.00000000000E+00 -0.00000000000E+00 -0.16663482149E+04  0.16663482149E+04  0.00000000000E+00 0. -1.
      99926    2    1    2    0    0 -0.53290705182E-14  0.71054273576E-14 -0.16334273276E+04  0.16992691021E+04  0.46843425042E+03 0.  0.
         25    1    3    3    0    0  0.71451665766E+02 -0.54649178400E+02 -0.69087028626E+03  0.70784259110E+03  0.12509000000E+03 0.  0.
         25    1    3    3    0    0  0.71272496318E+01 -0.40544416323E+02 -0.40516578141E+03  0.42602988852E+03  0.12509000000E+03 0.  0.
         25    1    3    3    0    0 -0.78578915397E+02  0.95193594722E+02 -0.53739125992E+03  0.56539662253E+03  0.12509000000E+03 0.  0.
<mgrwt>
<rscale>  2 0.46843425E+03</rscale>
<asrwt>0</asrwt>
<pdfrwt beam="1">  1       21 0.48413061E-02 0.46843425E+03</pdfrwt>
<pdfrwt beam="2">  1       21 0.24505125E+00 0.46843425E+03</pdfrwt>
<totfact> 0.17390960E+04</totfact>
</mgrwt>
</event>
<event>
 6    0  0.1572624E-007  0.4536274E+03  0.7546771E-02  0.1026646E+00
         21   -1    0    0  502  501  0.00000000000E+00  0.00000000000E+00  0.40542818282E+03  0.40542818282E+03  0.00000000000E+00 0. -1.
         21   -1    0    0  501  502 -0.00000000000E+00 -0.00000000000E+00 -0.12688919325E+03  0.12688919325E+03  0.00000000000E+00 0. -1.
      99926    2    1    2    0    0 -0.14210854715E-13  0.00000000000E+00  0.27853898957E+03  0.53231737607E+03  0.45362740234E+03 0.  0.
         25    1    3    3    0    0  0.77614705127E+02 -0.39972774149E+02  0.77260419018E+02  0.17099282316E+03  0.12509000000E+03 0.  0.
         25    1    3    3    0    0  0.20026948546E+01 -0.37640928093E+02  0.10939286975E+03  0.17039706073E+03  0.12509000000E+03 0.  0.
         25    1    3    3    0    0 -0.79617399981E+02  0.77613702241E+02  0.91885700801E+02  0.19092749217E+03  0.12509000000E+03 0.  0.
<mgrwt>
<rscale>  2 0.45362740E+03</rscale>
<asrwt>0</asrwt>
<pdfrwt beam="1">  1       21 0.59621791E-01 0.45362740E+03</pdfrwt>
<pdfrwt beam="2">  1       21 0.18660176E-01 0.45362740E+03</pdfrwt>
<totfact> 0.63740033E+04</totfact>
</mgrwt>
</event>
<event>
 6    0  0.1572624E-007  0.4550011E+03  0.7546771E-02  0.1026241E+00
         21   -1    0    0  502  501  0.00000000000E+00  0.00000000000E+00  0.11393818311E+03  0.11393818311E+03  0.00000000000E+00 0.  1.
         21   -1    0    0  501  502 -0.00000000000E+00 -0.00000000000E+00 -0.45425063246E+03  0.45425063246E+03  0.00000000000E+00 0.  1.
      99926    2    1    2    0    0  0.00000000000E+00  0.71054273576E-14 -0.34031244935E+03  0.56818881557E+03  0.45500106259E+03 0.  0.
         25    1    3    3    0    0 -0.46505894353E+02 -0.77604145190E+02 -0.12297310061E+03  0.19737044645E+03  0.12509000000E+03 0.  0.
         25    1    3    3    0    0  0.58705637327E+02  0.10434970036E+02 -0.41850708521E+02  0.14475576105E+03  0.12509000000E+03 0.  0.
         25    1    3    3    0    0 -0.12199742974E+02  0.67169175154E+02 -0.17548864022E+03  0.22606260807E+03  0.12509000000E+03 0.  0.
<mgrwt>
<rscale>  2 0.45500106E+03</rscale>
<asrwt>0</asrwt>
<pdfrwt beam="1">  1       21 0.16755615E-01 0.45500106E+03</pdfrwt>
<pdfrwt beam="2">  1       21 0.66801563E-01 0.45500106E+03</pdfrwt>
<totfact> 0.60679831E+04</totfact>
</mgrwt>
</event>
<event>
 6    0  0.1572624E-007  0.4549233E+03  0.7546771E-02  0.1026264E+00
         21   -1    0    0  502  501  0.00000000000E+00  0.00000000000E+00  0.23633515068E+03  0.23633515068E+03  0.00000000000E+00 0. -1.
         21   -1    0    0  501  502 -0.00000000000E+00 -0.00000000000E+00 -0.21892129482E+03  0.21892129482E+03  0.00000000000E+00 0. -1.
      99926    2    1    2    0    0  0.00000000000E+00  0.00000000000E+00  0.17413855865E+02  0.45525644550E+03  0.45492327792E+03 0.  0.
         25    1    3    3    0    0 -0.19721444854E+02  0.14068350374E+02  0.68688034576E+02  0.14474946654E+03  0.12509000000E+03 0.  0.
         25    1    3    3    0    0  0.64389950524E+02 -0.65595564687E+02  0.97093297399E+01  0.15553335018E+03  0.12509000000E+03 0.  0.
         25    1    3    3    0    0 -0.44668505670E+02  0.51527214313E+02 -0.60983508451E+02  0.15497362878E+03  0.12509000000E+03 0.  0.
<mgrwt>
<rscale>  2 0.45492328E+03</rscale>
<asrwt>0</asrwt>
<pdfrwt beam="1">  1       21 0.34755169E-01 0.45492328E+03</pdfrwt>
<pdfrwt beam="2">  1       21 0.32194308E-01 0.45492328E+03</pdfrwt>
<totfact> 0.68568992E+04</totfact>
</mgrwt>
</event>
<event>
 6    0  0.1572624E-007  0.4553195E+03  0.7546771E-02  0.1026147E+00
         21   -1    0    0  502  501  0.00000000000E+00  0.00000000000E+00  0.78869545930E+02  0.78869545930E+02  0.00000000000E+00 0. -1.
         21   -1    0    0  501  502 -0.00000000000E+00 -0.00000000000E+00 -0.65714792973E+03  0.65714792973E+03  0.00000000000E+00 0. -1.
      99926    2    1    2    0    0  0.71054273576E-14 -0.62172489379E-14 -0.57827838380E+03  0.73601747566E+03  0.45531948707E+03 0.  0.
         25    1    3    3    0    0  0.41662848904E+02  0.89620192690E+02 -0.24152070371E+03  0.28939131006E+03  0.12509000000E+03 0.  0.
         25    1    3    3    0    0 -0.17697037326E+02 -0.47100140740E+01 -0.86215961176E+02  0.15302310095E+03  0.12509000000E+03 0.  0.
         25    1    3    3    0    0 -0.23965811578E+02 -0.84910178616E+02 -0.25054171891E+03  0.29360306465E+03  0.12509000000E+03 0.  0.
<mgrwt>
<rscale>  2 0.45531949E+03</rscale>
<asrwt>0</asrwt>
<pdfrwt beam="1">  1       21 0.11598463E-01 0.45531949E+03</pdfrwt>
<pdfrwt beam="2">  1       21 0.96639399E-01 0.45531949E+03</pdfrwt>
<totfact> 0.50862819E+04</totfact>
</mgrwt>
</event>
