<event>
 7    0  0.4784406E-002  0.4567125E+03  0.7546771E-02  0.1025739E+00
         21   -1    0    0  502  501  0.00000000000E+00  0.00000000000E+00  0.79945425339E+02  0.79945425339E+02  0.00000000000E+00 0. -1.
         21   -1    0    0  501  502 -0.00000000000E+00 -0.00000000000E+00 -0.65227713258E+03  0.65227713258E+03  0.00000000000E+00 0. -1.
      99926    2    1    2    0    0 -0.88817841970E-15  0.14210854715E-13 -0.57233170724E+03  0.73222255792E+03  0.45671248200E+03 0.  0.
      99925    2    3    3    0    0  0.24825120044E+01  0.10650308211E+03 -0.29134192752E+03  0.40672012510E+03  0.26304385958E+03 0.  0.
         25    1    4    4    0    0 -0.12922637735E+02  0.79608873277E+02 -0.11390092571E+03  0.18741797205E+03  0.12509000000E+03 0.  0.
         25    1    3    3    0    0 -0.24825120044E+01 -0.10650308211E+03 -0.28098977972E+03  0.32550243282E+03  0.12509000000E+03 0.  0.
         25    1    4    4    0    0  0.15405149739E+02  0.26894208832E+02 -0.17744100181E+03  0.21930215305E+03  0.12509000000E+03 0.  0.
<mgrwt>
<rscale>  2 0.45671248E+03</rscale>
<asrwt>0</asrwt>
<pdfrwt beam="1">  1       21 0.11756680E-01 0.45671248E+03</pdfrwt>
<pdfrwt beam="2">  1       21 0.95923112E-01 0.45671248E+03</pdfrwt>
<totfact> 0.50504673E+04</totfact>
</mgrwt>
</event>
<event>
 7    0  0.4784406E-002  0.4567874E+03  0.7546771E-02  0.1025717E+00
         21   -1    0    0  502  501  0.00000000000E+00  0.00000000000E+00  0.12592945677E+04  0.12592945677E+04  0.00000000000E+00 0. -1.
         21   -1    0    0  501  502 -0.00000000000E+00 -0.00000000000E+00 -0.41422937051E+02  0.41422937051E+02  0.00000000000E+00 0. -1.
      99926    2    1    2    0    0  0.00000000000E+00 -0.71054273576E-14  0.12178716307E+04  0.13007175048E+04  0.45678738865E+03 0.  0.
      99925    2    3    3    0    0  0.10254830602E+03  0.49272943090E+02  0.80955629159E+03  0.85877531147E+03  0.26300127064E+03 0.  0.
         25    1    4    4    0    0  0.17616206900E+02  0.52334398404E+01  0.30350906004E+03  0.32879017209E+03  0.12509000000E+03 0.  0.
         25    1    3    3    0    0 -0.10254830602E+03 -0.49272943090E+02  0.40831533908E+03  0.44194219329E+03  0.12509000000E+03 0.  0.
         25    1    4    4    0    0  0.84932099120E+02  0.44039503249E+02  0.50604723154E+03  0.52998513938E+03  0.12509000000E+03 0.  0.
<mgrwt>
<rscale>  2 0.45678739E+03</rscale>
<asrwt>0</asrwt>
<pdfrwt beam="1">  1       21 0.18519035E+00 0.45678739E+03</pdfrwt>
<pdfrwt beam="2">  1       21 0.60916092E-02 0.45678739E+03</pdfrwt>
<totfact> 0.28692932E+04</totfact>
</mgrwt>
</event>
<event>
 7    0  0.4784406E-002  0.4433103E+03  0.7546771E-02  0.1029736E+00
         21   -1    0    0  502  501  0.00000000000E+00  0.00000000000E+00  0.47881498788E+03  0.47881498788E+03  0.00000000000E+00 0.  1.
         21   -1    0    0  501  502 -0.00000000000E+00 -0.00000000000E+00 -0.10260960110E+03  0.10260960110E+03  0.00000000000E+00 0.  1.
      99926    2    1    2    0    0  0.00000000000E+00  0.35527136788E-14  0.37620538678E+03  0.58142458898E+03  0.44331034235E+03 0.  0.
      99925    2    3    3    0    0 -0.66318628526E+02  0.30393171166E+02  0.33254196955E+03  0.43017675446E+03  0.26295621922E+03 0.  0.
         25    1    3    3    0    0  0.66318628526E+02 -0.30393171166E+02  0.43663417232E+02  0.15124783452E+03  0.12509000000E+03 0.  0.
         25    1    4    4    0    0 -0.14791443067E+02  0.15100853286E+01  0.21243495042E+03  0.24697607861E+03  0.12509000000E+03 0.  0.
         25    1    4    4    0    0 -0.51527185459E+02  0.28883085838E+02  0.12010701913E+03  0.18320067585E+03  0.12509000000E+03 0.  0.
<mgrwt>
<rscale>  2 0.44331034E+03</rscale>
<asrwt>0</asrwt>
<pdfrwt beam="1">  1       21 0.70413968E-01 0.44331034E+03</pdfrwt>
<pdfrwt beam="2">  1       21 0.15089647E-01 0.44331034E+03</pdfrwt>
<totfact> 0.65700444E+04</totfact>
</mgrwt>
</event>
<event>
 7    0  0.4784406E-002  0.4259607E+03  0.7546771E-02  0.1035144E+00
         21   -1    0    0  502  501  0.00000000000E+00  0.00000000000E+00  0.39597315875E+03  0.39597315875E+03  0.00000000000E+00 0. -1.
         21   -1    0    0  501  502 -0.00000000000E+00 -0.00000000000E+00 -0.11455480674E+03  0.11455480674E+03  0.00000000000E+00 0. -1.
      99926    2    1    2    0    0  0.00000000000E+00 -0.17763568394E-14  0.28141835201E+03  0.51052796549E+03  0.42596069619E+03 0.  0.
      99925    2    3    3    0    0 -0.23746599224E+02  0.10486072036E+02  0.27683400748E+03  0.38269063527E+03  0.26294713527E+03 0.  0.
         25    1    4    4    0    0 -0.31790695154E+02 -0.18716665473E+02  0.17672209893E+03  0.21963417361E+03  0.12509000000E+03 0.  0.
         25    1    3    3    0    0  0.23746599224E+02 -0.10486072036E+02  0.45843445227E+01  0.12783733021E+03  0.12509000000E+03 0.  0.
         25    1    4    4    0    0  0.80440959301E+01  0.29202737509E+02  0.10011190855E+03  0.16305646167E+03  0.12509000000E+03 0.  0.
<mgrwt>
<rscale>  2 0.42596070E+03</rscale>
<asrwt>0</asrwt>
<pdfrwt beam="1">  1       21 0.58231346E-01 0.42596070E+03</pdfrwt>
<pdfrwt beam="2">  1       21 0.16846295E-01 0.42596070E+03</pdfrwt>
<totfact> 0.81804968E+04</totfact>
</mgrwt>
</event>
<event>
 7    0  0.4784406E-002  0.4610259E+03  0.7546771E-02  0.1024484E+00
         21   -1    0    0  502  501  0.00000000000E+00  0.00000000000E+00  0.56597990769E+03  0.56597990769E+03  0.00000000000E+00 0.  1.
         21   -1    0    0  501  502 -0.00000000000E+00 -0.00000000000E+00 -0.93883582751E+02  0.93883582751E+02  0.00000000000E+00 0.  1.
      99926    2    1    2    0    0  0.00000000000E+00  0.00000000000E+00  0.47209632494E+03  0.65986349044E+03  0.46102590599E+03 0.  0.
      99925    2    3    3    0    0 -0.19356708460E+02  0.11696815077E+03  0.30455782955E+03  0.41950358115E+03  0.26300485280E+03 0.  0.
         25    1    3    3    0    0  0.19356708460E+02 -0.11696815077E+03  0.16753849539E+03  0.24035990930E+03  0.12509000000E+03 0.  0.
         25    1    4    4    0    0 -0.42680851554E+02  0.51192426314E+02  0.18412753464E+03  0.23236345821E+03  0.12509000000E+03 0.  0.
         25    1    4    4    0    0  0.23324143094E+02  0.65775724460E+02  0.12043029491E+03  0.18714012293E+03  0.12509000000E+03 0.  0.
<mgrwt>
<rscale>  2 0.46102591E+03</rscale>
<asrwt>0</asrwt>
<pdfrwt beam="1">  1       21 0.83232337E-01 0.46102591E+03</pdfrwt>
<pdfrwt beam="2">  1       21 0.13806410E-01 0.46102591E+03</pdfrwt>
<totfact> 0.52592292E+04</totfact>
</mgrwt>
</event>
<event>
 7    0  0.4784406E-002  0.4532959E+03  0.7546771E-02  0.1026744E+00
         21   -1    0    0  502  501  0.00000000000E+00  0.00000000000E+00  0.11344267183E+03  0.11344267183E+03  0.00000000000E+00 0. -1.
         21   -1    0    0  501  502 -0.00000000000E+00 -0.00000000000E+00 -0.45282154658E+03  0.45282154658E+03  0.00000000000E+00 0. -1.
      99926    2    1    2    0    0  0.00000000000E+00  0.00000000000E+00 -0.33937887476E+03  0.56626421841E+03  0.45329586852E+03 0.  0.
      99925    2    3    3    0    0  0.10320064402E+03  0.36456653427E+02 -0.24104130660E+03  0.37313926944E+03  0.26296870993E+03 0.  0.
         25    1    3    3    0    0 -0.10320064402E+03 -0.36456653427E+02 -0.98337568159E+02  0.19312494897E+03  0.12509000000E+03 0.  0.
         25    1    4    4    0    0  0.33876506041E+02  0.36790805706E+02 -0.75706072548E+02  0.15453186910E+03  0.12509000000E+03 0.  0.
         25    1    4    4    0    0  0.69324137977E+02 -0.33415227928E+00 -0.16533523405E+03  0.21860740034E+03  0.12509000000E+03 0.  0.
<mgrwt>
<rscale>  2 0.45329587E+03</rscale>
<asrwt>0</asrwt>
<pdfrwt beam="1">  1       21 0.16682746E-01 0.45329587E+03</pdfrwt>
<pdfrwt beam="2">  1       21 0.66591402E-01 0.45329587E+03</pdfrwt>
<totfact> 0.61630805E+04</totfact>
</mgrwt>
</event>
<event>
 7    0  0.4784406E-002  0.4530313E+03  0.7546771E-02  0.1026822E+00
         21   -1    0    0  502  501  0.00000000000E+00  0.00000000000E+00  0.14448999065E+02  0.14448999065E+02  0.00000000000E+00 0.  1.
         21   -1    0    0  501  502 -0.00000000000E+00 -0.00000000000E+00 -0.35510656444E+04  0.35510656444E+04  0.00000000000E+00 0.  1.
      99926    2    1    2    0    0  0.14210854715E-13  0.00000000000E+00 -0.35366166454E+04  0.35655146435E+04  0.45303131979E+03 0.  0.
      99925    2    3    3    0    0  0.87140532109E+02 -0.48754782084E+02 -0.18389480852E+04  0.18603177196E+04  0.26283351490E+03 0.  0.
         25    1    3    3    0    0 -0.87140532109E+02  0.48754782084E+02 -0.16976685601E+04  0.17051969239E+04  0.12509000000E+03 0.  0.
         25    1    4    4    0    0  0.99127200072E+01 -0.31627590517E+02 -0.70835321115E+03  0.72007662533E+03  0.12509000000E+03 0.  0.
         25    1    4    4    0    0  0.77227812102E+02 -0.17127191567E+02 -0.11305948741E+04  0.11402410943E+04  0.12509000000E+03 0.  0.
<mgrwt>
<rscale>  2 0.45303132E+03</rscale>
<asrwt>0</asrwt>
<pdfrwt beam="1">  1       21 0.21248508E-02 0.45303132E+03</pdfrwt>
<pdfrwt beam="2">  1       21 0.52221604E+00 0.45303132E+03</pdfrwt>
<totfact> 0.11478699E+03</totfact>
</mgrwt>
</event>
<event>
 7    0  0.4784406E-002  0.4528714E+03  0.7546771E-02  0.1026869E+00
         21   -1    0    0  502  501  0.00000000000E+00  0.00000000000E+00  0.31257842154E+03  0.31257842154E+03  0.00000000000E+00 0.  1.
         21   -1    0    0  501  502 -0.00000000000E+00 -0.00000000000E+00 -0.16403281365E+03  0.16403281365E+03  0.00000000000E+00 0.  1.
      99926    2    1    2    0    0  0.00000000000E+00  0.00000000000E+00  0.14854560789E+03  0.47661123519E+03  0.45287136351E+03 0.  0.
      99925    2    3    3    0    0 -0.88234281645E+02 -0.67666136298E+02  0.97009469492E+02  0.30148991690E+03  0.26290937291E+03 0.  0.
         25    1    4    4    0    0 -0.33665777513E+02 -0.49041453449E+02  0.86601837632E+02  0.16335799678E+03  0.12509000000E+03 0.  0.
         25    1    3    3    0    0  0.88234281645E+02  0.67666136298E+02  0.51536138397E+02  0.17512131829E+03  0.12509000000E+03 0.  0.
         25    1    4    4    0    0 -0.54568504132E+02 -0.18624682849E+02  0.10407631860E+02  0.13813192012E+03  0.12509000000E+03 0.  0.
<mgrwt>
<rscale>  2 0.45287136E+03</rscale>
<asrwt>0</asrwt>
<pdfrwt beam="1">  1       21 0.45967415E-01 0.45287136E+03</pdfrwt>
<pdfrwt beam="2">  1       21 0.24122472E-01 0.45287136E+03</pdfrwt>
<totfact> 0.68090728E+04</totfact>
</mgrwt>
</event>
<event>
 7    0  0.4784406E-002  0.4513307E+03  0.7546771E-02  0.1027326E+00
         21   -1    0    0  502  501  0.00000000000E+00  0.00000000000E+00  0.69423022731E+03  0.69423022731E+03  0.00000000000E+00 0.  1.
         21   -1    0    0  501  502 -0.00000000000E+00 -0.00000000000E+00 -0.73354418228E+02  0.73354418228E+02  0.00000000000E+00 0.  1.
      99926    2    1    2    0    0  0.00000000000E+00  0.00000000000E+00  0.62087580909E+03  0.76758464554E+03  0.45133071883E+03 0.  0.
      99925    2    3    3    0    0  0.10491340177E+03 -0.69026555130E+01  0.44544968026E+03  0.52784248551E+03  0.26294068406E+03 0.  0.
         25    1    3    3    0    0 -0.10491340177E+03  0.69026555130E+01  0.17542612882E+03  0.23974216004E+03  0.12509000000E+03 0.  0.
         25    1    4    4    0    0  0.20617744123E+02 -0.30491155555E+02  0.21268478847E+03  0.24947370460E+03  0.12509000000E+03 0.  0.
         25    1    4    4    0    0  0.84295657648E+02  0.23588500042E+02  0.23276489179E+03  0.27836878090E+03  0.12509000000E+03 0.  0.
<mgrwt>
<rscale>  2 0.45133072E+03</rscale>
<asrwt>0</asrwt>
<pdfrwt beam="1">  1       21 0.10209268E+00 0.45133072E+03</pdfrwt>
<pdfrwt beam="2">  1       21 0.10787415E-01 0.45133072E+03</pdfrwt>
<totfact> 0.50820732E+04</totfact>
</mgrwt>
</event>
<event>
 6    0  0.4784406E-002  0.4544202E+03  0.7546771E-02  0.1026412E+00
         21   -1    0    0  502  501  0.00000000000E+00  0.00000000000E+00  0.71782325118E+02  0.71782325118E+02  0.00000000000E+00 0.  1.
         21   -1    0    0  501  502 -0.00000000000E+00 -0.00000000000E+00 -0.71918032425E+03  0.71918032425E+03  0.00000000000E+00 0.  1.
      99926    2    1    2    0    0  0.00000000000E+00 -0.14210854715E-13 -0.64739799913E+03  0.79096264937E+03  0.45442022778E+03 0.  0.
         25    1    3    3    0    0  0.29615645433E+02 -0.17335225287E+02 -0.23557214471E+03  0.26892255382E+03  0.12509000000E+03 0.  0.
         25    1    3    3    0    0 -0.22317235804E+02 -0.88733569213E+02 -0.22663193863E+03  0.27455645872E+03  0.12509000000E+03 0.  0.
         25    1    3    3    0    0 -0.72984096296E+01  0.10606879450E+03 -0.18519391580E+03  0.24748363683E+03  0.12509000000E+03 0.  0.
<mgrwt>
<rscale>  2 0.45442023E+03</rscale>
<asrwt>0</asrwt>
<pdfrwt beam="1">  1       21 0.10556225E-01 0.45442023E+03</pdfrwt>
<pdfrwt beam="2">  1       21 0.10576181E+00 0.45442023E+03</pdfrwt>
<totfact> 0.48425031E+04</totfact>
</mgrwt>
</event>
<event>
 7    0  0.4784406E-002  0.4616474E+03  0.7546771E-02  0.1024304E+00
         21   -1    0    0  502  501  0.00000000000E+00  0.00000000000E+00  0.55764945178E+03  0.55764945178E+03  0.00000000000E+00 0.  1.
         21   -1    0    0  501  502 -0.00000000000E+00 -0.00000000000E+00 -0.95543157594E+02  0.95543157594E+02  0.00000000000E+00 0.  1.
      99926    2    1    2    0    0 -0.17763568394E-14  0.00000000000E+00  0.46210629418E+03  0.65319260937E+03  0.46164743887E+03 0.  0.
      99925    2    3    3    0    0  0.15614432537E+02 -0.11752482001E+03  0.27009725553E+03  0.39517929024E+03  0.26297956227E+03 0.  0.
         25    1    3    3    0    0 -0.15614432537E+02  0.11752482001E+03  0.19200903865E+03  0.25801331913E+03  0.12509000000E+03 0.  0.
         25    1    4    4    0    0  0.42351338352E+02 -0.80971446567E+02  0.15711296042E+03  0.22063998154E+03  0.12509000000E+03 0.  0.
         25    1    4    4    0    0 -0.26736905815E+02 -0.36553373447E+02  0.11298429510E+03  0.17453930870E+03  0.12509000000E+03 0.  0.
<mgrwt>
<rscale>  2 0.46164744E+03</rscale>
<asrwt>0</asrwt>
<pdfrwt beam="1">  1       21 0.82007271E-01 0.46164744E+03</pdfrwt>
<pdfrwt beam="2">  1       21 0.14050464E-01 0.46164744E+03</pdfrwt>
<totfact> 0.52699583E+04</totfact>
</mgrwt>
</event>
<event>
 7    0  0.4784406E-002  0.4348679E+03  0.7546771E-02  0.1032333E+00
         21   -1    0    0  502  501  0.00000000000E+00  0.00000000000E+00  0.34956065582E+02  0.34956065582E+02  0.00000000000E+00 0. -1.
         21   -1    0    0  501  502 -0.00000000000E+00 -0.00000000000E+00 -0.13524839246E+04  0.13524839246E+04  0.00000000000E+00 0. -1.
      99926    2    1    2    0    0  0.00000000000E+00  0.00000000000E+00 -0.13175278590E+04  0.13874399902E+04  0.43486787312E+03 0.  0.
      99925    2    3    3    0    0  0.83251391618E+02  0.41493051041E+02 -0.84753662710E+03  0.89227160098E+03  0.26301674498E+03 0.  0.
         25    1    4    4    0    0  0.19980089943E+02 -0.11856004724E+02 -0.33951951021E+03  0.36257519876E+03  0.12509000000E+03 0.  0.
         25    1    3    3    0    0 -0.83251391618E+02 -0.41493051041E+02 -0.46999123192E+03  0.49516838921E+03  0.12509000000E+03 0.  0.
         25    1    4    4    0    0  0.63271301675E+02  0.53349055765E+02 -0.50801711689E+03  0.52969640222E+03  0.12509000000E+03 0.  0.
<mgrwt>
<rscale>  2 0.43486787E+03</rscale>
<asrwt>0</asrwt>
<pdfrwt beam="1">  1       21 0.51405979E-02 0.43486787E+03</pdfrwt>
<pdfrwt beam="2">  1       21 0.19889470E+00 0.43486787E+03</pdfrwt>
<totfact> 0.31284726E+04</totfact>
</mgrwt>
</event>
<event>
 7    0  0.4784406E-002  0.4424228E+03  0.7546771E-02  0.1030006E+00
         21   -1    0    0  502  501  0.00000000000E+00  0.00000000000E+00  0.37160562640E+03  0.37160562640E+03  0.00000000000E+00 0. -1.
         21   -1    0    0  501  502 -0.00000000000E+00 -0.00000000000E+00 -0.13168393374E+03  0.13168393374E+03  0.00000000000E+00 0. -1.
      99926    2    1    2    0    0  0.00000000000E+00  0.00000000000E+00  0.23992169266E+03  0.50328956014E+03  0.44242283253E+03 0.  0.
      99925    2    3    3    0    0  0.67883858053E+02  0.27761105525E+02  0.23156487356E+03  0.35804410689E+03  0.26304827437E+03 0.  0.
         25    1    4    4    0    0  0.50966587699E+02  0.24071506909E+02  0.16725217569E+03  0.21632805847E+03  0.12509000000E+03 0.  0.
         25    1    4    4    0    0  0.16917270354E+02  0.36895986169E+01  0.64312697870E+02  0.14171604843E+03  0.12509000000E+03 0.  0.
         25    1    3    3    0    0 -0.67883858053E+02 -0.27761105525E+02  0.83568190951E+01  0.14524545325E+03  0.12509000000E+03 0.  0.
<mgrwt>
<rscale>  2 0.44242283E+03</rscale>
<asrwt>0</asrwt>
<pdfrwt beam="1">  1       21 0.54647886E-01 0.44242283E+03</pdfrwt>
<pdfrwt beam="2">  1       21 0.19365284E-01 0.44242283E+03</pdfrwt>
<totfact> 0.71958856E+04</totfact>
</mgrwt>
</event>
<event>
 7    0  0.4784406E-002  0.4536042E+03  0.7546771E-02  0.1026653E+00
         21   -1    0    0  502  501  0.00000000000E+00  0.00000000000E+00  0.69576291038E+03  0.69576291038E+03  0.00000000000E+00 0. -1.
         21   -1    0    0  501  502 -0.00000000000E+00 -0.00000000000E+00 -0.73932072964E+02  0.73932072964E+02  0.00000000000E+00 0. -1.
      99926    2    1    2    0    0  0.00000000000E+00  0.00000000000E+00  0.62183083742E+03  0.76969498335E+03  0.45360420746E+03 0.  0.
      99925    2    3    3    0    0 -0.36809947427E+02 -0.45906714357E+02  0.23045893381E+03  0.35462646649E+03  0.26303272022E+03 0.  0.
         25    1    4    4    0    0  0.12522580851E+02 -0.21673612121E+02  0.14650500994E+03  0.19426215929E+03  0.12509000000E+03 0.  0.
         25    1    4    4    0    0 -0.49332528278E+02 -0.24233102236E+02  0.83953923867E+02  0.16036430720E+03  0.12509000000E+03 0.  0.
         25    1    3    3    0    0  0.36809947427E+02  0.45906714357E+02  0.39137190361E+03  0.41506851686E+03  0.12509000000E+03 0.  0.
<mgrwt>
<rscale>  2 0.45360421E+03</rscale>
<asrwt>0</asrwt>
<pdfrwt beam="1">  1       21 0.10231807E+00 0.45360421E+03</pdfrwt>
<pdfrwt beam="2">  1       21 0.10872364E-01 0.45360421E+03</pdfrwt>
<totfact> 0.49809028E+04</totfact>
</mgrwt>
</event>
<event>
 7    0  0.4784406E-002  0.4462136E+03  0.7546771E-02  0.1028857E+00
         21   -1    0    0  502  501  0.00000000000E+00  0.00000000000E+00  0.12658276032E+03  0.12658276032E+03  0.00000000000E+00 0. -1.
         21   -1    0    0  501  502 -0.00000000000E+00 -0.00000000000E+00 -0.39323397455E+03  0.39323397455E+03  0.00000000000E+00 0. -1.
      99926    2    1    2    0    0  0.44408920985E-15  0.00000000000E+00 -0.26665121423E+03  0.51981673487E+03  0.44621358988E+03 0.  0.
      99925    2    3    3    0    0  0.70838559707E+00 -0.10529773853E+03 -0.17603719795E+03  0.33287684186E+03  0.26216365354E+03 0.  0.
         25    1    4    4    0    0  0.37885830967E+02 -0.58287084496E+02 -0.77642922456E+02  0.16281477794E+03  0.12509000000E+03 0.  0.
         25    1    4    4    0    0 -0.37177445370E+02 -0.47010654034E+02 -0.98394275496E+02  0.17006206393E+03  0.12509000000E+03 0.  0.
         25    1    3    3    0    0 -0.70838559707E+00  0.10529773853E+03 -0.90614016281E+02  0.18693989300E+03  0.12509000000E+03 0.  0.
<mgrwt>
<rscale>  2 0.44621359E+03</rscale>
<asrwt>0</asrwt>
<pdfrwt beam="1">  1       21 0.18615112E-01 0.44621359E+03</pdfrwt>
<pdfrwt beam="2">  1       21 0.57828526E-01 0.44621359E+03</pdfrwt>
<totfact> 0.68552318E+04</totfact>
</mgrwt>
</event>
<event>
 7    0  0.4784406E-002  0.4543004E+03  0.7546771E-02  0.1026447E+00
         21   -1    0    0  502  501  0.00000000000E+00  0.00000000000E+00  0.26751002637E+02  0.26751002637E+02  0.00000000000E+00 0. -1.
         21   -1    0    0  501  502 -0.00000000000E+00 -0.00000000000E+00 -0.19287955290E+04  0.19287955290E+04  0.00000000000E+00 0. -1.
      99926    2    1    2    0    0  0.00000000000E+00  0.35527136788E-14 -0.19020445264E+04  0.19555465316E+04  0.45430040406E+03 0.  0.
      99925    2    3    3    0    0 -0.10332239173E+03  0.16536012474E+02 -0.10187819149E+04  0.10573542887E+04  0.26293068553E+03 0.  0.
         25    1    4    4    0    0 -0.10237785594E+02 -0.43158825498E+01 -0.46571550975E+03  0.48235037392E+03  0.12509000000E+03 0.  0.
         25    1    3    3    0    0  0.10332239173E+03 -0.16536012474E+02 -0.88326261145E+03  0.89819224291E+03  0.12509000000E+03 0.  0.
         25    1    4    4    0    0 -0.93084606134E+02  0.20851895023E+02 -0.55306640516E+03  0.57500391480E+03  0.12509000000E+03 0.  0.
<mgrwt>
<rscale>  2 0.45430040E+03</rscale>
<asrwt>0</asrwt>
<pdfrwt beam="1">  1       21 0.39339692E-02 0.45430040E+03</pdfrwt>
<pdfrwt beam="2">  1       21 0.28364653E+00 0.45430040E+03</pdfrwt>
<totfact> 0.14528198E+04</totfact>
</mgrwt>
</event>
<event>
 7    0  0.4784406E-002  0.4486981E+03  0.7546771E-02  0.1028111E+00
         21   -1    0    0  502  501  0.00000000000E+00  0.00000000000E+00  0.18508113196E+03  0.18508113196E+03  0.00000000000E+00 0. -1.
         21   -1    0    0  501  502 -0.00000000000E+00 -0.00000000000E+00 -0.27194826751E+03  0.27194826751E+03  0.00000000000E+00 0. -1.
      99926    2    1    2    0    0  0.00000000000E+00  0.00000000000E+00 -0.86867135555E+02  0.45702939947E+03  0.44869808641E+03 0.  0.
      99925    2    3    3    0    0 -0.34912378655E+02 -0.15217008773E+02  0.46970918749E+02  0.26991829767E+03  0.26305738664E+03 0.  0.
         25    1    4    4    0    0  0.16326467719E+02 -0.69141695938E+00  0.23202258856E+00  0.12615305601E+03  0.12509000000E+03 0.  0.
         25    1    3    3    0    0  0.34912378655E+02  0.15217008773E+02 -0.13383805430E+03  0.18711110181E+03  0.12509000000E+03 0.  0.
         25    1    4    4    0    0 -0.51238846373E+02 -0.14525591813E+02  0.46738896161E+02  0.14376524166E+03  0.12509000000E+03 0.  0.
<mgrwt>
<rscale>  2 0.44869809E+03</rscale>
<asrwt>0</asrwt>
<pdfrwt beam="1">  1       21 0.27217814E-01 0.44869809E+03</pdfrwt>
<pdfrwt beam="2">  1       21 0.39992392E-01 0.44869809E+03</pdfrwt>
<totfact> 0.71943053E+04</totfact>
</mgrwt>
</event>
<event>
 6    0  0.4784406E-002  0.4560549E+03  0.7546771E-02  0.1025932E+00
         21   -1    0    0  502  501  0.00000000000E+00  0.00000000000E+00  0.23837939929E+03  0.23837939929E+03  0.00000000000E+00 0. -1.
         21   -1    0    0  501  502 -0.00000000000E+00 -0.00000000000E+00 -0.21812508933E+03  0.21812508933E+03  0.00000000000E+00 0. -1.
      99926    2    1    2    0    0  0.00000000000E+00  0.00000000000E+00  0.20254309953E+02  0.45650448862E+03  0.45605494302E+03 0.  0.
         25    1    3    3    0    0 -0.72342768587E+02  0.61546947184E+02 -0.60935161907E+02  0.16846989325E+03  0.12509000000E+03 0.  0.
         25    1    3    3    0    0  0.49068352569E+02 -0.60833842581E+01  0.18643211888E+02  0.13579318185E+03  0.12509000000E+03 0.  0.
         25    1    3    3    0    0  0.23274416019E+02 -0.55463562926E+02  0.62546259972E+02  0.15224141352E+03  0.12509000000E+03 0.  0.
<mgrwt>
<rscale>  2 0.45605494E+03</rscale>
<asrwt>0</asrwt>
<pdfrwt beam="1">  1       21 0.35055794E-01 0.45605494E+03</pdfrwt>
<pdfrwt beam="2">  1       21 0.32077219E-01 0.45605494E+03</pdfrwt>
<totfact> 0.67862718E+04</totfact>
</mgrwt>
</event>
<event>
 7    0  0.4784406E-002  0.4616052E+03  0.7546771E-02  0.1024317E+00
         21   -1    0    0  502  501  0.00000000000E+00  0.00000000000E+00  0.14953549347E+03  0.14953549347E+03  0.00000000000E+00 0.  1.
         21   -1    0    0  501  502 -0.00000000000E+00 -0.00000000000E+00 -0.35623549904E+03  0.35623549904E+03  0.00000000000E+00 0.  1.
      99926    2    1    2    0    0  0.00000000000E+00  0.00000000000E+00 -0.20670000557E+03  0.50577099251E+03  0.46160524755E+03 0.  0.
      99925    2    3    3    0    0 -0.62703511330E+02  0.73236767520E+02 -0.52302835822E+02  0.28490599172E+03  0.26294577965E+03 0.  0.
         25    1    4    4    0    0 -0.71737784241E+02  0.49054799967E+02 -0.30227800177E+02  0.15528654511E+03  0.12509000000E+03 0.  0.
         25    1    4    4    0    0  0.90342729102E+01  0.24181967553E+02 -0.22075035645E+02  0.12961944661E+03  0.12509000000E+03 0.  0.
         25    1    3    3    0    0  0.62703511330E+02 -0.73236767520E+02 -0.15439716975E+03  0.22086500079E+03  0.12509000000E+03 0.  0.
<mgrwt>
<rscale>  2 0.46160525E+03</rscale>
<asrwt>0</asrwt>
<pdfrwt beam="1">  1       21 0.21990514E-01 0.46160525E+03</pdfrwt>
<pdfrwt beam="2">  1       21 0.52387572E-01 0.46160525E+03</pdfrwt>
<totfact> 0.61574799E+04</totfact>
</mgrwt>
</event>
<event>
 7    0  0.4784406E-002  0.4395193E+03  0.7546771E-02  0.1030894E+00
         21   -1    0    0  502  501  0.00000000000E+00  0.00000000000E+00  0.19653004867E+03  0.19653004867E+03  0.00000000000E+00 0.  1.
         21   -1    0    0  501  502 -0.00000000000E+00 -0.00000000000E+00 -0.24573492395E+03  0.24573492395E+03  0.00000000000E+00 0.  1.
      99926    2    1    2    0    0  0.00000000000E+00  0.00000000000E+00 -0.49204875283E+02  0.44226497262E+03  0.43951926722E+03 0.  0.
      99925    2    3    3    0    0  0.34735557151E+02 -0.60497651566E+02  0.37800024488E+02  0.27468249901E+03  0.26297358924E+03 0.  0.
         25    1    4    4    0    0 -0.17394667301E+02 -0.35767713089E+02 -0.20561072213E+01  0.13127695695E+03  0.12509000000E+03 0.  0.
         25    1    3    3    0    0 -0.34735557151E+02  0.60497651566E+02 -0.87004899771E+02  0.16758247361E+03  0.12509000000E+03 0.  0.
         25    1    4    4    0    0  0.52130224451E+02 -0.24729938478E+02  0.39856131710E+02  0.14340554206E+03  0.12509000000E+03 0.  0.
<mgrwt>
<rscale>  2 0.43951927E+03</rscale>
<asrwt>0</asrwt>
<pdfrwt beam="1">  1       21 0.28901478E-01 0.43951927E+03</pdfrwt>
<pdfrwt beam="2">  1       21 0.36137489E-01 0.43951927E+03</pdfrwt>
<totfact> 0.78778601E+04</totfact>
</mgrwt>
</event>
<event>
 7    0  0.4784406E-002  0.4615267E+03  0.7546771E-02  0.1024339E+00
         21   -1    0    0  502  501  0.00000000000E+00  0.00000000000E+00  0.65595306763E+03  0.65595306763E+03  0.00000000000E+00 0.  1.
         21   -1    0    0  501  502 -0.00000000000E+00 -0.00000000000E+00 -0.81182228144E+02  0.81182228144E+02  0.00000000000E+00 0.  1.
      99926    2    1    2    0    0  0.35527136788E-14 -0.14210854715E-13  0.57477083949E+03  0.73713529578E+03  0.46152673417E+03 0.  0.
      99925    2    3    3    0    0  0.19605088679E+02  0.91627329868E+02  0.24185899795E+03  0.36936127628E+03  0.26296777454E+03 0.  0.
         25    1    4    4    0    0  0.47398148598E+02  0.52931591677E+02  0.10647459518E+03  0.17897677337E+03  0.12509000000E+03 0.  0.
         25    1    3    3    0    0 -0.19605088679E+02 -0.91627329868E+02  0.33291184154E+03  0.36777401950E+03  0.12509000000E+03 0.  0.
         25    1    4    4    0    0 -0.27793059919E+02  0.38695738191E+02  0.13538440277E+03  0.19038450291E+03  0.12509000000E+03 0.  0.
<mgrwt>
<rscale>  2 0.46152673E+03</rscale>
<asrwt>0</asrwt>
<pdfrwt beam="1">  1       21 0.96463683E-01 0.46152673E+03</pdfrwt>
<pdfrwt beam="2">  1       21 0.11938563E-01 0.46152673E+03</pdfrwt>
<totfact> 0.48400824E+04</totfact>
</mgrwt>
</event>
<event>
 7    0  0.4784406E-002  0.4537159E+03  0.7546771E-02  0.1026620E+00
         21   -1    0    0  502  501  0.00000000000E+00  0.00000000000E+00  0.57683670794E+02  0.57683670794E+02  0.00000000000E+00 0.  1.
         21   -1    0    0  501  502 -0.00000000000E+00 -0.00000000000E+00 -0.89218537281E+03  0.89218537281E+03  0.00000000000E+00 0.  1.
      99926    2    1    2    0    0  0.00000000000E+00  0.00000000000E+00 -0.83450170201E+03  0.94986904360E+03  0.45371589054E+03 0.  0.
      99925    2    3    3    0    0 -0.71349883998E+02 -0.48380850340E+02 -0.67539215737E+03  0.72988070772E+03  0.26294442120E+03 0.  0.
         25    1    4    4    0    0 -0.28528373821E+02  0.31345438470E+01 -0.39994042468E+03  0.42002802867E+03  0.12509000000E+03 0.  0.
         25    1    3    3    0    0  0.71349883998E+02  0.48380850340E+02 -0.15910954464E+03  0.21998833588E+03  0.12509000000E+03 0.  0.
         25    1    4    4    0    0 -0.42821510177E+02 -0.51515394187E+02 -0.27545173269E+03  0.30985267905E+03  0.12509000000E+03 0.  0.
<mgrwt>
<rscale>  2 0.45371589E+03</rscale>
<asrwt>0</asrwt>
<pdfrwt beam="1">  1       21 0.84828934E-02 0.45371589E+03</pdfrwt>
<pdfrwt beam="2">  1       21 0.13120372E+00 0.45371589E+03</pdfrwt>
<totfact> 0.41561887E+04</totfact>
</mgrwt>
</event>
<event>
 7    0  0.4784406E-002  0.4664396E+03  0.7546771E-02  0.1022930E+00
         21   -1    0    0  502  501  0.00000000000E+00  0.00000000000E+00  0.15247829277E+04  0.15247829277E+04  0.00000000000E+00 0.  1.
         21   -1    0    0  501  502 -0.00000000000E+00 -0.00000000000E+00 -0.35671622685E+02  0.35671622685E+02  0.00000000000E+00 0.  1.
      99926    2    1    2    0    0 -0.14210854715E-13  0.00000000000E+00  0.14891113050E+04  0.15604545503E+04  0.46643962641E+03 0.  0.
      99925    2    3    3    0    0 -0.84399984421E+02  0.87062853524E+02  0.10068157933E+04  0.10476585222E+04  0.26307230868E+03 0.  0.
         25    1    4    4    0    0 -0.68999845785E+02  0.31180816869E+02  0.41533347891E+03  0.44032105203E+03  0.12509000000E+03 0.  0.
         25    1    4    4    0    0 -0.15400138635E+02  0.55882036655E+02  0.59148231443E+03  0.60733747017E+03  0.12509000000E+03 0.  0.
         25    1    3    3    0    0  0.84399984421E+02 -0.87062853524E+02  0.48229551164E+03  0.51279602815E+03  0.12509000000E+03 0.  0.
<mgrwt>
<rscale>  2 0.46643963E+03</rscale>
<asrwt>0</asrwt>
<pdfrwt beam="1">  1       21 0.22423274E+00 0.46643963E+03</pdfrwt>
<pdfrwt beam="2">  1       21 0.52458279E-02 0.46643963E+03</pdfrwt>
<totfact> 0.20456987E+04</totfact>
</mgrwt>
</event>
<event>
 7    0  0.4784406E-002  0.4535633E+03  0.7546771E-02  0.1026665E+00
         21   -1    0    0  502  501  0.00000000000E+00  0.00000000000E+00  0.15481053466E+03  0.15481053466E+03  0.00000000000E+00 0. -1.
         21   -1    0    0  501  502 -0.00000000000E+00 -0.00000000000E+00 -0.33221199729E+03  0.33221199729E+03  0.00000000000E+00 0. -1.
      99926    2    1    2    0    0 -0.17763568394E-14 -0.14210854715E-13 -0.17740146263E+03  0.48702253195E+03  0.45356330064E+03 0.  0.
      99925    2    3    3    0    0  0.12894685086E+02 -0.81561924020E+02 -0.30740790486E+02  0.27731921484E+03  0.26294929239E+03 0.  0.
         25    1    4    4    0    0  0.27688287137E+02 -0.74496080523E+02 -0.34534699345E+01  0.14824217285E+03  0.12509000000E+03 0.  0.
         25    1    4    4    0    0 -0.14793602051E+02 -0.70658434965E+01 -0.27287320552E+02  0.12907704199E+03  0.12509000000E+03 0.  0.
         25    1    3    3    0    0 -0.12894685086E+02  0.81561924020E+02 -0.14666067214E+03  0.20970331711E+03  0.12509000000E+03 0.  0.
<mgrwt>
<rscale>  2 0.45356330E+03</rscale>
<asrwt>0</asrwt>
<pdfrwt beam="1">  1       21 0.22766255E-01 0.45356330E+03</pdfrwt>
<pdfrwt beam="2">  1       21 0.48854706E-01 0.45356330E+03</pdfrwt>
<totfact> 0.66952727E+04</totfact>
</mgrwt>
</event>
<event>
 7    0  0.4784406E-002  0.4501800E+03  0.7546771E-02  0.1027668E+00
         21   -1    0    0  502  501  0.00000000000E+00  0.00000000000E+00  0.51438549174E+03  0.51438549174E+03  0.00000000000E+00 0. -1.
         21   -1    0    0  501  502 -0.00000000000E+00 -0.00000000000E+00 -0.98497141392E+02  0.98497141392E+02  0.00000000000E+00 0. -1.
      99926    2    1    2    0    0  0.00000000000E+00  0.00000000000E+00  0.41588835035E+03  0.61288263313E+03  0.45017996628E+03 0.  0.
      99925    2    3    3    0    0 -0.34042025916E+02 -0.42874192188E+02  0.13522331268E+03  0.30076498328E+03  0.26301554134E+03 0.  0.
         25    1    3    3    0    0  0.34042025916E+02  0.42874192188E+02  0.28066503766E+03  0.31211764985E+03  0.12509000000E+03 0.  0.
         25    1    4    4    0    0 -0.15476822621E+02 -0.61616521034E+02  0.61464073902E+02  0.15317136868E+03  0.12509000000E+03 0.  0.
         25    1    4    4    0    0 -0.18565203294E+02  0.18742328845E+02  0.73759238783E+02  0.14759361460E+03  0.12509000000E+03 0.  0.
<mgrwt>
<rscale>  2 0.45017997E+03</rscale>
<asrwt>0</asrwt>
<pdfrwt beam="1">  1       21 0.75644924E-01 0.45017997E+03</pdfrwt>
<pdfrwt beam="2">  1       21 0.14484874E-01 0.45017997E+03</pdfrwt>
<totfact> 0.60149556E+04</totfact>
</mgrwt>
</event>
<event>
 6    0  0.4784406E-002  0.4520742E+03  0.7546771E-02  0.1027105E+00
         21   -1    0    0  502  501  0.00000000000E+00  0.00000000000E+00  0.10409564037E+03  0.10409564037E+03  0.00000000000E+00 0. -1.
         21   -1    0    0  501  502 -0.00000000000E+00 -0.00000000000E+00 -0.49082520428E+03  0.49082520428E+03  0.00000000000E+00 0. -1.
      99926    2    1    2    0    0  0.14210854715E-13  0.00000000000E+00 -0.38672956391E+03  0.59492084464E+03  0.45207417067E+03 0.  0.
         25    1    3    3    0    0  0.84980126397E+02 -0.39794078237E+02 -0.11861369746E+03  0.19626998719E+03  0.12509000000E+03 0.  0.
         25    1    3    3    0    0 -0.71572770592E+02  0.76924920047E+02 -0.13731312709E+03  0.21340690660E+03  0.12509000000E+03 0.  0.
         25    1    3    3    0    0 -0.13407355805E+02 -0.37130841810E+02 -0.13080273936E+03  0.18524395085E+03  0.12509000000E+03 0.  0.
<mgrwt>
<rscale>  2 0.45207417E+03</rscale>
<asrwt>0</asrwt>
<pdfrwt beam="1">  1       21 0.15308183E-01 0.45207417E+03</pdfrwt>
<pdfrwt beam="2">  1       21 0.72180176E-01 0.45207417E+03</pdfrwt>
<totfact> 0.60375873E+04</totfact>
</mgrwt>
</event>
<event>
 7    0  0.4784406E-002  0.4583547E+03  0.7546771E-02  0.1025259E+00
         21   -1    0    0  502  501  0.00000000000E+00  0.00000000000E+00  0.51831684318E+02  0.51831684318E+02  0.00000000000E+00 0.  1.
         21   -1    0    0  501  502 -0.00000000000E+00 -0.00000000000E+00 -0.10133234379E+04  0.10133234379E+04  0.00000000000E+00 0.  1.
      99926    2    1    2    0    0  0.00000000000E+00  0.00000000000E+00 -0.96149175355E+03  0.10651551222E+04  0.45835471218E+03 0.  0.
      99925    2    3    3    0    0 -0.54707649199E+02  0.72938532436E+02 -0.43557247104E+03  0.51692929626E+03  0.26302008176E+03 0.  0.
         25    1    4    4    0    0 -0.54917252003E+02  0.43080228471E+02 -0.28452745212E+03  0.31855170657E+03  0.12509000000E+03 0.  0.
         25    1    3    3    0    0  0.54707649199E+02 -0.72938532436E+02 -0.52591928252E+03  0.54822582593E+03  0.12509000000E+03 0.  0.
         25    1    4    4    0    0  0.20960280467E+00  0.29858303965E+02 -0.15104501892E+03  0.19837758969E+03  0.12509000000E+03 0.  0.
<mgrwt>
<rscale>  2 0.45835471E+03</rscale>
<asrwt>0</asrwt>
<pdfrwt beam="1">  1       21 0.76223069E-02 0.45835471E+03</pdfrwt>
<pdfrwt beam="2">  1       21 0.14901814E+00 0.45835471E+03</pdfrwt>
<totfact> 0.35780220E+04</totfact>
</mgrwt>
</event>
<event>
 7    0  0.4784406E-002  0.4518553E+03  0.7546771E-02  0.1027170E+00
         21   -1    0    0  502  501  0.00000000000E+00  0.00000000000E+00  0.52304429888E+03  0.52304429888E+03  0.00000000000E+00 0. -1.
         21   -1    0    0  501  502 -0.00000000000E+00 -0.00000000000E+00 -0.97588860562E+02  0.97588860562E+02  0.00000000000E+00 0. -1.
      99926    2    1    2    0    0  0.71054273576E-14  0.00000000000E+00  0.42545543832E+03  0.62063315945E+03  0.45185527396E+03 0.  0.
      99925    2    3    3    0    0  0.62060074918E+02 -0.90815682063E+02  0.26096077138E+03  0.38652860042E+03  0.26306823018E+03 0.  0.
         25    1    3    3    0    0 -0.62060074918E+02  0.90815682063E+02  0.16449466694E+03  0.23410455903E+03  0.12509000000E+03 0.  0.
         25    1    4    4    0    0  0.10878138980E+01 -0.13177570519E+02  0.11535005919E+03  0.17066920038E+03  0.12509000000E+03 0.  0.
         25    1    4    4    0    0  0.60972261020E+02 -0.77638111543E+02  0.14561071219E+03  0.21585940004E+03  0.12509000000E+03 0.  0.
<mgrwt>
<rscale>  2 0.45185527E+03</rscale>
<asrwt>0</asrwt>
<pdfrwt beam="1">  1       21 0.76918278E-01 0.45185527E+03</pdfrwt>
<pdfrwt beam="2">  1       21 0.14351303E-01 0.45185527E+03</pdfrwt>
<totfact> 0.58874253E+04</totfact>
</mgrwt>
</event>
<event>
 7    0  0.4784406E-002  0.4500657E+03  0.7546771E-02  0.1027702E+00
         21   -1    0    0  502  501  0.00000000000E+00  0.00000000000E+00  0.10575715931E+03  0.10575715931E+03  0.00000000000E+00 0.  1.
         21   -1    0    0  501  502 -0.00000000000E+00 -0.00000000000E+00 -0.47883069497E+03  0.47883069497E+03  0.00000000000E+00 0.  1.
      99926    2    1    2    0    0  0.00000000000E+00  0.00000000000E+00 -0.37307353565E+03  0.58458785428E+03  0.45006565784E+03 0.  0.
      99925    2    3    3    0    0 -0.12671743331E+02  0.32916264249E+02 -0.10255577004E+03  0.28446883931E+03  0.26298437414E+03 0.  0.
         25    1    3    3    0    0  0.12671743331E+02 -0.32916264249E+02 -0.27051776561E+03  0.30011901497E+03  0.12509000000E+03 0.  0.
         25    1    4    4    0    0 -0.12197776931E+02  0.42382759128E+02 -0.19611690968E+02  0.13407912051E+03  0.12509000000E+03 0.  0.
         25    1    4    4    0    0 -0.47396639947E+00 -0.94664948790E+01 -0.82944079071E+02  0.15038971881E+03  0.12509000000E+03 0.  0.
<mgrwt>
<rscale>  2 0.45006566E+03</rscale>
<asrwt>0</asrwt>
<pdfrwt beam="1">  1       21 0.15552524E-01 0.45006566E+03</pdfrwt>
<pdfrwt beam="2">  1       21 0.70416278E-01 0.45006566E+03</pdfrwt>
<totfact> 0.62020985E+04</totfact>
</mgrwt>
</event>
<event>
 7    0  0.4784406E-002  0.4547237E+03  0.7546771E-02  0.1026323E+00
         21   -1    0    0  502  501  0.00000000000E+00  0.00000000000E+00  0.34680948628E+03  0.34680948628E+03  0.00000000000E+00 0.  1.
         21   -1    0    0  501  502 -0.00000000000E+00 -0.00000000000E+00 -0.14905421383E+03  0.14905421383E+03  0.00000000000E+00 0.  1.
      99926    2    1    2    0    0  0.00000000000E+00  0.00000000000E+00  0.19775527245E+03  0.49586370011E+03  0.45472371975E+03 0.  0.
      99925    2    3    3    0    0  0.40303787914E+02 -0.93871782860E+02  0.71210813955E+02  0.29068739784E+03  0.26266304708E+03 0.  0.
         25    1    4    4    0    0  0.11052073197E+02 -0.68230569894E+02  0.28954439412E+01  0.14294562143E+03  0.12509000000E+03 0.  0.
         25    1    4    4    0    0  0.29251714716E+02 -0.25641212966E+02  0.68315370014E+02  0.14774177641E+03  0.12509000000E+03 0.  0.
         25    1    3    3    0    0 -0.40303787914E+02  0.93871782860E+02  0.12654445850E+03  0.20517630227E+03  0.12509000000E+03 0.  0.
<mgrwt>
<rscale>  2 0.45472372E+03</rscale>
<asrwt>0</asrwt>
<pdfrwt beam="1">  1       21 0.51001395E-01 0.45472372E+03</pdfrwt>
<pdfrwt beam="2">  1       21 0.21919737E-01 0.45472372E+03</pdfrwt>
<totfact> 0.65706223E+04</totfact>
</mgrwt>
</event>
<event>
 7    0  0.4784406E-002  0.4387185E+03  0.7546771E-02  0.1031141E+00
         21   -1    0    0  502  501  0.00000000000E+00  0.00000000000E+00  0.15621491779E+03  0.15621491779E+03  0.00000000000E+00 0. -1.
         21   -1    0    0  501  502 -0.00000000000E+00 -0.00000000000E+00 -0.30802747824E+03  0.30802747824E+03  0.00000000000E+00 0. -1.
      99926    2    1    2    0    0  0.00000000000E+00  0.00000000000E+00 -0.15181256046E+03  0.46424239603E+03  0.43871853022E+03 0.  0.
      99925    2    3    3    0    0  0.60316843927E+02  0.11377247444E+02 -0.17666899323E+03  0.32270471987E+03  0.26298068301E+03 0.  0.
         25    1    4    4    0    0  0.11922504556E+02  0.39378743748E+02 -0.10270508260E+03  0.16699902295E+03  0.12509000000E+03 0.  0.
         25    1    4    4    0    0  0.48394339371E+02 -0.28001496303E+02 -0.73963910631E+02  0.15570569692E+03  0.12509000000E+03 0.  0.
         25    1    3    3    0    0 -0.60316843927E+02 -0.11377247444E+02  0.24856432777E+02  0.14153767615E+03  0.12509000000E+03 0.  0.
<mgrwt>
<rscale>  2 0.43871853E+03</rscale>
<asrwt>0</asrwt>
<pdfrwt beam="1">  1       21 0.22972782E-01 0.43871853E+03</pdfrwt>
<pdfrwt beam="2">  1       21 0.45298158E-01 0.43871853E+03</pdfrwt>
<totfact> 0.77392083E+04</totfact>
</mgrwt>
</event>
<event>
 7    0  0.4784406E-002  0.4553984E+03  0.7546771E-02  0.1026124E+00
         21   -1    0    0  502  501  0.00000000000E+00  0.00000000000E+00  0.16045219863E+04  0.16045219863E+04  0.00000000000E+00 0.  1.
         21   -1    0    0  501  502 -0.00000000000E+00 -0.00000000000E+00 -0.32313006915E+02  0.32313006915E+02  0.00000000000E+00 0.  1.
      99926    2    1    2    0    0  0.35527136788E-14  0.00000000000E+00  0.15722089794E+04  0.16368349933E+04  0.45539841914E+03 0.  0.
      99925    2    3    3    0    0  0.20033220406E+02  0.10016026655E+03  0.81070737129E+03  0.85839705982E+03  0.26299365303E+03 0.  0.
         25    1    4    4    0    0  0.36639112564E+02  0.21040768658E+02  0.34234822407E+03  0.36692635929E+03  0.12509000000E+03 0.  0.
         25    1    3    3    0    0 -0.20033220406E+02 -0.10016026655E+03  0.76150160813E+03  0.77843793343E+03  0.12509000000E+03 0.  0.
         25    1    4    4    0    0 -0.16605892157E+02  0.79119497890E+02  0.46835914722E+03  0.49147070053E+03  0.12509000000E+03 0.  0.
<mgrwt>
<rscale>  2 0.45539842E+03</rscale>
<asrwt>0</asrwt>
<pdfrwt beam="1">  1       21 0.23595906E+00 0.45539842E+03</pdfrwt>
<pdfrwt beam="2">  1       21 0.47519139E-02 0.45539842E+03</pdfrwt>
<totfact> 0.20546418E+04</totfact>
</mgrwt>
</event>
<event>
 7    0  0.4784406E-002  0.4534210E+03  0.7546771E-02  0.1026707E+00
         21   -1    0    0  502  501  0.00000000000E+00  0.00000000000E+00  0.15391144470E+03  0.15391144470E+03  0.00000000000E+00 0.  1.
         21   -1    0    0  501  502 -0.00000000000E+00 -0.00000000000E+00 -0.33394296189E+03  0.33394296189E+03  0.00000000000E+00 0.  1.
      99926    2    1    2    0    0  0.00000000000E+00  0.35527136788E-14 -0.18003151719E+03  0.48785440659E+03  0.45342096869E+03 0.  0.
      99925    2    3    3    0    0 -0.94593861523E+02  0.18269576953E+02 -0.52390319712E+02  0.28482347428E+03  0.26286477479E+03 0.  0.
         25    1    4    4    0    0 -0.41170192494E+02 -0.89665184712E+01 -0.61875803604E+02  0.14577896410E+03  0.12509000000E+03 0.  0.
         25    1    4    4    0    0 -0.53423669029E+02  0.27236095424E+02  0.94854838920E+01  0.13904451018E+03  0.12509000000E+03 0.  0.
         25    1    3    3    0    0  0.94593861523E+02 -0.18269576953E+02 -0.12764119748E+03  0.20303093231E+03  0.12509000000E+03 0.  0.
<mgrwt>
<rscale>  2 0.45342097E+03</rscale>
<asrwt>0</asrwt>
<pdfrwt beam="1">  1       21 0.22634036E-01 0.45342097E+03</pdfrwt>
<pdfrwt beam="2">  1       21 0.49109259E-01 0.45342097E+03</pdfrwt>
<totfact> 0.66968192E+04</totfact>
</mgrwt>
</event>
<event>
 7    0  0.4784406E-002  0.4387621E+03  0.7546771E-02  0.1031127E+00
         21   -1    0    0  502  501  0.00000000000E+00  0.00000000000E+00  0.18107694137E+03  0.18107694137E+03  0.00000000000E+00 0. -1.
         21   -1    0    0  501  502 -0.00000000000E+00 -0.00000000000E+00 -0.26578786225E+03  0.26578786225E+03  0.00000000000E+00 0. -1.
      99926    2    1    2    0    0  0.00000000000E+00  0.00000000000E+00 -0.84710920881E+02  0.44686480363E+03  0.43876213670E+03 0.  0.
      99925    2    3    3    0    0 -0.64999165994E+02  0.48323161646E+02  0.56974193790E+00  0.27516646618E+03  0.26297574027E+03 0.  0.
         25    1    3    3    0    0  0.64999165994E+02 -0.48323161646E+02 -0.85280662819E+02  0.17169833745E+03  0.12509000000E+03 0.  0.
         25    1    4    4    0    0 -0.32428486764E+02  0.34485556758E+02  0.39508425180E+02  0.13946069030E+03  0.12509000000E+03 0.  0.
         25    1    4    4    0    0 -0.32570679230E+02  0.13837604888E+02 -0.38938683242E+02  0.13570577588E+03  0.12509000000E+03 0.  0.
<mgrwt>
<rscale>  2 0.43876214E+03</rscale>
<asrwt>0</asrwt>
<pdfrwt beam="1">  1       21 0.26628962E-01 0.43876214E+03</pdfrwt>
<pdfrwt beam="2">  1       21 0.39086450E-01 0.43876214E+03</pdfrwt>
<totfact> 0.78874354E+04</totfact>
</mgrwt>
</event>
<event>
 7    0  0.4784406E-002  0.4521217E+03  0.7546771E-02  0.1027091E+00
         21   -1    0    0  502  501  0.00000000000E+00  0.00000000000E+00  0.88961877807E+02  0.88961877807E+02  0.00000000000E+00 0. -1.
         21   -1    0    0  501  502 -0.00000000000E+00 -0.00000000000E+00 -0.57444269329E+03  0.57444269329E+03  0.00000000000E+00 0. -1.
      99926    2    1    2    0    0  0.00000000000E+00  0.35527136788E-14 -0.48548081548E+03  0.66340457110E+03  0.45212166808E+03 0.  0.
      99925    2    3    3    0    0 -0.62569269423E+02  0.24787104797E+02 -0.17766909919E+03  0.32439885606E+03  0.26294295002E+03 0.  0.
         25    1    4    4    0    0 -0.18784211975E+02  0.30860758334E+02 -0.47673493581E+02  0.13865606050E+03  0.12509000000E+03 0.  0.
         25    1    4    4    0    0 -0.43785057449E+02 -0.60736535372E+01 -0.12999560561E+03  0.18574279556E+03  0.12509000000E+03 0.  0.
         25    1    3    3    0    0  0.62569269423E+02 -0.24787104797E+02 -0.30781171629E+03  0.33900571503E+03  0.12509000000E+03 0.  0.
<mgrwt>
<rscale>  2 0.45212167E+03</rscale>
<asrwt>0</asrwt>
<pdfrwt beam="1">  1       21 0.13082630E-01 0.45212167E+03</pdfrwt>
<pdfrwt beam="2">  1       21 0.84476864E-01 0.45212167E+03</pdfrwt>
<totfact> 0.56199580E+04</totfact>
</mgrwt>
</event>
<event>
 7    0  0.4784406E-002  0.4515648E+03  0.7546771E-02  0.1027256E+00
         21   -1    0    0  502  501  0.00000000000E+00  0.00000000000E+00  0.73321388505E+02  0.73321388505E+02  0.00000000000E+00 0.  1.
         21   -1    0    0  501  502 -0.00000000000E+00 -0.00000000000E+00 -0.69526373170E+03  0.69526373170E+03  0.00000000000E+00 0.  1.
      99926    2    1    2    0    0  0.00000000000E+00  0.00000000000E+00 -0.62194234320E+03  0.76858512021E+03  0.45156484445E+03 0.  0.
      99925    2    3    3    0    0  0.37780173700E+02 -0.91980794234E+02 -0.31297209778E+03  0.42073755490E+03  0.26302233382E+03 0.  0.
         25    1    4    4    0    0  0.33467217891E+02 -0.27492968274E+02 -0.10208572854E+03  0.16716734744E+03  0.12509000000E+03 0.  0.
         25    1    4    4    0    0  0.43129558082E+01 -0.64487825960E+02 -0.21088636923E+03  0.25357020746E+03  0.12509000000E+03 0.  0.
         25    1    3    3    0    0 -0.37780173700E+02  0.91980794234E+02 -0.30897024542E+03  0.34784756531E+03  0.12509000000E+03 0.  0.
<mgrwt>
<rscale>  2 0.45156484E+03</rscale>
<asrwt>0</asrwt>
<pdfrwt beam="1">  1       21 0.10782557E-01 0.45156484E+03</pdfrwt>
<pdfrwt beam="2">  1       21 0.10224467E+00 0.45156484E+03</pdfrwt>
<totfact> 0.50674547E+04</totfact>
</mgrwt>
</event>
<event>
 7    0  0.4784406E-002  0.4383323E+03  0.7546771E-02  0.1031260E+00
         21   -1    0    0  502  501  0.00000000000E+00  0.00000000000E+00  0.93672296817E+02  0.93672296817E+02  0.00000000000E+00 0.  1.
         21   -1    0    0  501  502 -0.00000000000E+00 -0.00000000000E+00 -0.51278554708E+03  0.51278554708E+03  0.00000000000E+00 0.  1.
      99926    2    1    2    0    0  0.17763568394E-14  0.14210854715E-13 -0.41911325026E+03  0.60645784389E+03  0.43833229390E+03 0.  0.
      99925    2    3    3    0    0  0.14500826497E+02  0.94033562535E+02 -0.29200160638E+03  0.40432555315E+03  0.26298598812E+03 0.  0.
         25    1    3    3    0    0 -0.14500826497E+02 -0.94033562535E+02 -0.12711164387E+03  0.20213229074E+03  0.12509000000E+03 0.  0.
         25    1    4    4    0    0  0.30653651833E+02  0.78717516109E+02 -0.13641378948E+03  0.20345103532E+03  0.12509000000E+03 0.  0.
         25    1    4    4    0    0 -0.16152825335E+02  0.15316046426E+02 -0.15558781690E+03  0.20087451783E+03  0.12509000000E+03 0.  0.
<mgrwt>
<rscale>  2 0.43833229E+03</rscale>
<asrwt>0</asrwt>
<pdfrwt beam="1">  1       21 0.13775338E-01 0.43833229E+03</pdfrwt>
<pdfrwt beam="2">  1       21 0.75409638E-01 0.43833229E+03</pdfrwt>
<totfact> 0.66631284E+04</totfact>
</mgrwt>
</event>
<event>
 7    0  0.4784406E-002  0.4567557E+03  0.7546771E-02  0.1025726E+00
         21   -1    0    0  502  501  0.00000000000E+00  0.00000000000E+00  0.85719146743E+02  0.85719146743E+02  0.00000000000E+00 0. -1.
         21   -1    0    0  501  502 -0.00000000000E+00 -0.00000000000E+00 -0.60845736927E+03  0.60845736927E+03  0.00000000000E+00 0. -1.
      99926    2    1    2    0    0  0.00000000000E+00 -0.35527136788E-14 -0.52273822252E+03  0.69417651601E+03  0.45675571818E+03 0.  0.
      99925    2    3    3    0    0 -0.84953864469E+02  0.19412070478E+02 -0.44199268807E+03  0.52166177170E+03  0.26301992354E+03 0.  0.
         25    1    4    4    0    0 -0.68709911751E+02  0.17941798905E+02 -0.29325268147E+03  0.32663068351E+03  0.12509000000E+03 0.  0.
         25    1    4    4    0    0 -0.16243952718E+02  0.14702715724E+01 -0.14874000660E+03  0.19503108819E+03  0.12509000000E+03 0.  0.
         25    1    3    3    0    0  0.84953864469E+02 -0.19412070478E+02 -0.80745534452E+02  0.17251474430E+03  0.12509000000E+03 0.  0.
<mgrwt>
<rscale>  2 0.45675572E+03</rscale>
<asrwt>0</asrwt>
<pdfrwt beam="1">  1       21 0.12605757E-01 0.45675572E+03</pdfrwt>
<pdfrwt beam="2">  1       21 0.89479023E-01 0.45675572E+03</pdfrwt>
<totfact> 0.52491149E+04</totfact>
</mgrwt>
</event>
<event>
 7    0  0.4784406E-002  0.4486132E+03  0.7546771E-02  0.1028136E+00
         21   -1    0    0  502  501  0.00000000000E+00  0.00000000000E+00  0.63528936394E+03  0.63528936394E+03  0.00000000000E+00 0.  1.
         21   -1    0    0  501  502 -0.00000000000E+00 -0.00000000000E+00 -0.79197676095E+02  0.79197676095E+02  0.00000000000E+00 0.  1.
      99926    2    1    2    0    0  0.00000000000E+00  0.00000000000E+00  0.55609168785E+03  0.71448704004E+03  0.44861315751E+03 0.  0.
      99925    2    3    3    0    0  0.27469566824E+02  0.82192944589E+02  0.45207710639E+03  0.53015907553E+03  0.26302980441E+03 0.  0.
         25    1    4    4    0    0 -0.35067424742E+01  0.11596333954E+02  0.25548006119E+03  0.28471800430E+03  0.12509000000E+03 0.  0.
         25    1    4    4    0    0  0.30976309298E+02  0.70596610634E+02  0.19659704519E+03  0.24544107123E+03  0.12509000000E+03 0.  0.
         25    1    3    3    0    0 -0.27469566824E+02 -0.82192944589E+02  0.10401458146E+03  0.18432796450E+03  0.12509000000E+03 0.  0.
<mgrwt>
<rscale>  2 0.44861316E+03</rscale>
<asrwt>0</asrwt>
<pdfrwt beam="1">  1       21 0.93424904E-01 0.44861316E+03</pdfrwt>
<pdfrwt beam="2">  1       21 0.11646717E-01 0.44861316E+03</pdfrwt>
<totfact> 0.54826642E+04</totfact>
</mgrwt>
</event>
<event>
 7    0  0.4784406E-002  0.4471610E+03  0.7546771E-02  0.1028572E+00
         21   -1    0    0  502  501  0.00000000000E+00  0.00000000000E+00  0.47344274144E+03  0.47344274144E+03  0.00000000000E+00 0.  1.
         21   -1    0    0  501  502 -0.00000000000E+00 -0.00000000000E+00 -0.10558455338E+03  0.10558455338E+03  0.00000000000E+00 0.  1.
      99926    2    1    2    0    0  0.71054273576E-14  0.00000000000E+00  0.36785818806E+03  0.57902729482E+03  0.44716100190E+03 0.  0.
      99925    2    3    3    0    0 -0.46147425745E+02 -0.92945485754E+02  0.20711381303E+03  0.35043440248E+03  0.26294427293E+03 0.  0.
         25    1    4    4    0    0 -0.13321833663E+02 -0.41325989564E+02  0.14958743253E+03  0.19977291292E+03  0.12509000000E+03 0.  0.
         25    1    4    4    0    0 -0.32825592082E+02 -0.51619496190E+02  0.57526380498E+02  0.15066148956E+03  0.12509000000E+03 0.  0.
         25    1    3    3    0    0  0.46147425745E+02  0.92945485754E+02  0.16074437503E+03  0.22859289234E+03  0.12509000000E+03 0.  0.
<mgrwt>
<rscale>  2 0.44716100E+03</rscale>
<asrwt>0</asrwt>
<pdfrwt beam="1">  1       21 0.69623932E-01 0.44716100E+03</pdfrwt>
<pdfrwt beam="2">  1       21 0.15527140E-01 0.44716100E+03</pdfrwt>
<totfact> 0.63854308E+04</totfact>
</mgrwt>
</event>
<event>
 7    0  0.4784406E-002  0.4267607E+03  0.7546771E-02  0.1034888E+00
         21   -1    0    0  502  501  0.00000000000E+00  0.00000000000E+00  0.40281247271E+03  0.40281247271E+03  0.00000000000E+00 0. -1.
         21   -1    0    0  501  502 -0.00000000000E+00 -0.00000000000E+00 -0.11303315218E+03  0.11303315218E+03  0.00000000000E+00 0. -1.
      99926    2    1    2    0    0  0.00000000000E+00  0.00000000000E+00  0.28977932054E+03  0.51584562489E+03  0.42676065202E+03 0.  0.
      99925    2    3    3    0    0  0.70392553434E+02  0.24730865385E+02  0.23388699146E+03  0.35983861277E+03  0.26308549026E+03 0.  0.
         25    1    4    4    0    0  0.12466714396E+02 -0.49637253666E+01  0.14994498175E+03  0.19573212099E+03  0.12509000000E+03 0.  0.
         25    1    3    3    0    0 -0.70392553434E+02 -0.24730865385E+02  0.55892329074E+02  0.15600701212E+03  0.12509000000E+03 0.  0.
         25    1    4    4    0    0  0.57925839039E+02  0.29694590752E+02  0.83942009718E+02  0.16410649178E+03  0.12509000000E+03 0.  0.
<mgrwt>
<rscale>  2 0.42676065E+03</rscale>
<asrwt>0</asrwt>
<pdfrwt beam="1">  1       21 0.59237128E-01 0.42676065E+03</pdfrwt>
<pdfrwt beam="2">  1       21 0.16622523E-01 0.42676065E+03</pdfrwt>
<totfact> 0.80787533E+04</totfact>
</mgrwt>
</event>
<event>
 7    0  0.4784406E-002  0.4507493E+03  0.7546771E-02  0.1027499E+00
         21   -1    0    0  502  501  0.00000000000E+00  0.00000000000E+00  0.85966409453E+03  0.85966409453E+03  0.00000000000E+00 0.  1.
         21   -1    0    0  501  502 -0.00000000000E+00 -0.00000000000E+00 -0.59085546292E+02  0.59085546292E+02  0.00000000000E+00 0.  1.
      99926    2    1    2    0    0 -0.17763568394E-14 -0.14210854715E-13  0.80057854824E+03  0.91874964083E+03  0.45074925470E+03 0.  0.
      99925    2    3    3    0    0 -0.13776655186E+02 -0.10540034743E+03  0.55642672130E+03  0.62454452162E+03  0.26295652463E+03 0.  0.
         25    1    3    3    0    0  0.13776655186E+02  0.10540034743E+03  0.24415182694E+03  0.29420511920E+03  0.12509000000E+03 0.  0.
         25    1    4    4    0    0  0.32316744685E+02 -0.47232234511E+02  0.29109860129E+03  0.32196453180E+03  0.12509000000E+03 0.  0.
         25    1    4    4    0    0 -0.46093399871E+02 -0.58168112922E+02  0.26532812001E+03  0.30257998982E+03  0.12509000000E+03 0.  0.
<mgrwt>
<rscale>  2 0.45074925E+03</rscale>
<asrwt>0</asrwt>
<pdfrwt beam="1">  1       21 0.12642118E+00 0.45074925E+03</pdfrwt>
<pdfrwt beam="2">  1       21 0.86890515E-02 0.45074925E+03</pdfrwt>
<totfact> 0.43873692E+04</totfact>
</mgrwt>
</event>
<event>
 7    0  0.4784406E-002  0.4531163E+03  0.7546771E-02  0.1026797E+00
         21   -1    0    0  502  501  0.00000000000E+00  0.00000000000E+00  0.11803438794E+04  0.11803438794E+04  0.00000000000E+00 0.  1.
         21   -1    0    0  501  502 -0.00000000000E+00 -0.00000000000E+00 -0.43486139368E+02  0.43486139368E+02  0.00000000000E+00 0.  1.
      99926    2    1    2    0    0  0.00000000000E+00  0.00000000000E+00  0.11368577400E+04  0.12238300188E+04  0.45311631373E+03 0.  0.
      99925    2    3    3    0    0  0.87862084233E+02 -0.56394782063E+02  0.82240366852E+03  0.86967046647E+03  0.26282847824E+03 0.  0.
         25    1    4    4    0    0  0.28493205381E+02 -0.17308949939E+02  0.50240573094E+03  0.51881643100E+03  0.12509000000E+03 0.  0.
         25    1    3    3    0    0 -0.87862084233E+02  0.56394782063E+02  0.31445407150E+03  0.35415955229E+03  0.12509000000E+03 0.  0.
         25    1    4    4    0    0  0.59368878852E+02 -0.39085832124E+02  0.31999793758E+03  0.35085403547E+03  0.12509000000E+03 0.  0.
<mgrwt>
<rscale>  2 0.45311631E+03</rscale>
<asrwt>0</asrwt>
<pdfrwt beam="1">  1       21 0.17357996E+00 0.45311631E+03</pdfrwt>
<pdfrwt beam="2">  1       21 0.63950213E-02 0.45311631E+03</pdfrwt>
<totfact> 0.31874461E+04</totfact>
</mgrwt>
</event>
<event>
 7    0  0.4784406E-002  0.4579971E+03  0.7546771E-02  0.1025364E+00
         21   -1    0    0  502  501  0.00000000000E+00  0.00000000000E+00  0.84914286776E+02  0.84914286776E+02  0.00000000000E+00 0.  1.
         21   -1    0    0  501  502 -0.00000000000E+00 -0.00000000000E+00 -0.61756793150E+03  0.61756793150E+03  0.00000000000E+00 0.  1.
      99926    2    1    2    0    0  0.00000000000E+00  0.00000000000E+00 -0.53265364472E+03  0.70248221827E+03  0.45799711981E+03 0.  0.
      99925    2    3    3    0    0 -0.95215682257E+02  0.60559608648E+02 -0.37545096249E+03  0.47206155135E+03  0.26295473123E+03 0.  0.
         25    1    3    3    0    0  0.95215682257E+02 -0.60559608648E+02 -0.15720268223E+03  0.23042066693E+03  0.12509000000E+03 0.  0.
         25    1    4    4    0    0 -0.55399076635E+02 -0.92418196968E+01 -0.16855232787E+03  0.21728291294E+03  0.12509000000E+03 0.  0.
         25    1    4    4    0    0 -0.39816605621E+02  0.69801428344E+02 -0.20689863462E+03  0.25477863841E+03  0.12509000000E+03 0.  0.
<mgrwt>
<rscale>  2 0.45799712E+03</rscale>
<asrwt>0</asrwt>
<pdfrwt beam="1">  1       21 0.12487396E-01 0.45799712E+03</pdfrwt>
<pdfrwt beam="2">  1       21 0.90818808E-01 0.45799712E+03</pdfrwt>
<totfact> 0.51541959E+04</totfact>
</mgrwt>
</event>
<event>
 7    0  0.4784406E-002  0.4564099E+03  0.7546771E-02  0.1025828E+00
         21   -1    0    0  502  501  0.00000000000E+00  0.00000000000E+00  0.10684625430E+04  0.10684625430E+04  0.00000000000E+00 0.  1.
         21   -1    0    0  501  502 -0.00000000000E+00 -0.00000000000E+00 -0.48740588580E+02  0.48740588580E+02  0.00000000000E+00 0.  1.
      99926    2    1    2    0    0 -0.71054273576E-14 -0.71054273576E-14  0.10197219544E+04  0.11172031315E+04  0.45640987377E+03 0.  0.
      99925    2    3    3    0    0  0.51072335139E+02 -0.53632335701E+02  0.85453374742E+03  0.89715890265E+03  0.26302349757E+03 0.  0.
         25    1    3    3    0    0 -0.51072335139E+02  0.53632335701E+02  0.16518820696E+03  0.22004422889E+03  0.12509000000E+03 0.  0.
         25    1    4    4    0    0  0.38755928422E+02 -0.51967934919E+02  0.54867467559E+03  0.56647515036E+03  0.12509000000E+03 0.  0.
         25    1    4    4    0    0  0.12316406717E+02 -0.16644007829E+01  0.30585907183E+03  0.33068375229E+03  0.12509000000E+03 0.  0.
<mgrwt>
<rscale>  2 0.45640987E+03</rscale>
<asrwt>0</asrwt>
<pdfrwt beam="1">  1       21 0.15712683E+00 0.45640987E+03</pdfrwt>
<pdfrwt beam="2">  1       21 0.71677343E-02 0.45640987E+03</pdfrwt>
<totfact> 0.34515456E+04</totfact>
</mgrwt>
</event>
<event>
 7    0  0.4784406E-002  0.4519217E+03  0.7546771E-02  0.1027151E+00
         21   -1    0    0  502  501  0.00000000000E+00  0.00000000000E+00  0.20958290253E+02  0.20958290253E+02  0.00000000000E+00 0.  1.
         21   -1    0    0  501  502 -0.00000000000E+00 -0.00000000000E+00 -0.24361862272E+04  0.24361862272E+04  0.00000000000E+00 0.  1.
      99926    2    1    2    0    0  0.88817841970E-15  0.14210854715E-13 -0.24152279370E+04  0.24571445175E+04  0.45192166604E+03 0.  0.
      99925    2    3    3    0    0 -0.56428795354E+01  0.82812263946E+02 -0.19181288228E+04  0.19378712266E+04  0.26312924030E+03 0.  0.
         25    1    3    3    0    0  0.56428795354E+01 -0.82812263946E+02 -0.49709911421E+03  0.51927329085E+03  0.12509000000E+03 0.  0.
         25    1    4    4    0    0  0.12175723325E+02  0.81043992938E+02 -0.10395562996E+04  0.10502576756E+04  0.12509000000E+03 0.  0.
         25    1    4    4    0    0 -0.17818602860E+02  0.17682710087E+01 -0.87857252316E+03  0.88761355101E+03  0.12509000000E+03 0.  0.
<mgrwt>
<rscale>  2 0.45192167E+03</rscale>
<asrwt>0</asrwt>
<pdfrwt beam="1">  1       21 0.30821021E-02 0.45192167E+03</pdfrwt>
<pdfrwt beam="2">  1       21 0.35826261E+00 0.45192167E+03</pdfrwt>
<totfact> 0.77644903E+03</totfact>
</mgrwt>
</event>
<event>
 7    0  0.4784406E-002  0.4591891E+03  0.7546771E-02  0.1025017E+00
         21   -1    0    0  502  501  0.00000000000E+00  0.00000000000E+00  0.71838086646E+02  0.71838086646E+02  0.00000000000E+00 0. -1.
         21   -1    0    0  501  502 -0.00000000000E+00 -0.00000000000E+00 -0.73378435329E+03  0.73378435329E+03  0.00000000000E+00 0. -1.
      99926    2    1    2    0    0  0.00000000000E+00  0.00000000000E+00 -0.66194626665E+03  0.80562243994E+03  0.45918912858E+03 0.  0.
      99925    2    3    3    0    0 -0.50379496702E+02  0.58714576580E+02 -0.26132652965E+03  0.37885648891E+03  0.26316380620E+03 0.  0.
         25    1    3    3    0    0  0.50379496702E+02 -0.58714576580E+02 -0.40061973699E+03  0.42676595103E+03  0.12509000000E+03 0.  0.
         25    1    4    4    0    0  0.73948832786E+00  0.42447511683E+02 -0.89089557117E+02  0.15933234254E+03  0.12509000000E+03 0.  0.
         25    1    4    4    0    0 -0.51118985029E+02  0.16267064897E+02 -0.17223697254E+03  0.21952414637E+03  0.12509000000E+03 0.  0.
<mgrwt>
<rscale>  2 0.45918913E+03</rscale>
<asrwt>0</asrwt>
<pdfrwt beam="1">  1       21 0.10564425E-01 0.45918913E+03</pdfrwt>
<pdfrwt beam="2">  1       21 0.10790946E+00 0.45918913E+03</pdfrwt>
<totfact> 0.45964297E+04</totfact>
</mgrwt>
</event>
<event>
 7    0  0.4784406E-002  0.4626623E+03  0.7546771E-02  0.1024012E+00
         21   -1    0    0  502  501  0.00000000000E+00  0.00000000000E+00  0.26827526236E+03  0.26827526236E+03  0.00000000000E+00 0. -1.
         21   -1    0    0  501  502 -0.00000000000E+00 -0.00000000000E+00 -0.19947460618E+03  0.19947460618E+03  0.00000000000E+00 0. -1.
      99926    2    1    2    0    0  0.00000000000E+00  0.00000000000E+00  0.68800656184E+02  0.46774986854E+03  0.46266230582E+03 0.  0.
      99925    2    3    3    0    0  0.10353541263E+03  0.13351269956E+02 -0.17105817192E+02  0.28356173552E+03  0.26309087934E+03 0.  0.
         25    1    4    4    0    0  0.89516559834E+02 -0.14561346553E+01  0.92657585461E+01  0.15410612316E+03  0.12509000000E+03 0.  0.
         25    1    3    3    0    0 -0.10353541263E+03 -0.13351269956E+02  0.85906473377E+02  0.18418813302E+03  0.12509000000E+03 0.  0.
         25    1    4    4    0    0  0.14018852793E+02  0.14807404611E+02 -0.26371575738E+02  0.12945561236E+03  0.12509000000E+03 0.  0.
<mgrwt>
<rscale>  2 0.46266231E+03</rscale>
<asrwt>0</asrwt>
<pdfrwt beam="1">  1       21 0.39452244E-01 0.46266231E+03</pdfrwt>
<pdfrwt beam="2">  1       21 0.29334501E-01 0.46266231E+03</pdfrwt>
<totfact> 0.63640838E+04</totfact>
</mgrwt>
</event>
<event>
 7    0  0.4784406E-002  0.4504191E+03  0.7546771E-02  0.1027597E+00
         21   -1    0    0  502  501  0.00000000000E+00  0.00000000000E+00  0.63761183919E+02  0.63761183919E+02  0.00000000000E+00 0. -1.
         21   -1    0    0  501  502 -0.00000000000E+00 -0.00000000000E+00 -0.79545792313E+03  0.79545792313E+03  0.00000000000E+00 0. -1.
      99926    2    1    2    0    0  0.00000000000E+00  0.00000000000E+00 -0.73169673921E+03  0.85921910705E+03  0.45041908901E+03 0.  0.
      99925    2    3    3    0    0  0.71864620723E+02 -0.78602563893E+02 -0.41765397195E+03  0.50479950470E+03  0.26276379677E+03 0.  0.
         25    1    4    4    0    0  0.18473626499E+02 -0.67745843602E+02 -0.25420204076E+03  0.29188518261E+03  0.12509000000E+03 0.  0.
         25    1    4    4    0    0  0.53390994224E+02 -0.10856720291E+02 -0.16345193119E+03  0.21291432209E+03  0.12509000000E+03 0.  0.
         25    1    3    3    0    0 -0.71864620723E+02  0.78602563893E+02 -0.31404276725E+03  0.35441960235E+03  0.12509000000E+03 0.  0.
<mgrwt>
<rscale>  2 0.45041909E+03</rscale>
<asrwt>0</asrwt>
<pdfrwt beam="1">  1       21 0.93766442E-02 0.45041909E+03</pdfrwt>
<pdfrwt beam="2">  1       21 0.11697911E+00 0.45041909E+03</pdfrwt>
<totfact> 0.46684651E+04</totfact>
</mgrwt>
</event>
<event>
 7    0  0.4784406E-002  0.4546050E+03  0.7546771E-02  0.1026358E+00
         21   -1    0    0  502  501  0.00000000000E+00  0.00000000000E+00  0.69686249204E+02  0.69686249204E+02  0.00000000000E+00 0. -1.
         21   -1    0    0  501  502 -0.00000000000E+00 -0.00000000000E+00 -0.74141495736E+03  0.74141495736E+03  0.00000000000E+00 0. -1.
      99926    2    1    2    0    0  0.00000000000E+00  0.88817841970E-15 -0.67172870816E+03  0.81110120656E+03  0.45460500429E+03 0.  0.
      99925    2    3    3    0    0 -0.44541390898E+02  0.52197969412E+01 -0.60756943014E+03  0.66353731247E+03  0.26292578958E+03 0.  0.
         25    1    4    4    0    0 -0.58016959821E+02  0.17331917649E+02 -0.35137902859E+03  0.37786385488E+03  0.12509000000E+03 0.  0.
         25    1    4    4    0    0  0.13475568923E+02 -0.12112120708E+02 -0.25619040155E+03  0.28567345759E+03  0.12509000000E+03 0.  0.
         25    1    3    3    0    0  0.44541390898E+02 -0.52197969412E+01 -0.64159278022E+02  0.14756389409E+03  0.12509000000E+03 0.  0.
<mgrwt>
<rscale>  2 0.45460500E+03</rscale>
<asrwt>0</asrwt>
<pdfrwt beam="1">  1       21 0.10247978E-01 0.45460500E+03</pdfrwt>
<pdfrwt beam="2">  1       21 0.10903161E+00 0.45460500E+03</pdfrwt>
<totfact> 0.47379228E+04</totfact>
</mgrwt>
</event>
<event>
 7    0  0.4784406E-002  0.4603504E+03  0.7546771E-02  0.1024680E+00
         21   -1    0    0  502  501  0.00000000000E+00  0.00000000000E+00  0.24157256086E+03  0.24157256086E+03  0.00000000000E+00 0. -1.
         21   -1    0    0  501  502 -0.00000000000E+00 -0.00000000000E+00 -0.21931557587E+03  0.21931557587E+03  0.00000000000E+00 0. -1.
      99926    2    1    2    0    0 -0.14210854715E-13  0.00000000000E+00  0.22256984984E+02  0.46088813673E+03  0.46035041131E+03 0.  0.
      99925    2    3    3    0    0 -0.11416349598E+03 -0.19613947524E+02 -0.87153088432E+01  0.28761147403E+03  0.26310908885E+03 0.  0.
         25    1    4    4    0    0 -0.94084242336E+02 -0.31134725842E+02  0.49470198144E+01  0.15966589152E+03  0.12509000000E+03 0.  0.
         25    1    3    3    0    0  0.11416349598E+03  0.19613947524E+02  0.30972293827E+02  0.17327666270E+03  0.12509000000E+03 0.  0.
         25    1    4    4    0    0 -0.20079253642E+02  0.11520778319E+02 -0.13662328658E+02  0.12794558251E+03  0.12509000000E+03 0.  0.
<mgrwt>
<rscale>  2 0.46035041E+03</rscale>
<asrwt>0</asrwt>
<pdfrwt beam="1">  1       21 0.35525377E-01 0.46035041E+03</pdfrwt>
<pdfrwt beam="2">  1       21 0.32252291E-01 0.46035041E+03</pdfrwt>
<totfact> 0.65284742E+04</totfact>
</mgrwt>
</event>
<event>
 7    0  0.4784406E-002  0.4510149E+03  0.7546771E-02  0.1027420E+00
         21   -1    0    0  502  501  0.00000000000E+00  0.00000000000E+00  0.60604099427E+02  0.60604099427E+02  0.00000000000E+00 0.  1.
         21   -1    0    0  501  502 -0.00000000000E+00 -0.00000000000E+00 -0.83911167036E+03  0.83911167036E+03  0.00000000000E+00 0.  1.
      99926    2    1    2    0    0 -0.14210854715E-13  0.00000000000E+00 -0.77850757093E+03  0.89971576979E+03  0.45101488712E+03 0.  0.
      99925    2    3    3    0    0 -0.10781044287E+03  0.86255962160E+01 -0.45861139641E+03  0.53960667094E+03  0.26297044301E+03 0.  0.
         25    1    3    3    0    0  0.10781044287E+03 -0.86255962160E+01 -0.31989617452E+03  0.36010909885E+03  0.12509000000E+03 0.  0.
         25    1    4    4    0    0 -0.25216131953E+02 -0.25418475300E+02 -0.19413685785E+03  0.23370618279E+03  0.12509000000E+03 0.  0.
         25    1    4    4    0    0 -0.82594310920E+02  0.34044071516E+02 -0.26447453856E+03  0.30590048815E+03  0.12509000000E+03 0.  0.
<mgrwt>
<rscale>  2 0.45101489E+03</rscale>
<asrwt>0</asrwt>
<pdfrwt beam="1">  1       21 0.89123679E-02 0.45101489E+03</pdfrwt>
<pdfrwt beam="2">  1       21 0.12339877E+00 0.45101489E+03</pdfrwt>
<totfact> 0.44622038E+04</totfact>
</mgrwt>
</event>
<event>
 7    0  0.4784406E-002  0.4560021E+03  0.7546771E-02  0.1025947E+00
         21   -1    0    0  502  501  0.00000000000E+00  0.00000000000E+00  0.13010506753E+04  0.13010506753E+04  0.00000000000E+00 0.  1.
         21   -1    0    0  501  502 -0.00000000000E+00 -0.00000000000E+00 -0.39955771437E+02  0.39955771437E+02  0.00000000000E+00 0.  1.
      99926    2    1    2    0    0  0.00000000000E+00  0.00000000000E+00  0.12610949038E+04  0.13410064467E+04  0.45600212021E+03 0.  0.
      99925    2    3    3    0    0 -0.88065964973E+02 -0.70916085393E+02  0.75135226730E+03  0.80409884856E+03  0.26317299124E+03 0.  0.
         25    1    4    4    0    0 -0.22330556177E+02 -0.28067634408E+01  0.38934835785E+03  0.40956828920E+03  0.12509000000E+03 0.  0.
         25    1    3    3    0    0  0.88065964973E+02  0.70916085393E+02  0.50974263655E+03  0.53690759816E+03  0.12509000000E+03 0.  0.
         25    1    4    4    0    0 -0.65735408796E+02 -0.68109321952E+02  0.36200390945E+03  0.39453055936E+03  0.12509000000E+03 0.  0.
<mgrwt>
<rscale>  2 0.45600212E+03</rscale>
<asrwt>0</asrwt>
<pdfrwt beam="1">  1       21 0.19133095E+00 0.45600212E+03</pdfrwt>
<pdfrwt beam="2">  1       21 0.58758496E-02 0.45600212E+03</pdfrwt>
<totfact> 0.27730019E+04</totfact>
</mgrwt>
</event>
<event>
 7    0  0.4784406E-002  0.4576704E+03  0.7546771E-02  0.1025459E+00
         21   -1    0    0  502  501  0.00000000000E+00  0.00000000000E+00  0.36320320609E+04  0.36320320609E+04  0.00000000000E+00 0. -1.
         21   -1    0    0  501  502 -0.00000000000E+00 -0.00000000000E+00 -0.14417699013E+02  0.14417699013E+02  0.00000000000E+00 0. -1.
      99926    2    1    2    0    0  0.21926904736E-14  0.00000000000E+00  0.36176143619E+04  0.36464497599E+04  0.45767038384E+03 0.  0.
      99925    2    3    3    0    0  0.74334488002E-01 -0.10821726569E+03  0.19460556945E+04  0.19667275005E+04  0.26300819958E+03 0.  0.
         25    1    3    3    0    0 -0.74334488002E-01  0.10821726569E+03  0.16715586673E+04  0.16797222594E+04  0.12509000000E+03 0.  0.
         25    1    4    4    0    0  0.34736136285E+02 -0.50481043460E+02  0.11071310099E+04  0.11158590933E+04  0.12509000000E+03 0.  0.
         25    1    4    4    0    0 -0.34661801797E+02 -0.57736222233E+02  0.83892468467E+03  0.85086840728E+03  0.12509000000E+03 0.  0.
<mgrwt>
<rscale>  2 0.45767038E+03</rscale>
<asrwt>0</asrwt>
<pdfrwt beam="1">  1       21 0.53412173E+00 0.45767038E+03</pdfrwt>
<pdfrwt beam="2">  1       21 0.21202524E-02 0.45767038E+03</pdfrwt>
<totfact> 0.93938174E+02</totfact>
</mgrwt>
</event>
<event>
 7    0  0.4784406E-002  0.4614124E+03  0.7546771E-02  0.1024372E+00
         21   -1    0    0  502  501  0.00000000000E+00  0.00000000000E+00  0.13612860510E+04  0.13612860510E+04  0.00000000000E+00 0. -1.
         21   -1    0    0  501  502 -0.00000000000E+00 -0.00000000000E+00 -0.39099313403E+02  0.39099313403E+02  0.00000000000E+00 0. -1.
      99926    2    1    2    0    0 -0.35527136788E-14 -0.14210854715E-13  0.13221867376E+04  0.14003853644E+04  0.46141239662E+03 0.  0.
      99925    2    3    3    0    0 -0.17724675638E+02 -0.72045037638E+02  0.54028632900E+03  0.60507384767E+03  0.26210759673E+03 0.  0.
         25    1    4    4    0    0  0.97964671938E+01 -0.44629725144E+02  0.19836383820E+03  0.23892154265E+03  0.12509000000E+03 0.  0.
         25    1    4    4    0    0 -0.27521142831E+02 -0.27415312494E+02  0.34192249080E+03  0.36615230502E+03  0.12509000000E+03 0.  0.
         25    1    3    3    0    0  0.17724675638E+02  0.72045037638E+02  0.78190040860E+03  0.79531151673E+03  0.12509000000E+03 0.  0.
<mgrwt>
<rscale>  2 0.46141240E+03</rscale>
<asrwt>0</asrwt>
<pdfrwt beam="1">  1       21 0.20018909E+00 0.46141240E+03</pdfrwt>
<pdfrwt beam="2">  1       21 0.57498999E-02 0.46141240E+03</pdfrwt>
<totfact> 0.25050008E+04</totfact>
</mgrwt>
</event>
<event>
 7    0  0.4784406E-002  0.4592172E+03  0.7546771E-02  0.1025008E+00
         21   -1    0    0  502  501  0.00000000000E+00  0.00000000000E+00  0.38817285172E+03  0.38817285172E+03  0.00000000000E+00 0.  1.
         21   -1    0    0  501  502 -0.00000000000E+00 -0.00000000000E+00 -0.13581606926E+03  0.13581606926E+03  0.00000000000E+00 0.  1.
      99926    2    1    2    0    0  0.00000000000E+00  0.88817841970E-15  0.25235678246E+03  0.52398892099E+03  0.45921720750E+03 0.  0.
      99925    2    3    3    0    0 -0.11154843059E+03  0.30968305444E+01  0.19864478797E+03  0.34796298773E+03  0.26299400433E+03 0.  0.
         25    1    4    4    0    0 -0.33708147219E+02  0.36514963770E+02  0.91777861980E+02  0.16291183449E+03  0.12509000000E+03 0.  0.
         25    1    3    3    0    0  0.11154843059E+03 -0.30968305444E+01  0.53711994493E+02  0.17602593326E+03  0.12509000000E+03 0.  0.
         25    1    4    4    0    0 -0.77840283373E+02 -0.33418133225E+02  0.10686692599E+03  0.18505115324E+03  0.12509000000E+03 0.  0.
<mgrwt>
<rscale>  2 0.45921721E+03</rscale>
<asrwt>0</asrwt>
<pdfrwt beam="1">  1       21 0.57084243E-01 0.45921721E+03</pdfrwt>
<pdfrwt beam="2">  1       21 0.19972951E-01 0.45921721E+03</pdfrwt>
<totfact> 0.61531708E+04</totfact>
</mgrwt>
</event>
<event>
 7    0  0.4784406E-002  0.4352108E+03  0.7546771E-02  0.1032226E+00
         21   -1    0    0  502  501  0.00000000000E+00  0.00000000000E+00  0.33366067180E+03  0.33366067180E+03  0.00000000000E+00 0.  1.
         21   -1    0    0  501  502 -0.00000000000E+00 -0.00000000000E+00 -0.14191694606E+03  0.14191694606E+03  0.00000000000E+00 0.  1.
      99926    2    1    2    0    0  0.00000000000E+00  0.17763568394E-14  0.19174372573E+03  0.47557761786E+03  0.43521076992E+03 0.  0.
      99925    2    3    3    0    0 -0.86766800976E+02 -0.10836959598E+02  0.15895296927E+03  0.31947297586E+03  0.26296581227E+03 0.  0.
         25    1    4    4    0    0 -0.56648034022E+02  0.26336682374E+02  0.10598913766E+03  0.17545320174E+03  0.12509000000E+03 0.  0.
         25    1    3    3    0    0  0.86766800976E+02  0.10836959598E+02  0.32790756464E+02  0.15610464200E+03  0.12509000000E+03 0.  0.
         25    1    4    4    0    0 -0.30118766954E+02 -0.37173641972E+02  0.52963831606E+02  0.14401977412E+03  0.12509000000E+03 0.  0.
<mgrwt>
<rscale>  2 0.43521077E+03</rscale>
<asrwt>0</asrwt>
<pdfrwt beam="1">  1       21 0.49067746E-01 0.43521077E+03</pdfrwt>
<pdfrwt beam="2">  1       21 0.20870139E-01 0.43521077E+03</pdfrwt>
<totfact> 0.78675149E+04</totfact>
</mgrwt>
</event>
<event>
 7    0  0.4784406E-002  0.4559932E+03  0.7546771E-02  0.1025950E+00
         21   -1    0    0  502  501  0.00000000000E+00  0.00000000000E+00  0.26617947884E+03  0.26617947884E+03  0.00000000000E+00 0. -1.
         21   -1    0    0  501  502 -0.00000000000E+00 -0.00000000000E+00 -0.19529095817E+03  0.19529095817E+03  0.00000000000E+00 0. -1.
      99926    2    1    2    0    0 -0.14210854715E-13  0.00000000000E+00  0.70888520670E+02  0.46147043701E+03  0.45599318182E+03 0.  0.
      99925    2    3    3    0    0 -0.10206185002E+03  0.44670636961E+02  0.69543738999E+02  0.29395505391E+03  0.26298508522E+03 0.  0.
         25    1    4    4    0    0 -0.11362490617E+02  0.14587066757E+02  0.14884938022E+02  0.12732226117E+03  0.12509000000E+03 0.  0.
         25    1    3    3    0    0  0.10206185002E+03 -0.44670636961E+02  0.13447816705E+01  0.16751538310E+03  0.12509000000E+03 0.  0.
         25    1    4    4    0    0 -0.90699359404E+02  0.30083570204E+02  0.54658800978E+02  0.16663279274E+03  0.12509000000E+03 0.  0.
<mgrwt>
<rscale>  2 0.45599318E+03</rscale>
<asrwt>0</asrwt>
<pdfrwt beam="1">  1       21 0.39144041E-01 0.45599318E+03</pdfrwt>
<pdfrwt beam="2">  1       21 0.28719259E-01 0.45599318E+03</pdfrwt>
<totfact> 0.67537027E+04</totfact>
</mgrwt>
</event>
<event>
 7    0  0.4784406E-002  0.4178054E+03  0.7546771E-02  0.1037783E+00
         21   -1    0    0  502  501  0.00000000000E+00  0.00000000000E+00  0.60326550808E+03  0.60326550808E+03  0.00000000000E+00 0.  1.
         21   -1    0    0  501  502 -0.00000000000E+00 -0.00000000000E+00 -0.72340188506E+02  0.72340188506E+02  0.00000000000E+00 0.  1.
      99926    2    1    2    0    0 -0.71054273576E-14  0.00000000000E+00  0.53092531957E+03  0.67560569658E+03  0.41780541200E+03 0.  0.
      99925    2    3    3    0    0 -0.63038660105E+02  0.31726858992E+02  0.37673897235E+03  0.46488928996E+03  0.26307666636E+03 0.  0.
         25    1    4    4    0    0 -0.71950018087E+02  0.77869582488E+01  0.19134270998E+03  0.23978528434E+03  0.12509000000E+03 0.  0.
         25    1    3    3    0    0  0.63038660105E+02 -0.31726858992E+02  0.15418634722E+03  0.21071640662E+03  0.12509000000E+03 0.  0.
         25    1    4    4    0    0  0.89113579820E+01  0.23939900743E+02  0.18539626237E+03  0.22510400563E+03  0.12509000000E+03 0.  0.
<mgrwt>
<rscale>  2 0.41780541E+03</rscale>
<asrwt>0</asrwt>
<pdfrwt beam="1">  1       21 0.88715514E-01 0.41780541E+03</pdfrwt>
<pdfrwt beam="2">  1       21 0.10638263E-01 0.41780541E+03</pdfrwt>
<totfact> 0.73533634E+04</totfact>
</mgrwt>
</event>
<event>
 7    0  0.4784406E-002  0.3893880E+03  0.7546771E-02  0.1047517E+00
         21   -1    0    0  502  501  0.00000000000E+00  0.00000000000E+00  0.45169493704E+02  0.45169493704E+02  0.00000000000E+00 0. -1.
         21   -1    0    0  501  502 -0.00000000000E+00 -0.00000000000E+00 -0.83918920367E+03  0.83918920367E+03  0.00000000000E+00 0. -1.
      99926    2    1    2    0    0  0.00000000000E+00 -0.35527136788E-14 -0.79401970997E+03  0.88435869738E+03  0.38938798878E+03 0.  0.
      99925    2    3    3    0    0  0.14424123146E+01  0.13408251195E+02 -0.52489217940E+03  0.58727453832E+03  0.26305459815E+03 0.  0.
         25    1    3    3    0    0 -0.14424123146E+01 -0.13408251195E+02 -0.26912753057E+03  0.29708415906E+03  0.12509000000E+03 0.  0.
         25    1    4    4    0    0 -0.26290967798E+02  0.37099699268E+02 -0.26394989453E+03  0.29560896062E+03  0.12509000000E+03 0.  0.
         25    1    4    4    0    0  0.27733380113E+02 -0.23691448073E+02 -0.26094228487E+03  0.29166557770E+03  0.12509000000E+03 0.  0.
<mgrwt>
<rscale>  2 0.38938799E+03</rscale>
<asrwt>0</asrwt>
<pdfrwt beam="1">  1       21 0.66425730E-02 0.38938799E+03</pdfrwt>
<pdfrwt beam="2">  1       21 0.12341017E+00 0.38938799E+03</pdfrwt>
<totfact> 0.76121201E+04</totfact>
</mgrwt>
</event>
<event>
 7    0  0.4784406E-002  0.4560430E+03  0.7546771E-02  0.1025935E+00
         21   -1    0    0  502  501  0.00000000000E+00  0.00000000000E+00  0.45982928395E+02  0.45982928395E+02  0.00000000000E+00 0. -1.
         21   -1    0    0  501  502 -0.00000000000E+00 -0.00000000000E+00 -0.11307198228E+04  0.11307198228E+04  0.00000000000E+00 0. -1.
      99926    2    1    2    0    0 -0.17763568394E-14  0.00000000000E+00 -0.10847368944E+04  0.11767027511E+04  0.45604301834E+03 0.  0.
      99925    2    3    3    0    0  0.15722451802E+02 -0.67122137364E+02 -0.44773338713E+03  0.52388305694E+03  0.26312676525E+03 0.  0.
         25    1    4    4    0    0  0.12148577452E+02 -0.62158303092E+02 -0.29297848811E+03  0.32480016190E+03  0.12509000000E+03 0.  0.
         25    1    4    4    0    0  0.35738743498E+01 -0.49638342718E+01 -0.15475489902E+03  0.19908289504E+03  0.12509000000E+03 0.  0.
         25    1    3    3    0    0 -0.15722451802E+02  0.67122137364E+02 -0.63700350723E+03  0.65281969420E+03  0.12509000000E+03 0.  0.
<mgrwt>
<rscale>  2 0.45604302E+03</rscale>
<asrwt>0</asrwt>
<pdfrwt beam="1">  1       21 0.67621945E-02 0.45604302E+03</pdfrwt>
<pdfrwt beam="2">  1       21 0.16628235E+00 0.45604302E+03</pdfrwt>
<totfact> 0.32637168E+04</totfact>
</mgrwt>
</event>
<event>
 7    0  0.4784406E-002  0.4477704E+03  0.7546771E-02  0.1028389E+00
         21   -1    0    0  502  501  0.00000000000E+00  0.00000000000E+00  0.31558679682E+03  0.31558679682E+03  0.00000000000E+00 0.  1.
         21   -1    0    0  501  502 -0.00000000000E+00 -0.00000000000E+00 -0.15882979444E+03  0.15882979444E+03  0.00000000000E+00 0.  1.
      99926    2    1    2    0    0  0.71054273576E-14 -0.71054273576E-14  0.15675700237E+03  0.47441659126E+03  0.44777041469E+03 0.  0.
      99925    2    3    3    0    0 -0.45338904828E+02  0.46792861276E+02  0.18876332831E+03  0.32978913482E+03  0.26245778932E+03 0.  0.
         25    1    4    4    0    0  0.44663642151E+01  0.32601062629E+02  0.12596378827E+03  0.18054684087E+03  0.12509000000E+03 0.  0.
         25    1    4    4    0    0 -0.49805269043E+02  0.14191798647E+02  0.62799540039E+02  0.14924229395E+03  0.12509000000E+03 0.  0.
         25    1    3    3    0    0  0.45338904828E+02 -0.46792861276E+02 -0.32006325933E+02  0.14462745644E+03  0.12509000000E+03 0.  0.
<mgrwt>
<rscale>  2 0.44777041E+03</rscale>
<asrwt>0</asrwt>
<pdfrwt beam="1">  1       21 0.46409823E-01 0.44777041E+03</pdfrwt>
<pdfrwt beam="2">  1       21 0.23357323E-01 0.44777041E+03</pdfrwt>
<totfact> 0.71102005E+04</totfact>
</mgrwt>
</event>
<event>
 7    0  0.4784406E-002  0.4562737E+03  0.7546771E-02  0.1025868E+00
         21   -1    0    0  502  501  0.00000000000E+00  0.00000000000E+00  0.57702665675E+03  0.57702665675E+03  0.00000000000E+00 0. -1.
         21   -1    0    0  501  502 -0.00000000000E+00 -0.00000000000E+00 -0.90197607618E+02  0.90197607618E+02  0.00000000000E+00 0. -1.
      99926    2    1    2    0    0  0.00000000000E+00  0.00000000000E+00  0.48682904913E+03  0.66722426437E+03  0.45627370720E+03 0.  0.
      99925    2    3    3    0    0 -0.56218532770E+02 -0.55490647886E+02  0.42700007542E+03  0.50764121506E+03  0.26292737285E+03 0.  0.
         25    1    3    3    0    0  0.56218532770E+02  0.55490647886E+02  0.59828973709E+02  0.15958304930E+03  0.12509000000E+03 0.  0.
         25    1    4    4    0    0 -0.58763780489E+02 -0.10900612278E+02  0.25586282135E+03  0.29100738254E+03  0.12509000000E+03 0.  0.
         25    1    4    4    0    0  0.25452477182E+01 -0.44590035608E+02  0.17113725407E+03  0.21663383252E+03  0.12509000000E+03 0.  0.
<mgrwt>
<rscale>  2 0.45627371E+03</rscale>
<asrwt>0</asrwt>
<pdfrwt beam="1">  1       21 0.84856860E-01 0.45627371E+03</pdfrwt>
<pdfrwt beam="2">  1       21 0.13264354E-01 0.45627371E+03</pdfrwt>
<totfact> 0.54172733E+04</totfact>
</mgrwt>
</event>
<event>
 7    0  0.4784406E-002  0.4528906E+03  0.7546771E-02  0.1026864E+00
         21   -1    0    0  502  501  0.00000000000E+00  0.00000000000E+00  0.23012546943E+03  0.23012546943E+03  0.00000000000E+00 0.  1.
         21   -1    0    0  501  502 -0.00000000000E+00 -0.00000000000E+00 -0.22282398891E+03  0.22282398891E+03  0.00000000000E+00 0.  1.
      99926    2    1    2    0    0  0.00000000000E+00  0.00000000000E+00  0.73014805272E+01  0.45294945834E+03  0.45289060510E+03 0.  0.
      99925    2    3    3    0    0 -0.83699062968E+02 -0.66356731184E+02  0.35668332240E+02  0.28603350556E+03  0.26293380814E+03 0.  0.
         25    1    3    3    0    0  0.83699062968E+02  0.66356731184E+02 -0.28366851713E+02  0.16691595278E+03  0.12509000000E+03 0.  0.
         25    1    4    4    0    0 -0.39673803585E+01 -0.39772778896E+02  0.32567223785E+02  0.13529872953E+03  0.12509000000E+03 0.  0.
         25    1    4    4    0    0 -0.79731682609E+02 -0.26583952288E+02  0.31011084551E+01  0.15073477603E+03  0.12509000000E+03 0.  0.
<mgrwt>
<rscale>  2 0.45289061E+03</rscale>
<asrwt>0</asrwt>
<pdfrwt beam="1">  1       21 0.33841981E-01 0.45289061E+03</pdfrwt>
<pdfrwt beam="2">  1       21 0.32768233E-01 0.45289061E+03</pdfrwt>
<totfact> 0.69864769E+04</totfact>
</mgrwt>
</event>
<event>
 7    0  0.4784406E-002  0.4542478E+03  0.7546771E-02  0.1026463E+00
         21   -1    0    0  502  501  0.00000000000E+00  0.00000000000E+00  0.10902899376E+03  0.10902899376E+03  0.00000000000E+00 0.  1.
         21   -1    0    0  501  502 -0.00000000000E+00 -0.00000000000E+00 -0.47313336943E+03  0.47313336943E+03  0.00000000000E+00 0.  1.
      99926    2    1    2    0    0  0.14210854715E-13  0.00000000000E+00 -0.36410437567E+03  0.58216236319E+03  0.45424775259E+03 0.  0.
      99925    2    3    3    0    0 -0.95456008084E+02  0.45461804147E+02 -0.27831414366E+03  0.39726753600E+03  0.26302871988E+03 0.  0.
         25    1    4    4    0    0 -0.85266501386E+02  0.33051601860E+02 -0.17892592797E+03  0.23669554378E+03  0.12509000000E+03 0.  0.
         25    1    3    3    0    0  0.95456008084E+02 -0.45461804147E+02 -0.85790232015E+02  0.18489482720E+03  0.12509000000E+03 0.  0.
         25    1    4    4    0    0 -0.10189506698E+02  0.12410202287E+02 -0.99388215683E+02  0.16057199222E+03  0.12509000000E+03 0.  0.
<mgrwt>
<rscale>  2 0.45424775E+03</rscale>
<asrwt>0</asrwt>
<pdfrwt beam="1">  1       21 0.16033676E-01 0.45424775E+03</pdfrwt>
<pdfrwt beam="2">  1       21 0.69578436E-01 0.45424775E+03</pdfrwt>
<totfact> 0.60146752E+04</totfact>
</mgrwt>
</event>
<event>
 7    0  0.4784406E-002  0.4560701E+03  0.7546771E-02  0.1025927E+00
         21   -1    0    0  502  501  0.00000000000E+00  0.00000000000E+00  0.55413765746E+02  0.55413765746E+02  0.00000000000E+00 0. -1.
         21   -1    0    0  501  502 -0.00000000000E+00 -0.00000000000E+00 -0.93839477693E+03  0.93839477693E+03  0.00000000000E+00 0. -1.
      99926    2    1    2    0    0  0.00000000000E+00  0.14210854715E-13 -0.88298101118E+03  0.99380854268E+03  0.45607011893E+03 0.  0.
      99925    2    3    3    0    0 -0.52220925446E+02  0.92785364961E+02 -0.46568012785E+03  0.54534038959E+03  0.26306274923E+03 0.  0.
         25    1    3    3    0    0  0.52220925446E+02 -0.92785364961E+02 -0.41730088333E+03  0.44846815309E+03  0.12509000000E+03 0.  0.
         25    1    4    4    0    0 -0.36927901055E+02  0.81496355113E+02 -0.21261632234E+03  0.26240909740E+03  0.12509000000E+03 0.  0.
         25    1    4    4    0    0 -0.15293024392E+02  0.11289009848E+02 -0.25306380551E+03  0.28293129219E+03  0.12509000000E+03 0.  0.
<mgrwt>
<rscale>  2 0.45607012E+03</rscale>
<asrwt>0</asrwt>
<pdfrwt beam="1">  1       21 0.81490834E-02 0.45607012E+03</pdfrwt>
<pdfrwt beam="2">  1       21 0.13799923E+00 0.45607012E+03</pdfrwt>
<totfact> 0.39080798E+04</totfact>
</mgrwt>
</event>
<event>
 7    0  0.4784406E-002  0.4484817E+03  0.7546771E-02  0.1028176E+00
         21   -1    0    0  502  501  0.00000000000E+00  0.00000000000E+00  0.95059188876E+03  0.95059188876E+03  0.00000000000E+00 0. -1.
         21   -1    0    0  501  502 -0.00000000000E+00 -0.00000000000E+00 -0.52897524501E+02  0.52897524501E+02  0.00000000000E+00 0. -1.
      99926    2    1    2    0    0  0.14210854715E-13  0.00000000000E+00  0.89769436425E+03  0.10034894133E+04  0.44848169517E+03 0.  0.
      99925    2    3    3    0    0  0.86290368634E+02 -0.56245481543E+02  0.63352598458E+03  0.69358293893E+03  0.26285459500E+03 0.  0.
         25    1    4    4    0    0  0.12983486964E+01 -0.31961247617E+02  0.29490369772E+03  0.32192997079E+03  0.12509000000E+03 0.  0.
         25    1    4    4    0    0  0.84992019938E+02 -0.24284233926E+02  0.33862228686E+03  0.37165296814E+03  0.12509000000E+03 0.  0.
         25    1    3    3    0    0 -0.86290368634E+02  0.56245481543E+02  0.26416837967E+03  0.30990647433E+03  0.12509000000E+03 0.  0.
<mgrwt>
<rscale>  2 0.44848170E+03</rscale>
<asrwt>0</asrwt>
<pdfrwt beam="1">  1       21 0.13979291E+00 0.44848170E+03</pdfrwt>
<pdfrwt beam="2">  1       21 0.77790483E-02 0.44848170E+03</pdfrwt>
<totfact> 0.41083130E+04</totfact>
</mgrwt>
</event>
<event>
 7    0  0.4784406E-002  0.4224137E+03  0.7546771E-02  0.1036284E+00
         21   -1    0    0  502  501  0.00000000000E+00  0.00000000000E+00  0.11469694872E+03  0.11469694872E+03  0.00000000000E+00 0. -1.
         21   -1    0    0  501  502 -0.00000000000E+00 -0.00000000000E+00 -0.38892352635E+03  0.38892352635E+03  0.00000000000E+00 0. -1.
      99926    2    1    2    0    0  0.00000000000E+00  0.31086244690E-14 -0.27422657763E+03  0.50362047507E+03  0.42241373917E+03 0.  0.
      99925    2    3    3    0    0  0.73339416143E+02  0.38219693547E+01 -0.14399035713E+03  0.30867879498E+03  0.26297547055E+03 0.  0.
         25    1    4    4    0    0  0.65856894926E+02 -0.25135040147E+02 -0.63869350814E+02  0.15714866505E+03  0.12509000000E+03 0.  0.
         25    1    3    3    0    0 -0.73339416143E+02 -0.38219693547E+01 -0.13023622050E+03  0.19494168010E+03  0.12509000000E+03 0.  0.
         25    1    4    4    0    0  0.74825212163E+01  0.28957009502E+02 -0.80121006316E+02  0.15153012993E+03  0.12509000000E+03 0.  0.
<mgrwt>
<rscale>  2 0.42241374E+03</rscale>
<asrwt>0</asrwt>
<pdfrwt beam="1">  1       21 0.16867198E-01 0.42241374E+03</pdfrwt>
<pdfrwt beam="2">  1       21 0.57194636E-01 0.42241374E+03</pdfrwt>
<totfact> 0.84928849E+04</totfact>
</mgrwt>
</event>
<event>
 7    0  0.4784406E-002  0.4483024E+03  0.7546771E-02  0.1028229E+00
         21   -1    0    0  502  501  0.00000000000E+00  0.00000000000E+00  0.16604500846E+04  0.16604500846E+04  0.00000000000E+00 0. -1.
         21   -1    0    0  501  502 -0.00000000000E+00 -0.00000000000E+00 -0.30259124196E+02  0.30259124196E+02  0.00000000000E+00 0. -1.
      99926    2    1    2    0    0  0.00000000000E+00  0.00000000000E+00  0.16301909604E+04  0.16907092088E+04  0.44830242173E+03 0.  0.
      99925    2    3    3    0    0 -0.27963510655E+02 -0.10129773960E+03  0.11029539720E+04  0.11387404234E+04  0.26301919631E+03 0.  0.
         25    1    4    4    0    0 -0.29730989533E+02 -0.17037751748E+02  0.58899740793E+03  0.60310834132E+03  0.12509000000E+03 0.  0.
         25    1    3    3    0    0  0.27963510655E+02  0.10129773960E+03  0.52723698845E+03  0.55196878541E+03  0.12509000000E+03 0.  0.
         25    1    4    4    0    0  0.17674788787E+01 -0.84259987856E+02  0.51395656407E+03  0.53563208211E+03  0.12509000000E+03 0.  0.
<mgrwt>
<rscale>  2 0.44830242E+03</rscale>
<asrwt>0</asrwt>
<pdfrwt beam="1">  1       21 0.24418378E+00 0.44830242E+03</pdfrwt>
<pdfrwt beam="2">  1       21 0.44498723E-02 0.44830242E+03</pdfrwt>
<totfact> 0.20501133E+04</totfact>
</mgrwt>
</event>
<event>
 7    0  0.4784406E-002  0.4659332E+03  0.7546771E-02  0.1023074E+00
         21   -1    0    0  502  501  0.00000000000E+00  0.00000000000E+00  0.88472838134E+03  0.88472838134E+03  0.00000000000E+00 0.  1.
         21   -1    0    0  501  502 -0.00000000000E+00 -0.00000000000E+00 -0.61344737575E+02  0.61344737575E+02  0.00000000000E+00 0.  1.
      99926    2    1    2    0    0  0.00000000000E+00  0.00000000000E+00  0.82338364377E+03  0.94607311892E+03  0.46593317280E+03 0.  0.
      99925    2    3    3    0    0  0.83542389541E+02 -0.86515936996E+02  0.56538030183E+03  0.63514294870E+03  0.26322488745E+03 0.  0.
         25    1    3    3    0    0 -0.83542389541E+02  0.86515936996E+02  0.25800334193E+03  0.31093017022E+03  0.12509000000E+03 0.  0.
         25    1    4    4    0    0  0.80407356982E+02 -0.30316853070E+02  0.27893484739E+03  0.31754781030E+03  0.12509000000E+03 0.  0.
         25    1    4    4    0    0  0.31350325586E+01 -0.56199083926E+02  0.28644545444E+03  0.31759513840E+03  0.12509000000E+03 0.  0.
<mgrwt>
<rscale>  2 0.46593317E+03</rscale>
<asrwt>0</asrwt>
<pdfrwt beam="1">  1       21 0.13010711E+00 0.46593317E+03</pdfrwt>
<pdfrwt beam="2">  1       21 0.90212855E-02 0.46593317E+03</pdfrwt>
<totfact> 0.37949494E+04</totfact>
</mgrwt>
</event>
<event>
 7    0  0.4784406E-002  0.4571954E+03  0.7546771E-02  0.1025598E+00
         21   -1    0    0  502  501  0.00000000000E+00  0.00000000000E+00  0.43422518739E+03  0.43422518739E+03  0.00000000000E+00 0.  1.
         21   -1    0    0  501  502 -0.00000000000E+00 -0.00000000000E+00 -0.12034519619E+03  0.12034519619E+03  0.00000000000E+00 0.  1.
      99926    2    1    2    0    0 -0.71054273576E-14  0.71054273576E-14  0.31387999120E+03  0.55457038358E+03  0.45719543028E+03 0.  0.
      99925    2    3    3    0    0 -0.45609990519E+02  0.35817258293E+02  0.31763841468E+03  0.41664003495E+03  0.26330896114E+03 0.  0.
         25    1    4    4    0    0 -0.32000447600E+02  0.50289500338E+02  0.20314683024E+03  0.24590487028E+03  0.12509000000E+03 0.  0.
         25    1    3    3    0    0  0.45609990519E+02 -0.35817258293E+02 -0.37584234789E+01  0.13793034863E+03  0.12509000000E+03 0.  0.
         25    1    4    4    0    0 -0.13609542919E+02 -0.14472242045E+02  0.11449158444E+03  0.17073516467E+03  0.12509000000E+03 0.  0.
<mgrwt>
<rscale>  2 0.45719543E+03</rscale>
<asrwt>0</asrwt>
<pdfrwt beam="1">  1       21 0.63856645E-01 0.45719543E+03</pdfrwt>
<pdfrwt beam="2">  1       21 0.17697823E-01 0.45719543E+03</pdfrwt>
<totfact> 0.60507732E+04</totfact>
</mgrwt>
</event>
<event>
 7    0  0.4784406E-002  0.4298148E+03  0.7546771E-02  0.1033918E+00
         21   -1    0    0  502  501  0.00000000000E+00  0.00000000000E+00  0.11648834573E+03  0.11648834573E+03  0.00000000000E+00 0.  1.
         21   -1    0    0  501  502 -0.00000000000E+00 -0.00000000000E+00 -0.39647904891E+03  0.39647904891E+03  0.00000000000E+00 0.  1.
      99926    2    1    2    0    0  0.00000000000E+00  0.00000000000E+00 -0.27999070318E+03  0.51296739465E+03  0.42981479046E+03 0.  0.
      99925    2    3    3    0    0 -0.38676188215E+02 -0.67446626720E+02 -0.22820763652E+03  0.35684600251E+03  0.26308829154E+03 0.  0.
         25    1    4    4    0    0  0.17002358535E+02 -0.35240423311E+02 -0.85609875202E+02  0.15654879898E+03  0.12509000000E+03 0.  0.
         25    1    3    3    0    0  0.38676188215E+02  0.67446626720E+02 -0.51783066661E+02  0.15612139214E+03  0.12509000000E+03 0.  0.
         25    1    4    4    0    0 -0.55678546749E+02 -0.32206203409E+02 -0.14259776132E+03  0.20029720352E+03  0.12509000000E+03 0.  0.
<mgrwt>
<rscale>  2 0.42981479E+03</rscale>
<asrwt>0</asrwt>
<pdfrwt beam="1">  1       21 0.17130639E-01 0.42981479E+03</pdfrwt>
<pdfrwt beam="2">  1       21 0.58305743E-01 0.42981479E+03</pdfrwt>
<totfact> 0.78997963E+04</totfact>
</mgrwt>
</event>
<event>
 7    0  0.4784406E-002  0.4576310E+03  0.7546771E-02  0.1025471E+00
         21   -1    0    0  502  501  0.00000000000E+00  0.00000000000E+00  0.48835968541E+02  0.48835968541E+02  0.00000000000E+00 0. -1.
         21   -1    0    0  501  502 -0.00000000000E+00 -0.00000000000E+00 -0.10720894859E+04  0.10720894859E+04  0.00000000000E+00 0. -1.
      99926    2    1    2    0    0  0.00000000000E+00  0.00000000000E+00 -0.10232535174E+04  0.11209254544E+04  0.45763097975E+03 0.  0.
      99925    2    3    3    0    0 -0.36302563343E+01  0.93478019294E+02 -0.80865148305E+03  0.85549587794E+03  0.26306778077E+03 0.  0.
         25    1    4    4    0    0  0.82700327250E+01  0.59228121608E+02 -0.53120722750E+03  0.54900363431E+03  0.12509000000E+03 0.  0.
         25    1    4    4    0    0 -0.11900289059E+02  0.34249897687E+02 -0.27744425555E+03  0.30649224364E+03  0.12509000000E+03 0.  0.
         25    1    3    3    0    0  0.36302563343E+01 -0.93478019294E+02 -0.21460203430E+03  0.26542957650E+03  0.12509000000E+03 0.  0.
<mgrwt>
<rscale>  2 0.45763098E+03</rscale>
<asrwt>0</asrwt>
<pdfrwt beam="1">  1       21 0.71817612E-02 0.45763098E+03</pdfrwt>
<pdfrwt beam="2">  1       21 0.15766019E+00 0.45763098E+03</pdfrwt>
<totfact> 0.34063973E+04</totfact>
</mgrwt>
</event>
<event>
 6    0  0.4784406E-002  0.4429140E+03  0.7546771E-02  0.1029856E+00
         21   -1    0    0  502  501  0.00000000000E+00  0.00000000000E+00  0.33673981713E+03  0.33673981713E+03  0.00000000000E+00 0.  1.
         21   -1    0    0  501  502 -0.00000000000E+00 -0.00000000000E+00 -0.14564125307E+03  0.14564125307E+03  0.00000000000E+00 0.  1.
      99926    2    1    2    0    0  0.00000000000E+00  0.71054273576E-14  0.19109856406E+03  0.48238107020E+03  0.44291402744E+03 0.  0.
         25    1    3    3    0    0  0.77931168135E+02  0.55047147480E+02  0.41319830886E+02  0.16266005022E+03  0.12509000000E+03 0.  0.
         25    1    3    3    0    0 -0.19232608763E+02 -0.10318757346E+02  0.27638301605E+02  0.12995289073E+03  0.12509000000E+03 0.  0.
         25    1    3    3    0    0 -0.58698559372E+02 -0.44728390135E+02  0.12214043156E+03  0.18976812925E+03  0.12509000000E+03 0.  0.
<mgrwt>
<rscale>  2 0.44291403E+03</rscale>
<asrwt>0</asrwt>
<pdfrwt beam="1">  1       21 0.49520561E-01 0.44291403E+03</pdfrwt>
<pdfrwt beam="2">  1       21 0.21417831E-01 0.44291403E+03</pdfrwt>
<totfact> 0.73312732E+04</totfact>
</mgrwt>
</event>
<event>
 7    0  0.4784406E-002  0.4135144E+03  0.7546771E-02  0.1039198E+00
         21   -1    0    0  502  501  0.00000000000E+00  0.00000000000E+00  0.11181056564E+03  0.11181056564E+03  0.00000000000E+00 0. -1.
         21   -1    0    0  501  502 -0.00000000000E+00 -0.00000000000E+00 -0.38233003093E+03  0.38233003093E+03  0.00000000000E+00 0. -1.
      99926    2    1    2    0    0 -0.35527136788E-14  0.00000000000E+00 -0.27051946529E+03  0.49414059657E+03  0.41351438679E+03 0.  0.
      99925    2    3    3    0    0  0.12421308526E+02  0.22911580356E+02 -0.25122055093E+03  0.36491526773E+03  0.26338594873E+03 0.  0.
         25    1    3    3    0    0 -0.12421308526E+02 -0.22911580356E+02 -0.19298914357E+02  0.12922532885E+03  0.12509000000E+03 0.  0.
         25    1    4    4    0    0 -0.85036933983E+01  0.45814056235E+02 -0.10374879631E+03  0.16906377905E+03  0.12509000000E+03 0.  0.
         25    1    4    4    0    0  0.20925001924E+02 -0.22902475879E+02 -0.14747175462E+03  0.19585148868E+03  0.12509000000E+03 0.  0.
<mgrwt>
<rscale>  2 0.41351439E+03</rscale>
<asrwt>0</asrwt>
<pdfrwt beam="1">  1       21 0.16442731E-01 0.41351439E+03</pdfrwt>
<pdfrwt beam="2">  1       21 0.56225003E-01 0.41351439E+03</pdfrwt>
<totfact> 0.92600485E+04</totfact>
</mgrwt>
</event>
<event>
 7    0  0.4784406E-002  0.4503687E+03  0.7546771E-02  0.1027612E+00
         21   -1    0    0  502  501  0.00000000000E+00  0.00000000000E+00  0.11853393545E+04  0.11853393545E+04  0.00000000000E+00 0.  1.
         21   -1    0    0  501  502 -0.00000000000E+00 -0.00000000000E+00 -0.42779305929E+02  0.42779305929E+02  0.00000000000E+00 0.  1.
      99926    2    1    2    0    0  0.00000000000E+00 -0.35527136788E-14  0.11425600485E+04  0.12281186604E+04  0.45036871505E+03 0.  0.
      99925    2    3    3    0    0  0.55575626534E+02  0.26173309143E+02  0.96672588392E+03  0.10037554417E+04  0.26304440621E+03 0.  0.
         25    1    3    3    0    0 -0.55575626534E+02 -0.26173309143E+02  0.17583416463E+03  0.22436321875E+03  0.12509000000E+03 0.  0.
         25    1    4    4    0    0  0.19054223585E+02 -0.26504280641E+02  0.44011816978E+03  0.45871238461E+03  0.12509000000E+03 0.  0.
         25    1    4    4    0    0  0.36521402949E+02  0.52677589784E+02  0.52660771415E+03  0.54504305705E+03  0.12509000000E+03 0.  0.
<mgrwt>
<rscale>  2 0.45036872E+03</rscale>
<asrwt>0</asrwt>
<pdfrwt beam="1">  1       21 0.17431459E+00 0.45036872E+03</pdfrwt>
<pdfrwt beam="2">  1       21 0.62910752E-02 0.45036872E+03</pdfrwt>
<totfact> 0.32429502E+04</totfact>
</mgrwt>
</event>
<event>
 7    0  0.4784406E-002  0.4592478E+03  0.7546771E-02  0.1025000E+00
         21   -1    0    0  502  501  0.00000000000E+00  0.00000000000E+00  0.21843114037E+03  0.21843114037E+03  0.00000000000E+00 0.  1.
         21   -1    0    0  501  502 -0.00000000000E+00 -0.00000000000E+00 -0.24139018488E+03  0.24139018488E+03  0.00000000000E+00 0.  1.
      99926    2    1    2    0    0  0.00000000000E+00  0.17763568394E-14 -0.22959044516E+02  0.45982132525E+03  0.45924779088E+03 0.  0.
      99925    2    3    3    0    0 -0.10848899175E+03  0.15449638363E+02 -0.55879272399E+02  0.29029315013E+03  0.26294308752E+03 0.  0.
         25    1    4    4    0    0 -0.25272153286E+02 -0.56256858354E+01  0.24210596367E+01  0.12776423483E+03  0.12509000000E+03 0.  0.
         25    1    4    4    0    0 -0.83216838459E+02  0.21075324198E+02 -0.58300332035E+02  0.16252891530E+03  0.12509000000E+03 0.  0.
         25    1    3    3    0    0  0.10848899175E+03 -0.15449638363E+02  0.32920227882E+02  0.16952817512E+03  0.12509000000E+03 0.  0.
<mgrwt>
<rscale>  2 0.45924779E+03</rscale>
<asrwt>0</asrwt>
<pdfrwt beam="1">  1       21 0.32122227E-01 0.45924779E+03</pdfrwt>
<pdfrwt beam="2">  1       21 0.35498556E-01 0.45924779E+03</pdfrwt>
<totfact> 0.65930984E+04</totfact>
</mgrwt>
</event>
<event>
 7    0  0.4784406E-002  0.4526444E+03  0.7546771E-02  0.1026936E+00
         21   -1    0    0  502  501  0.00000000000E+00  0.00000000000E+00  0.70402950063E+03  0.70402950063E+03  0.00000000000E+00 0. -1.
         21   -1    0    0  501  502 -0.00000000000E+00 -0.00000000000E+00 -0.72755096886E+02  0.72755096886E+02  0.00000000000E+00 0. -1.
      99926    2    1    2    0    0  0.00000000000E+00  0.00000000000E+00  0.63127440375E+03  0.77678459752E+03  0.45264438372E+03 0.  0.
      99925    2    3    3    0    0 -0.93465943326E+02  0.44483592198E+02  0.32965390707E+03  0.43423955719E+03  0.26301639121E+03 0.  0.
         25    1    3    3    0    0  0.93465943326E+02 -0.44483592198E+02  0.30162049668E+03  0.34254504033E+03  0.12509000000E+03 0.  0.
         25    1    4    4    0    0 -0.16975497152E+02  0.20813968059E+02  0.10801825769E+03  0.16744205226E+03  0.12509000000E+03 0.  0.
         25    1    4    4    0    0 -0.76490446174E+02  0.23669624139E+02  0.22163564938E+03  0.26679750494E+03  0.12509000000E+03 0.  0.
<mgrwt>
<rscale>  2 0.45264438E+03</rscale>
<asrwt>0</asrwt>
<pdfrwt beam="1">  1       21 0.10353375E+00 0.45264438E+03</pdfrwt>
<pdfrwt beam="2">  1       21 0.10699279E-01 0.45264438E+03</pdfrwt>
<totfact> 0.49823122E+04</totfact>
</mgrwt>
</event>
<event>
 7    0  0.4784406E-002  0.4512451E+03  0.7546771E-02  0.1027351E+00
         21   -1    0    0  502  501  0.00000000000E+00  0.00000000000E+00  0.79897500027E+02  0.79897500027E+02  0.00000000000E+00 0.  1.
         21   -1    0    0  501  502 -0.00000000000E+00 -0.00000000000E+00 -0.63713559120E+03  0.63713559120E+03  0.00000000000E+00 0.  1.
      99926    2    1    2    0    0  0.00000000000E+00  0.17763568394E-14 -0.55723809118E+03  0.71703309123E+03  0.45124512591E+03 0.  0.
      99925    2    3    3    0    0  0.76075740290E+02  0.81028624729E+01 -0.22723856289E+03  0.35592317526E+03  0.26304137998E+03 0.  0.
         25    1    3    3    0    0 -0.76075740290E+02 -0.81028624729E+01 -0.32999952829E+03  0.36110991597E+03  0.12509000000E+03 0.  0.
         25    1    4    4    0    0  0.75375547837E+02 -0.13682234344E+02 -0.12984833215E+03  0.19589990866E+03  0.12509000000E+03 0.  0.
         25    1    4    4    0    0  0.70019245242E+00  0.21785096817E+02 -0.97390230738E+02  0.16002326661E+03  0.12509000000E+03 0.  0.
<mgrwt>
<rscale>  2 0.45124513E+03</rscale>
<asrwt>0</asrwt>
<pdfrwt beam="1">  1       21 0.11749632E-01 0.45124513E+03</pdfrwt>
<pdfrwt beam="2">  1       21 0.93696411E-01 0.45124513E+03</pdfrwt>
<totfact> 0.53552239E+04</totfact>
</mgrwt>
</event>
<event>
 7    0  0.4784406E-002  0.4567861E+03  0.7546771E-02  0.1025717E+00
         21   -1    0    0  502  501  0.00000000000E+00  0.00000000000E+00  0.48806235434E+02  0.48806235434E+02  0.00000000000E+00 0. -1.
         21   -1    0    0  501  502 -0.00000000000E+00 -0.00000000000E+00 -0.10687852886E+04  0.10687852886E+04  0.00000000000E+00 0. -1.
      99926    2    1    2    0    0  0.00000000000E+00  0.00000000000E+00 -0.10199790532E+04  0.11175915241E+04  0.45678610498E+03 0.  0.
      99925    2    3    3    0    0 -0.91411635388E+02 -0.55586847282E+01 -0.47131396340E+03  0.54744428438E+03  0.26300457475E+03 0.  0.
         25    1    4    4    0    0 -0.39724350797E+02 -0.41159505238E+02 -0.21054173266E+03  0.25149047340E+03  0.12509000000E+03 0.  0.
         25    1    3    3    0    0  0.91411635388E+02  0.55586847282E+01 -0.54866508981E+03  0.57014723970E+03  0.12509000000E+03 0.  0.
         25    1    4    4    0    0 -0.51687284592E+02  0.35600820510E+02 -0.26077223074E+03  0.29595381098E+03  0.12509000000E+03 0.  0.
<mgrwt>
<rscale>  2 0.45678610E+03</rscale>
<asrwt>0</asrwt>
<pdfrwt beam="1">  1       21 0.71773875E-02 0.45678610E+03</pdfrwt>
<pdfrwt beam="2">  1       21 0.15717431E+00 0.45678610E+03</pdfrwt>
<totfact> 0.34401444E+04</totfact>
</mgrwt>
</event>
<event>
 7    0  0.4784406E-002  0.4465682E+03  0.7546771E-02  0.1028750E+00
         21   -1    0    0  502  501  0.00000000000E+00  0.00000000000E+00  0.25059269423E+03  0.25059269423E+03  0.00000000000E+00 0.  1.
         21   -1    0    0  501  502 -0.00000000000E+00 -0.00000000000E+00 -0.19895153184E+03  0.19895153184E+03  0.00000000000E+00 0.  1.
      99926    2    1    2    0    0  0.00000000000E+00  0.00000000000E+00  0.51641162385E+02  0.44954422607E+03  0.44656824959E+03 0.  0.
      99925    2    3    3    0    0 -0.32302934212E+02  0.90334400287E+02  0.75762718103E+02  0.29006651294E+03  0.26304906204E+03 0.  0.
         25    1    4    4    0    0 -0.21622150676E+02  0.28309757764E+02  0.74787759320E+02  0.15003225263E+03  0.12509000000E+03 0.  0.
         25    1    4    4    0    0 -0.10680783536E+02  0.62024642523E+02  0.97495878305E+00  0.14003426031E+03  0.12509000000E+03 0.  0.
         25    1    3    3    0    0  0.32302934212E+02 -0.90334400287E+02 -0.24121555719E+02  0.15947771313E+03  0.12509000000E+03 0.  0.
<mgrwt>
<rscale>  2 0.44656825E+03</rscale>
<asrwt>0</asrwt>
<pdfrwt beam="1">  1       21 0.36851867E-01 0.44656825E+03</pdfrwt>
<pdfrwt beam="2">  1       21 0.29257578E-01 0.44656825E+03</pdfrwt>
<totfact> 0.73787549E+04</totfact>
</mgrwt>
</event>
<event>
 7    0  0.4784406E-002  0.4528047E+03  0.7546771E-02  0.1026889E+00
         21   -1    0    0  502  501  0.00000000000E+00  0.00000000000E+00  0.26827915679E+03  0.26827915679E+03  0.00000000000E+00 0. -1.
         21   -1    0    0  501  502 -0.00000000000E+00 -0.00000000000E+00 -0.19106229916E+03  0.19106229916E+03  0.00000000000E+00 0. -1.
      99926    2    1    2    0    0  0.00000000000E+00  0.17763568394E-14  0.77216857626E+02  0.45934145595E+03  0.45280473723E+03 0.  0.
      99925    2    3    3    0    0 -0.10939564025E+03  0.13347589335E+02  0.34266035215E+02  0.28718499952E+03  0.26297433056E+03 0.  0.
         25    1    4    4    0    0 -0.53302597703E+02 -0.15323245827E+02 -0.17329296643E+02  0.13792672477E+03  0.12509000000E+03 0.  0.
         25    1    4    4    0    0 -0.56093042545E+02  0.28670835162E+02  0.51595331858E+02  0.14925827475E+03  0.12509000000E+03 0.  0.
         25    1    3    3    0    0  0.10939564025E+03 -0.13347589335E+02  0.42950822411E+02  0.17215645643E+03  0.12509000000E+03 0.  0.
<mgrwt>
<rscale>  2 0.45280474E+03</rscale>
<asrwt>0</asrwt>
<pdfrwt beam="1">  1       21 0.39452817E-01 0.45280474E+03</pdfrwt>
<pdfrwt beam="2">  1       21 0.28097397E-01 0.45280474E+03</pdfrwt>
<totfact> 0.69436037E+04</totfact>
</mgrwt>
</event>
<event>
 7    0  0.4784406E-002  0.4580644E+03  0.7546771E-02  0.1025344E+00
         21   -1    0    0  502  501  0.00000000000E+00  0.00000000000E+00  0.16384949245E+03  0.16384949245E+03  0.00000000000E+00 0.  1.
         21   -1    0    0  501  502 -0.00000000000E+00 -0.00000000000E+00 -0.32014592602E+03  0.32014592602E+03  0.00000000000E+00 0.  1.
      99926    2    1    2    0    0  0.00000000000E+00  0.00000000000E+00 -0.15629643357E+03  0.48399541846E+03  0.45806439498E+03 0.  0.
      99925    2    3    3    0    0 -0.27391887533E+02 -0.10174308575E+03 -0.14900612727E+03  0.32028033771E+03  0.26320086960E+03 0.  0.
         25    1    4    4    0    0 -0.44512436003E+02 -0.27775019871E+02 -0.55097952865E+02  0.14641072774E+03  0.12509000000E+03 0.  0.
         25    1    4    4    0    0  0.17120548470E+02 -0.73968065880E+02 -0.93908174408E+02  0.17386960997E+03  0.12509000000E+03 0.  0.
         25    1    3    3    0    0  0.27391887533E+02  0.10174308575E+03 -0.72903062961E+01  0.16371508075E+03  0.12509000000E+03 0.  0.
<mgrwt>
<rscale>  2 0.45806439E+03</rscale>
<asrwt>0</asrwt>
<pdfrwt beam="1">  1       21 0.24095514E-01 0.45806439E+03</pdfrwt>
<pdfrwt beam="2">  1       21 0.47080283E-01 0.45806439E+03</pdfrwt>
<totfact> 0.64819263E+04</totfact>
</mgrwt>
</event>
<event>
 7    0  0.4784406E-002  0.4593038E+03  0.7546771E-02  0.1024983E+00
         21   -1    0    0  502  501  0.00000000000E+00  0.00000000000E+00  0.59649076826E+03  0.59649076826E+03  0.00000000000E+00 0. -1.
         21   -1    0    0  501  502 -0.00000000000E+00 -0.00000000000E+00 -0.88417122931E+02  0.88417122931E+02  0.00000000000E+00 0. -1.
      99926    2    1    2    0    0  0.00000000000E+00 -0.14210854715E-13  0.50807364533E+03  0.68490789119E+03  0.45930381050E+03 0.  0.
      99925    2    3    3    0    0 -0.31802600271E+02  0.11238458269E+03  0.33281048946E+03  0.43994589064E+03  0.26295981629E+03 0.  0.
         25    1    4    4    0    0 -0.93816953761E+01  0.57724752978E+02  0.10520644723E+03  0.17359743072E+03  0.12509000000E+03 0.  0.
         25    1    3    3    0    0  0.31802600271E+02 -0.11238458269E+03  0.17526315587E+03  0.24496200056E+03  0.12509000000E+03 0.  0.
         25    1    4    4    0    0 -0.22420904894E+02  0.54659829710E+02  0.22760404223E+03  0.26634845991E+03  0.12509000000E+03 0.  0.
<mgrwt>
<rscale>  2 0.45930381E+03</rscale>
<asrwt>0</asrwt>
<pdfrwt beam="1">  1       21 0.87719228E-01 0.45930381E+03</pdfrwt>
<pdfrwt beam="2">  1       21 0.13002518E-01 0.45930381E+03</pdfrwt>
<totfact> 0.51947103E+04</totfact>
</mgrwt>
</event>
<event>
 7    0  0.4784406E-002  0.4312305E+03  0.7546771E-02  0.1033472E+00
         21   -1    0    0  502  501  0.00000000000E+00  0.00000000000E+00  0.28293063438E+02  0.28293063438E+02  0.00000000000E+00 0.  1.
         21   -1    0    0  501  502 -0.00000000000E+00 -0.00000000000E+00 -0.16431564711E+04  0.16431564711E+04  0.00000000000E+00 0.  1.
      99926    2    1    2    0    0 -0.14210854715E-13  0.00000000000E+00 -0.16148634077E+04  0.16714495346E+04  0.43123047330E+03 0.  0.
      99925    2    3    3    0    0 -0.83582552558E+02 -0.24042717161E+02 -0.11134480718E+04  0.11473990193E+04  0.26304715481E+03 0.  0.
         25    1    3    3    0    0  0.83582552558E+02  0.24042717161E+02 -0.50141533592E+03  0.52405051526E+03  0.12509000000E+03 0.  0.
         25    1    4    4    0    0 -0.28098811357E+02  0.14885470029E+02 -0.64649861354E+03  0.65925646438E+03  0.12509000000E+03 0.  0.
         25    1    4    4    0    0 -0.55483741201E+02 -0.38928187189E+02 -0.46694945822E+03  0.48814255493E+03  0.12509000000E+03 0.  0.
<mgrwt>
<rscale>  2 0.43123047E+03</rscale>
<asrwt>0</asrwt>
<pdfrwt beam="1">  1       21 0.41607453E-02 0.43123047E+03</pdfrwt>
<pdfrwt beam="2">  1       21 0.24164062E+00 0.43123047E+03</pdfrwt>
<totfact> 0.23994362E+04</totfact>
</mgrwt>
</event>
<event>
 7    0  0.4784406E-002  0.4487292E+03  0.7546771E-02  0.1028102E+00
         21   -1    0    0  502  501  0.00000000000E+00  0.00000000000E+00  0.74702108217E+02  0.74702108217E+02  0.00000000000E+00 0. -1.
         21   -1    0    0  501  502 -0.00000000000E+00 -0.00000000000E+00 -0.67386944236E+03  0.67386944236E+03  0.00000000000E+00 0. -1.
      99926    2    1    2    0    0  0.00000000000E+00  0.00000000000E+00 -0.59916733414E+03  0.74857155057E+03  0.44872917448E+03 0.  0.
      99925    2    3    3    0    0 -0.99940549364E+02  0.38846527612E+02 -0.37725256483E+03  0.47218262342E+03  0.26294441632E+03 0.  0.
         25    1    4    4    0    0 -0.43952054213E+02  0.42455271653E+01 -0.24501337577E+03  0.27861957931E+03  0.12509000000E+03 0.  0.
         25    1    4    4    0    0 -0.55988495151E+02  0.34601000447E+02 -0.13223918906E+03  0.19356304411E+03  0.12509000000E+03 0.  0.
         25    1    3    3    0    0  0.99940549364E+02 -0.38846527612E+02 -0.22191476931E+03  0.27638892715E+03  0.12509000000E+03 0.  0.
<mgrwt>
<rscale>  2 0.44872917E+03</rscale>
<asrwt>0</asrwt>
<pdfrwt beam="1">  1       21 0.10985603E-01 0.44872917E+03</pdfrwt>
<pdfrwt beam="2">  1       21 0.99098457E-01 0.44872917E+03</pdfrwt>
<totfact> 0.52903525E+04</totfact>
</mgrwt>
</event>
<event>
 7    0  0.4784406E-002  0.4605586E+03  0.7546771E-02  0.1024619E+00
         21   -1    0    0  502  501  0.00000000000E+00  0.00000000000E+00  0.40767788476E+02  0.40767788476E+02  0.00000000000E+00 0.  1.
         21   -1    0    0  501  502 -0.00000000000E+00 -0.00000000000E+00 -0.13007461837E+04  0.13007461837E+04  0.00000000000E+00 0.  1.
      99926    2    1    2    0    0  0.00000000000E+00  0.00000000000E+00 -0.12599783952E+04  0.13415139721E+04  0.46055855339E+03 0.  0.
      99925    2    3    3    0    0 -0.97197983504E+02 -0.53739744984E+02 -0.90713717517E+03  0.95102729780E+03  0.26309629113E+03 0.  0.
         25    1    4    4    0    0 -0.31226585330E+02 -0.61578507232E+02 -0.41457122576E+03  0.43850179192E+03  0.12509000000E+03 0.  0.
         25    1    4    4    0    0 -0.65971398173E+02  0.78387622487E+01 -0.49256594941E+03  0.51252550589E+03  0.12509000000E+03 0.  0.
         25    1    3    3    0    0  0.97197983504E+02  0.53739744984E+02 -0.35284122002E+03  0.39048667433E+03  0.12509000000E+03 0.  0.
<mgrwt>
<rscale>  2 0.46055855E+03</rscale>
<asrwt>0</asrwt>
<pdfrwt beam="1">  1       21 0.59952633E-02 0.46055855E+03</pdfrwt>
<pdfrwt beam="2">  1       21 0.19128619E+00 0.46055855E+03</pdfrwt>
<totfact> 0.26757328E+04</totfact>
</mgrwt>
</event>
<event>
 7    0  0.4784406E-002  0.4465400E+03  0.7546771E-02  0.1028759E+00
         21   -1    0    0  502  501  0.00000000000E+00  0.00000000000E+00  0.56796465100E+03  0.56796465100E+03  0.00000000000E+00 0. -1.
         21   -1    0    0  501  502 -0.00000000000E+00 -0.00000000000E+00 -0.87768639184E+02  0.87768639184E+02  0.00000000000E+00 0. -1.
      99926    2    1    2    0    0 -0.35527136788E-14  0.14210854715E-13  0.48019601182E+03  0.65573329019E+03  0.44653996248E+03 0.  0.
      99925    2    3    3    0    0  0.18244522283E+02 -0.95871139585E+02  0.36166230481E+03  0.45768812919E+03  0.26297274170E+03 0.  0.
         25    1    4    4    0    0  0.15769028737E+02 -0.93448263185E+01  0.19121786947E+03  0.22923300319E+03  0.12509000000E+03 0.  0.
         25    1    4    4    0    0  0.24754935463E+01 -0.86526313266E+02  0.17044443534E+03  0.22845512600E+03  0.12509000000E+03 0.  0.
         25    1    3    3    0    0 -0.18244522283E+02  0.95871139585E+02  0.11853370701E+03  0.19804516100E+03  0.12509000000E+03 0.  0.
<mgrwt>
<rscale>  2 0.44653996E+03</rscale>
<asrwt>0</asrwt>
<pdfrwt beam="1">  1       21 0.83524212E-01 0.44653996E+03</pdfrwt>
<pdfrwt beam="2">  1       21 0.12907153E-01 0.44653996E+03</pdfrwt>
<totfact> 0.59225946E+04</totfact>
</mgrwt>
</event>
<event>
 7    0  0.4784406E-002  0.4646486E+03  0.7546771E-02  0.1023442E+00
         21   -1    0    0  502  501  0.00000000000E+00  0.00000000000E+00  0.29676888819E+03  0.29676888819E+03  0.00000000000E+00 0.  1.
         21   -1    0    0  501  502 -0.00000000000E+00 -0.00000000000E+00 -0.18187409911E+03  0.18187409911E+03  0.00000000000E+00 0.  1.
      99926    2    1    2    0    0  0.00000000000E+00  0.00000000000E+00  0.11489478908E+03  0.47864298730E+03  0.46464857337E+03 0.  0.
      99925    2    3    3    0    0 -0.74832782622E+02 -0.35760322223E+02 -0.20604867920E+02  0.27643910221E+03  0.26289783310E+03 0.  0.
         25    1    4    4    0    0 -0.26700939609E+02  0.21675309040E+02 -0.56287819014E+01  0.12985357324E+03  0.12509000000E+03 0.  0.
         25    1    3    3    0    0  0.74832782622E+02  0.35760322223E+02  0.13549965699E+03  0.20220388509E+03  0.12509000000E+03 0.  0.
         25    1    4    4    0    0 -0.48131843014E+02 -0.57435631264E+02 -0.14976086018E+02  0.14658552897E+03  0.12509000000E+03 0.  0.
<mgrwt>
<rscale>  2 0.46464857E+03</rscale>
<asrwt>0</asrwt>
<pdfrwt beam="1">  1       21 0.43642484E-01 0.46464857E+03</pdfrwt>
<pdfrwt beam="2">  1       21 0.26746191E-01 0.46464857E+03</pdfrwt>
<totfact> 0.61920900E+04</totfact>
</mgrwt>
</event>
<event>
 7    0  0.4784406E-002  0.4468827E+03  0.7546771E-02  0.1028656E+00
         21   -1    0    0  502  501  0.00000000000E+00  0.00000000000E+00  0.31484595843E+03  0.31484595843E+03  0.00000000000E+00 0.  1.
         21   -1    0    0  501  502 -0.00000000000E+00 -0.00000000000E+00 -0.15857291953E+03  0.15857291953E+03  0.00000000000E+00 0.  1.
      99926    2    1    2    0    0  0.00000000000E+00  0.00000000000E+00  0.15627303890E+03  0.47341887795E+03  0.44688272658E+03 0.  0.
      99925    2    3    3    0    0  0.78243094653E+02  0.58720497037E+02  0.14054170176E+03  0.31384111728E+03  0.26300988257E+03 0.  0.
         25    1    4    4    0    0  0.48775798794E+02  0.70351867635E+01  0.32894944943E+02  0.13841299760E+03  0.12509000000E+03 0.  0.
         25    1    3    3    0    0 -0.78243094653E+02 -0.58720497037E+02  0.15731337139E+02  0.15957776067E+03  0.12509000000E+03 0.  0.
         25    1    4    4    0    0  0.29467295858E+02  0.51685310273E+02  0.10764675682E+03  0.17542811969E+03  0.12509000000E+03 0.  0.
<mgrwt>
<rscale>  2 0.44688273E+03</rscale>
<asrwt>0</asrwt>
<pdfrwt beam="1">  1       21 0.46300876E-01 0.44688273E+03</pdfrwt>
<pdfrwt beam="2">  1       21 0.23319547E-01 0.44688273E+03</pdfrwt>
<totfact> 0.71690970E+04</totfact>
</mgrwt>
</event>
<event>
 7    0  0.4784406E-002  0.4554561E+03  0.7546771E-02  0.1026107E+00
         21   -1    0    0  502  501  0.00000000000E+00  0.00000000000E+00  0.50956012629E+03  0.50956012629E+03  0.00000000000E+00 0. -1.
         21   -1    0    0  501  502 -0.00000000000E+00 -0.00000000000E+00 -0.10177417815E+03  0.10177417815E+03  0.00000000000E+00 0. -1.
      99926    2    1    2    0    0  0.35527136788E-14  0.00000000000E+00  0.40778594814E+03  0.61133430445E+03  0.45545609260E+03 0.  0.
      99925    2    3    3    0    0 -0.22823427865E+02 -0.72345246421E+02  0.14336468715E+03  0.30914089799E+03  0.26317279067E+03 0.  0.
         25    1    4    4    0    0  0.12317928391E+02 -0.66889969514E+02  0.58992942032E+02  0.15412227188E+03  0.12509000000E+03 0.  0.
         25    1    4    4    0    0 -0.35141356256E+02 -0.54552769079E+01  0.84371745113E+02  0.15501862610E+03  0.12509000000E+03 0.  0.
         25    1    3    3    0    0  0.22823427865E+02  0.72345246421E+02  0.26442126100E+03  0.30219340646E+03  0.12509000000E+03 0.  0.
<mgrwt>
<rscale>  2 0.45545609E+03</rscale>
<asrwt>0</asrwt>
<pdfrwt beam="1">  1       21 0.74935311E-01 0.45545609E+03</pdfrwt>
<pdfrwt beam="2">  1       21 0.14966791E-01 0.45545609E+03</pdfrwt>
<totfact> 0.57777557E+04</totfact>
</mgrwt>
</event>
<event>
 7    0  0.4784406E-002  0.4575631E+03  0.7546771E-02  0.1025490E+00
         21   -1    0    0  502  501  0.00000000000E+00  0.00000000000E+00  0.10686171575E+03  0.10686171575E+03  0.00000000000E+00 0.  1.
         21   -1    0    0  501  502 -0.00000000000E+00 -0.00000000000E+00 -0.48980127730E+03  0.48980127730E+03  0.00000000000E+00 0.  1.
      99926    2    1    2    0    0  0.00000000000E+00 -0.14210854715E-13 -0.38293956155E+03  0.59666299306E+03  0.45756313169E+03 0.  0.
      99925    2    3    3    0    0  0.44184209436E+02  0.10510259730E+03 -0.21784430968E+03  0.36022536785E+03  0.26326293332E+03 0.  0.
         25    1    4    4    0    0 -0.63098812320E+01  0.39872766833E+02 -0.13743811551E+03  0.19017464560E+03  0.12509000000E+03 0.  0.
         25    1    4    4    0    0  0.50494090668E+02  0.65229830472E+02 -0.80406194175E+02  0.17005072225E+03  0.12509000000E+03 0.  0.
         25    1    3    3    0    0 -0.44184209436E+02 -0.10510259730E+03 -0.16509525187E+03  0.23643762521E+03  0.12509000000E+03 0.  0.
<mgrwt>
<rscale>  2 0.45756313E+03</rscale>
<asrwt>0</asrwt>
<pdfrwt beam="1">  1       21 0.15714958E-01 0.45756313E+03</pdfrwt>
<pdfrwt beam="2">  1       21 0.72029601E-01 0.45756313E+03</pdfrwt>
<totfact> 0.57706432E+04</totfact>
</mgrwt>
</event>
<event>
 7    0  0.4784406E-002  0.4573511E+03  0.7546771E-02  0.1025552E+00
         21   -1    0    0  502  501  0.00000000000E+00  0.00000000000E+00  0.10809091444E+03  0.10809091444E+03  0.00000000000E+00 0.  1.
         21   -1    0    0  501  502 -0.00000000000E+00 -0.00000000000E+00 -0.48378272039E+03  0.48378272039E+03  0.00000000000E+00 0.  1.
      99926    2    1    2    0    0  0.00000000000E+00  0.00000000000E+00 -0.37569180595E+03  0.59187363483E+03  0.45735114141E+03 0.  0.
      99925    2    3    3    0    0  0.79958762047E+02 -0.64504058484E+02 -0.16903709123E+03  0.32937057503E+03  0.26335766610E+03 0.  0.
         25    1    3    3    0    0 -0.79958762047E+02  0.64504058484E+02 -0.20665471472E+03  0.26250305980E+03  0.12509000000E+03 0.  0.
         25    1    4    4    0    0  0.28714437220E+02 -0.71362735444E+02 -0.97570882546E+02  0.17630866154E+03  0.12509000000E+03 0.  0.
         25    1    4    4    0    0  0.51244324827E+02  0.68586769603E+01 -0.71466208686E+02  0.15306191349E+03  0.12509000000E+03 0.  0.
<mgrwt>
<rscale>  2 0.45735114E+03</rscale>
<asrwt>0</asrwt>
<pdfrwt beam="1">  1       21 0.15895723E-01 0.45735114E+03</pdfrwt>
<pdfrwt beam="2">  1       21 0.71144516E-01 0.45735114E+03</pdfrwt>
<totfact> 0.58094247E+04</totfact>
</mgrwt>
</event>
<event>
 7    0  0.4784406E-002  0.4232109E+03  0.7546771E-02  0.1036026E+00
         21   -1    0    0  502  501  0.00000000000E+00  0.00000000000E+00  0.25327067799E+03  0.25327067799E+03  0.00000000000E+00 0. -1.
         21   -1    0    0  501  502 -0.00000000000E+00 -0.00000000000E+00 -0.17679451414E+03  0.17679451414E+03  0.00000000000E+00 0. -1.
      99926    2    1    2    0    0  0.00000000000E+00  0.00000000000E+00  0.76476163848E+02  0.43006519213E+03  0.42321089996E+03 0.  0.
      99925    2    3    3    0    0  0.34508084063E+02  0.40650224377E+02 -0.10430253094E+02  0.26868526149E+03  0.26313443514E+03 0.  0.
         25    1    4    4    0    0  0.13297524216E+02  0.48962636810E+02  0.23663437688E+02  0.13704608837E+03  0.12509000000E+03 0.  0.
         25    1    3    3    0    0 -0.34508084063E+02 -0.40650224377E+02  0.86906416942E+02  0.16137993064E+03  0.12509000000E+03 0.  0.
         25    1    4    4    0    0  0.21210559847E+02 -0.83124124324E+01 -0.34093690782E+02  0.13163917312E+03  0.12509000000E+03 0.  0.
<mgrwt>
<rscale>  2 0.42321090E+03</rscale>
<asrwt>0</asrwt>
<pdfrwt beam="1">  1       21 0.37245688E-01 0.42321090E+03</pdfrwt>
<pdfrwt beam="2">  1       21 0.25999193E-01 0.42321090E+03</pdfrwt>
<totfact> 0.91500560E+04</totfact>
</mgrwt>
</event>
<event>
 7    0  0.4784406E-002  0.4571266E+03  0.7546771E-02  0.1025618E+00
         21   -1    0    0  502  501  0.00000000000E+00  0.00000000000E+00  0.23678102746E+03  0.23678102746E+03  0.00000000000E+00 0. -1.
         21   -1    0    0  501  502 -0.00000000000E+00 -0.00000000000E+00 -0.22063079865E+03  0.22063079865E+03  0.00000000000E+00 0. -1.
      99926    2    1    2    0    0  0.00000000000E+00  0.00000000000E+00  0.16150228813E+02  0.45741182612E+03  0.45712662226E+03 0.  0.
      99925    2    3    3    0    0  0.74569016232E+02  0.86854213744E+02  0.48128523408E+01  0.28746996302E+03  0.26365057077E+03 0.  0.
         25    1    4    4    0    0  0.16291403133E+02  0.77844655861E+02 -0.88990526393E+01  0.14849882660E+03  0.12509000000E+03 0.  0.
         25    1    4    4    0    0  0.58277613098E+02  0.90095578823E+01  0.13711904980E+02  0.13897113643E+03  0.12509000000E+03 0.  0.
         25    1    3    3    0    0 -0.74569016232E+02 -0.86854213744E+02  0.11337376472E+02  0.16994186309E+03  0.12509000000E+03 0.  0.
<mgrwt>
<rscale>  2 0.45712662E+03</rscale>
<asrwt>0</asrwt>
<pdfrwt beam="1">  1       21 0.34820740E-01 0.45712662E+03</pdfrwt>
<pdfrwt beam="2">  1       21 0.32445705E-01 0.45712662E+03</pdfrwt>
<totfact> 0.67221593E+04</totfact>
</mgrwt>
</event>
<event>
 7    0  0.4784406E-002  0.4554650E+03  0.7546771E-02  0.1026105E+00
         21   -1    0    0  502  501  0.00000000000E+00  0.00000000000E+00  0.38156852550E+03  0.38156852550E+03  0.00000000000E+00 0. -1.
         21   -1    0    0  501  502 -0.00000000000E+00 -0.00000000000E+00 -0.13591814883E+03  0.13591814883E+03  0.00000000000E+00 0. -1.
      99926    2    1    2    0    0 -0.14210854715E-13  0.17763568394E-14  0.24565037667E+03  0.51748667433E+03  0.45546498279E+03 0.  0.
      99925    2    3    3    0    0 -0.10709805561E+03  0.11240401247E+02  0.11490806693E+03  0.30692219539E+03  0.26344075243E+03 0.  0.
         25    1    3    3    0    0  0.10709805561E+03 -0.11240401247E+02  0.13074230975E+03  0.21056447894E+03  0.12509000000E+03 0.  0.
         25    1    4    4    0    0 -0.23001698030E+02  0.16826016205E+02  0.23140099046E+02  0.13036550624E+03  0.12509000000E+03 0.  0.
         25    1    4    4    0    0 -0.84096357581E+02 -0.55856149581E+01  0.91767967881E+02  0.17655668914E+03  0.12509000000E+03 0.  0.
<mgrwt>
<rscale>  2 0.45546498E+03</rscale>
<asrwt>0</asrwt>
<pdfrwt beam="1">  1       21 0.56113018E-01 0.45546498E+03</pdfrwt>
<pdfrwt beam="2">  1       21 0.19987963E-01 0.45546498E+03</pdfrwt>
<totfact> 0.63823038E+04</totfact>
</mgrwt>
</event>
<event>
 7    0  0.4784406E-002  0.4418786E+03  0.7546771E-02  0.1030172E+00
         21   -1    0    0  502  501  0.00000000000E+00  0.00000000000E+00  0.43548561021E+02  0.43548561021E+02  0.00000000000E+00 0.  1.
         21   -1    0    0  501  502 -0.00000000000E+00 -0.00000000000E+00 -0.11209134540E+04  0.11209134540E+04  0.00000000000E+00 0.  1.
      99926    2    1    2    0    0  0.00000000000E+00  0.00000000000E+00 -0.10773648929E+04  0.11644620150E+04  0.44187857133E+03 0.  0.
      99925    2    3    3    0    0 -0.37602488620E+02  0.97673278007E+01 -0.93061615563E+03  0.96775907183E+03  0.26268202098E+03 0.  0.
         25    1    4    4    0    0 -0.93188005207E+01 -0.32776641085E+02 -0.49258740351E+03  0.50936333441E+03  0.12509000000E+03 0.  0.
         25    1    4    4    0    0 -0.28283688099E+02  0.42543968886E+02 -0.43802875211E+03  0.45839573741E+03  0.12509000000E+03 0.  0.
         25    1    3    3    0    0  0.37602488620E+02 -0.97673278007E+01 -0.14674873731E+03  0.19670294315E+03  0.12509000000E+03 0.  0.
<mgrwt>
<rscale>  2 0.44187857E+03</rscale>
<asrwt>0</asrwt>
<pdfrwt beam="1">  1       21 0.64042005E-02 0.44187857E+03</pdfrwt>
<pdfrwt beam="2">  1       21 0.16484021E+00 0.44187857E+03</pdfrwt>
<totfact> 0.36937968E+04</totfact>
</mgrwt>
</event>
<event>
 7    0  0.4784406E-002  0.4591680E+03  0.7546771E-02  0.1025023E+00
         21   -1    0    0  502  501  0.00000000000E+00  0.00000000000E+00  0.77557834405E+02  0.77557834405E+02  0.00000000000E+00 0. -1.
         21   -1    0    0  501  502 -0.00000000000E+00 -0.00000000000E+00 -0.67960658024E+03  0.67960658024E+03  0.00000000000E+00 0. -1.
      99926    2    1    2    0    0  0.00000000000E+00  0.00000000000E+00 -0.60204874583E+03  0.75716441464E+03  0.45916800677E+03 0.  0.
      99925    2    3    3    0    0 -0.10860500608E+03 -0.42611957240E+02 -0.36237010308E+03  0.46270866901E+03  0.26301405765E+03 0.  0.
         25    1    4    4    0    0 -0.52653019129E+02 -0.47303141654E+02 -0.13494710321E+03  0.19715008597E+03  0.12509000000E+03 0.  0.
         25    1    4    4    0    0 -0.55951986949E+02  0.46911844147E+01 -0.22742299987E+03  0.26555858303E+03  0.12509000000E+03 0.  0.
         25    1    3    3    0    0  0.10860500608E+03  0.42611957240E+02 -0.23967864275E+03  0.29445574563E+03  0.12509000000E+03 0.  0.
<mgrwt>
<rscale>  2 0.45916801E+03</rscale>
<asrwt>0</asrwt>
<pdfrwt beam="1">  1       21 0.11405564E-01 0.45916801E+03</pdfrwt>
<pdfrwt beam="2">  1       21 0.99942145E-01 0.45916801E+03</pdfrwt>
<totfact> 0.48305168E+04</totfact>
</mgrwt>
</event>
<event>
 7    0  0.4784406E-002  0.4290207E+03  0.7546771E-02  0.1034170E+00
         21   -1    0    0  502  501  0.00000000000E+00  0.00000000000E+00  0.14509508475E+03  0.14509508475E+03  0.00000000000E+00 0.  1.
         21   -1    0    0  501  502 -0.00000000000E+00 -0.00000000000E+00 -0.31713470416E+03  0.31713470416E+03  0.00000000000E+00 0.  1.
      99926    2    1    2    0    0  0.00000000000E+00  0.00000000000E+00 -0.17203961941E+03  0.46222978890E+03  0.42902068377E+03 0.  0.
      99925    2    3    3    0    0  0.34315461930E+02 -0.78457904844E+02 -0.12450224423E+03  0.30335718617E+03  0.26304292392E+03 0.  0.
         25    1    4    4    0    0  0.44193925457E+02 -0.18124883784E+02 -0.85116643342E+02  0.15866305661E+03  0.12509000000E+03 0.  0.
         25    1    4    4    0    0 -0.98784635270E+01 -0.60333021059E+02 -0.39385600889E+02  0.14469412956E+03  0.12509000000E+03 0.  0.
         25    1    3    3    0    0 -0.34315461930E+02  0.78457904844E+02 -0.47537375184E+02  0.15887260273E+03  0.12509000000E+03 0.  0.
<mgrwt>
<rscale>  2 0.42902068E+03</rscale>
<asrwt>0</asrwt>
<pdfrwt beam="1">  1       21 0.21337513E-01 0.42902068E+03</pdfrwt>
<pdfrwt beam="2">  1       21 0.46637456E-01 0.42902068E+03</pdfrwt>
<totfact> 0.84057294E+04</totfact>
</mgrwt>
</event>
<event>
 7    0  0.4784406E-002  0.4602840E+03  0.7546771E-02  0.1024699E+00
         21   -1    0    0  502  501  0.00000000000E+00  0.00000000000E+00  0.82375534471E+02  0.82375534471E+02  0.00000000000E+00 0. -1.
         21   -1    0    0  501  502 -0.00000000000E+00 -0.00000000000E+00 -0.64297411977E+03  0.64297411977E+03  0.00000000000E+00 0. -1.
      99926    2    1    2    0    0  0.00000000000E+00  0.00000000000E+00 -0.56059858530E+03  0.72534965424E+03  0.46028398524E+03 0.  0.
      99925    2    3    3    0    0  0.21536096647E+02  0.52443314653E+02 -0.18783958195E+03  0.32809546938E+03  0.26296163935E+03 0.  0.
         25    1    4    4    0    0  0.89114381424E+01  0.59005019577E+02 -0.68391441728E+02  0.15455065017E+03  0.12509000000E+03 0.  0.
         25    1    3    3    0    0 -0.21536096647E+02 -0.52443314653E+02 -0.37275900335E+03  0.39725418486E+03  0.12509000000E+03 0.  0.
         25    1    4    4    0    0  0.12624658504E+02 -0.65617049243E+01 -0.11944814022E+03  0.17354481921E+03  0.12509000000E+03 0.  0.
<mgrwt>
<rscale>  2 0.46028399E+03</rscale>
<asrwt>0</asrwt>
<pdfrwt beam="1">  1       21 0.12114049E-01 0.46028399E+03</pdfrwt>
<pdfrwt beam="2">  1       21 0.94555018E-01 0.46028399E+03</pdfrwt>
<totfact> 0.49460530E+04</totfact>
</mgrwt>
</event>
<event>
 7    0  0.4784406E-002  0.4485904E+03  0.7546771E-02  0.1028143E+00
         21   -1    0    0  502  501  0.00000000000E+00  0.00000000000E+00  0.22415561455E+03  0.22415561455E+03  0.00000000000E+00 0.  1.
         21   -1    0    0  501  502 -0.00000000000E+00 -0.00000000000E+00 -0.22443489842E+03  0.22443489842E+03  0.00000000000E+00 0.  1.
      99926    2    1    2    0    0  0.00000000000E+00  0.00000000000E+00 -0.27928386413E+00  0.44859051297E+03  0.44859042603E+03 0.  0.
      99925    2    3    3    0    0  0.34063529007E+02 -0.63004254476E+02 -0.79780202468E+02  0.28397652738E+03  0.26295993480E+03 0.  0.
         25    1    3    3    0    0 -0.34063529007E+02  0.63004254476E+02  0.79500918603E+02  0.16461398558E+03  0.12509000000E+03 0.  0.
         25    1    4    4    0    0  0.53674079663E+02 -0.50961888769E+02 -0.41775609519E+02  0.15123071971E+03  0.12509000000E+03 0.  0.
         25    1    4    4    0    0 -0.19610550657E+02 -0.12042365707E+02 -0.38004592949E+02  0.13274580767E+03  0.12509000000E+03 0.  0.
<mgrwt>
<rscale>  2 0.44859043E+03</rscale>
<asrwt>0</asrwt>
<pdfrwt beam="1">  1       21 0.32964061E-01 0.44859043E+03</pdfrwt>
<pdfrwt beam="2">  1       21 0.33005132E-01 0.44859043E+03</pdfrwt>
<totfact> 0.72663559E+04</totfact>
</mgrwt>
</event>
<event>
 7    0  0.4784406E-002  0.4582275E+03  0.7546771E-02  0.1025297E+00
         21   -1    0    0  502  501  0.00000000000E+00  0.00000000000E+00  0.26437839157E+03  0.26437839157E+03  0.00000000000E+00 0.  1.
         21   -1    0    0  501  502 -0.00000000000E+00 -0.00000000000E+00 -0.19855295814E+03  0.19855295814E+03  0.00000000000E+00 0.  1.
      99926    2    1    2    0    0 -0.14210854715E-13  0.00000000000E+00  0.65825433429E+02  0.46293134971E+03  0.45822750557E+03 0.  0.
      99925    2    3    3    0    0  0.86726583315E+02 -0.75486509367E+02  0.58200001334E+02  0.29285675236E+03  0.26297932219E+03 0.  0.
         25    1    3    3    0    0 -0.86726583315E+02  0.75486509367E+02  0.76254320950E+01  0.17007459735E+03  0.12509000000E+03 0.  0.
         25    1    4    4    0    0  0.22104647189E+02 -0.28005711997E+02 -0.77126359946E+01  0.13030705348E+03  0.12509000000E+03 0.  0.
         25    1    4    4    0    0  0.64621936126E+02 -0.47480797370E+02  0.65912637329E+02  0.16254969888E+03  0.12509000000E+03 0.  0.
<mgrwt>
<rscale>  2 0.45822751E+03</rscale>
<asrwt>0</asrwt>
<pdfrwt beam="1">  1       21 0.38879175E-01 0.45822751E+03</pdfrwt>
<pdfrwt beam="2">  1       21 0.29198964E-01 0.45822751E+03</pdfrwt>
<totfact> 0.66245914E+04</totfact>
</mgrwt>
</event>
<event>
 7    0  0.4784406E-002  0.4593141E+03  0.7546771E-02  0.1024980E+00
         21   -1    0    0  502  501  0.00000000000E+00  0.00000000000E+00  0.21961410152E+03  0.21961410152E+03  0.00000000000E+00 0.  1.
         21   -1    0    0  501  502 -0.00000000000E+00 -0.00000000000E+00 -0.24015925851E+03  0.24015925851E+03  0.00000000000E+00 0.  1.
      99926    2    1    2    0    0  0.00000000000E+00  0.00000000000E+00 -0.20545156988E+02  0.45977336003E+03  0.45931409636E+03 0.  0.
      99925    2    3    3    0    0  0.45186966501E+02 -0.35767961238E+02 -0.11496533642E+03  0.29278866798E+03  0.26303415468E+03 0.  0.
         25    1    4    4    0    0  0.35615335283E+02  0.11560056160E+02 -0.29765764841E+02  0.13392384352E+03  0.12509000000E+03 0.  0.
         25    1    4    4    0    0  0.95716312179E+01 -0.47328017397E+02 -0.85199571583E+02  0.15886482447E+03  0.12509000000E+03 0.  0.
         25    1    3    3    0    0 -0.45186966501E+02  0.35767961238E+02  0.94420179436E+02  0.16698469204E+03  0.12509000000E+03 0.  0.
<mgrwt>
<rscale>  2 0.45931410E+03</rscale>
<asrwt>0</asrwt>
<pdfrwt beam="1">  1       21 0.32296191E-01 0.45931410E+03</pdfrwt>
<pdfrwt beam="2">  1       21 0.35317538E-01 0.45931410E+03</pdfrwt>
<totfact> 0.65899769E+04</totfact>
</mgrwt>
</event>
<event>
 7    0  0.4784406E-002  0.4584010E+03  0.7546771E-02  0.1025246E+00
         21   -1    0    0  502  501  0.00000000000E+00  0.00000000000E+00  0.12507749787E+04  0.12507749787E+04  0.00000000000E+00 0.  1.
         21   -1    0    0  501  502 -0.00000000000E+00 -0.00000000000E+00 -0.42000259852E+02  0.42000259852E+02  0.00000000000E+00 0.  1.
      99926    2    1    2    0    0 -0.71054273576E-14 -0.71054273576E-14  0.12087747189E+04  0.12927752386E+04  0.45840102148E+03 0.  0.
      99925    2    3    3    0    0  0.38685578548E+02  0.60114685758E+02  0.10174594628E+04  0.10532770450E+04  0.26278969841E+03 0.  0.
         25    1    4    4    0    0  0.16247456952E+02 -0.10805946230E+02  0.49355660815E+03  0.50953545694E+03  0.12509000000E+03 0.  0.
         25    1    4    4    0    0  0.22438121596E+02  0.70920631988E+02  0.52390285468E+03  0.54374158806E+03  0.12509000000E+03 0.  0.
         25    1    3    3    0    0 -0.38685578548E+02 -0.60114685758E+02  0.19131525603E+03  0.23949819357E+03  0.12509000000E+03 0.  0.
<mgrwt>
<rscale>  2 0.45840102E+03</rscale>
<asrwt>0</asrwt>
<pdfrwt beam="1">  1       21 0.18393747E+00 0.45840102E+03</pdfrwt>
<pdfrwt beam="2">  1       21 0.61765096E-02 0.45840102E+03</pdfrwt>
<totfact> 0.28562077E+04</totfact>
</mgrwt>
</event>
<event>
 7    0  0.4784406E-002  0.4370570E+03  0.7546771E-02  0.1031654E+00
         21   -1    0    0  502  501  0.00000000000E+00  0.00000000000E+00  0.19281084586E+03  0.19281084586E+03  0.00000000000E+00 0.  1.
         21   -1    0    0  501  502 -0.00000000000E+00 -0.00000000000E+00 -0.24767650115E+03  0.24767650115E+03  0.00000000000E+00 0.  1.
      99926    2    1    2    0    0 -0.14210854715E-13  0.00000000000E+00 -0.54865655290E+02  0.44048734702E+03  0.43705704748E+03 0.  0.
      99925    2    3    3    0    0  0.88007243965E+02 -0.16201706738E+02  0.39077826765E+00  0.27705983452E+03  0.26221027612E+03 0.  0.
         25    1    4    4    0    0  0.78918971522E+02 -0.62188479899E+01 -0.20741510070E+02  0.14948109070E+03  0.12509000000E+03 0.  0.
         25    1    3    3    0    0 -0.88007243965E+02  0.16201706738E+02 -0.55256433558E+02  0.16342751250E+03  0.12509000000E+03 0.  0.
         25    1    4    4    0    0  0.90882724434E+01 -0.99828587479E+01  0.21132288337E+02  0.12757874382E+03  0.12509000000E+03 0.  0.
<mgrwt>
<rscale>  2 0.43705705E+03</rscale>
<asrwt>0</asrwt>
<pdfrwt beam="1">  1       21 0.28354536E-01 0.43705705E+03</pdfrwt>
<pdfrwt beam="2">  1       21 0.36423015E-01 0.43705705E+03</pdfrwt>
<totfact> 0.80550289E+04</totfact>
</mgrwt>
</event>
<event>
 7    0  0.4784406E-002  0.4556984E+03  0.7546771E-02  0.1026036E+00
         21   -1    0    0  502  501  0.00000000000E+00  0.00000000000E+00  0.51424942388E+02  0.51424942388E+02  0.00000000000E+00 0. -1.
         21   -1    0    0  501  502 -0.00000000000E+00 -0.00000000000E+00 -0.10095346536E+04  0.10095346536E+04  0.00000000000E+00 0. -1.
      99926    2    1    2    0    0 -0.14210854715E-13  0.14210854715E-13 -0.95810971120E+03  0.10609595960E+04  0.45569841518E+03 0.  0.
      99925    2    3    3    0    0 -0.72710891152E+02  0.72054933868E+02 -0.48512336643E+03  0.56111724320E+03  0.26273388205E+03 0.  0.
         25    1    4    4    0    0 -0.66110366856E+02  0.28043143262E+02 -0.19988944475E+03  0.24649603792E+03  0.12509000000E+03 0.  0.
         25    1    3    3    0    0  0.72710891152E+02 -0.72054933868E+02 -0.47298634477E+03  0.49984235278E+03  0.12509000000E+03 0.  0.
         25    1    4    4    0    0 -0.66005242958E+01  0.44011790606E+02 -0.28523392168E+03  0.31462120528E+03  0.12509000000E+03 0.  0.
<mgrwt>
<rscale>  2 0.45569842E+03</rscale>
<asrwt>0</asrwt>
<pdfrwt beam="1">  1       21 0.75624914E-02 0.45569842E+03</pdfrwt>
<pdfrwt beam="2">  1       21 0.14846098E+00 0.45569842E+03</pdfrwt>
<totfact> 0.36677476E+04</totfact>
</mgrwt>
</event>
<event>
 7    0  0.4784406E-002  0.4569675E+03  0.7546771E-02  0.1025664E+00
         21   -1    0    0  502  501  0.00000000000E+00  0.00000000000E+00  0.19578739458E+03  0.19578739458E+03  0.00000000000E+00 0. -1.
         21   -1    0    0  501  502 -0.00000000000E+00 -0.00000000000E+00 -0.26664035639E+03  0.26664035639E+03  0.00000000000E+00 0. -1.
      99926    2    1    2    0    0 -0.71054273576E-14  0.00000000000E+00 -0.70852961814E+02  0.46242775098E+03  0.45696748536E+03 0.  0.
      99925    2    3    3    0    0 -0.41852539838E+02  0.95185853971E+02  0.51660388846E+01  0.28287726099E+03  0.26302257496E+03 0.  0.
         25    1    4    4    0    0  0.68544237085E+01  0.26045469746E+02  0.25633624044E+02  0.13049881379E+03  0.12509000000E+03 0.  0.
         25    1    4    4    0    0 -0.48706963547E+02  0.69140384225E+02 -0.20467585159E+02  0.15237844720E+03  0.12509000000E+03 0.  0.
         25    1    3    3    0    0  0.41852539838E+02 -0.95185853971E+02 -0.76019000699E+02  0.17955048999E+03  0.12509000000E+03 0.  0.
<mgrwt>
<rscale>  2 0.45696749E+03</rscale>
<asrwt>0</asrwt>
<pdfrwt beam="1">  1       21 0.28792264E-01 0.45696749E+03</pdfrwt>
<pdfrwt beam="2">  1       21 0.39211817E-01 0.45696749E+03</pdfrwt>
<totfact> 0.66947405E+04</totfact>
</mgrwt>
</event>
<event>
 7    0  0.4784406E-002  0.4490215E+03  0.7546771E-02  0.1028014E+00
         21   -1    0    0  502  501  0.00000000000E+00  0.00000000000E+00  0.33048450736E+03  0.33048450736E+03  0.00000000000E+00 0.  1.
         21   -1    0    0  501  502 -0.00000000000E+00 -0.00000000000E+00 -0.15251872788E+03  0.15251872788E+03  0.00000000000E+00 0.  1.
      99926    2    1    2    0    0  0.00000000000E+00  0.00000000000E+00  0.17796577947E+03  0.48300323524E+03  0.44902149903E+03 0.  0.
      99925    2    3    3    0    0 -0.47956596098E+02  0.92685665141E+02  0.13903009382E+03  0.31551006120E+03  0.26329976092E+03 0.  0.
         25    1    4    4    0    0  0.70262789776E+01  0.73465568034E+02  0.70585981848E+02  0.16148203373E+03  0.12509000000E+03 0.  0.
         25    1    3    3    0    0  0.47956596098E+02 -0.92685665141E+02  0.38935685656E+02  0.16749317404E+03  0.12509000000E+03 0.  0.
         25    1    4    4    0    0 -0.54982875076E+02  0.19220097106E+02  0.68444111968E+02  0.15402802747E+03  0.12509000000E+03 0.  0.
<mgrwt>
<rscale>  2 0.44902150E+03</rscale>
<asrwt>0</asrwt>
<pdfrwt beam="1">  1       21 0.48600663E-01 0.44902150E+03</pdfrwt>
<pdfrwt beam="2">  1       21 0.22429225E-01 0.44902150E+03</pdfrwt>
<totfact> 0.69733394E+04</totfact>
</mgrwt>
</event>
<event>
 7    0  0.4784406E-002  0.4407847E+03  0.7546771E-02  0.1030506E+00
         21   -1    0    0  502  501  0.00000000000E+00  0.00000000000E+00  0.97461429745E+02  0.97461429745E+02  0.00000000000E+00 0. -1.
         21   -1    0    0  501  502 -0.00000000000E+00 -0.00000000000E+00 -0.49837952728E+03  0.49837952728E+03  0.00000000000E+00 0. -1.
      99926    2    1    2    0    0  0.00000000000E+00  0.14210854715E-13 -0.40091809753E+03  0.59584095702E+03  0.44078466981E+03 0.  0.
      99925    2    3    3    0    0 -0.95626885063E+01  0.99432470325E+02 -0.25663681612E+03  0.38033490738E+03  0.26232408433E+03 0.  0.
         25    1    4    4    0    0 -0.34656612503E+02  0.67440239623E+02 -0.10780429091E+03  0.18171004361E+03  0.12509000000E+03 0.  0.
         25    1    4    4    0    0  0.25093923997E+02  0.31992230702E+02 -0.14883252521E+03  0.19862486377E+03  0.12509000000E+03 0.  0.
         25    1    3    3    0    0  0.95626885063E+01 -0.99432470325E+02 -0.14428128141E+03  0.21550604964E+03  0.12509000000E+03 0.  0.
<mgrwt>
<rscale>  2 0.44078467E+03</rscale>
<asrwt>0</asrwt>
<pdfrwt beam="1">  1       21 0.14332563E-01 0.44078467E+03</pdfrwt>
<pdfrwt beam="2">  1       21 0.73291106E-01 0.44078467E+03</pdfrwt>
<totfact> 0.66046947E+04</totfact>
</mgrwt>
</event>
<event>
 7    0  0.4784406E-002  0.4584939E+03  0.7546771E-02  0.1025219E+00
         21   -1    0    0  502  501  0.00000000000E+00  0.00000000000E+00  0.61066239959E+03  0.61066239959E+03  0.00000000000E+00 0. -1.
         21   -1    0    0  501  502 -0.00000000000E+00 -0.00000000000E+00 -0.86060921197E+02  0.86060921197E+02  0.00000000000E+00 0. -1.
      99926    2    1    2    0    0 -0.71054273576E-14  0.13322676296E-14  0.52460147839E+03  0.69672332078E+03  0.45849391991E+03 0.  0.
      99925    2    3    3    0    0  0.56604406652E+02  0.25619454437E+01  0.48366511833E+03  0.55342671897E+03  0.26294213082E+03 0.  0.
         25    1    3    3    0    0 -0.56604406652E+02 -0.25619454437E+01  0.40936360057E+02  0.14329660181E+03  0.12509000000E+03 0.  0.
         25    1    4    4    0    0  0.60792761069E+02  0.13852007573E+02  0.29903699416E+03  0.33008827590E+03  0.12509000000E+03 0.  0.
         25    1    4    4    0    0 -0.41883544166E+01 -0.11290062130E+02  0.18462812418E+03  0.22333844307E+03  0.12509000000E+03 0.  0.
<mgrwt>
<rscale>  2 0.45849392E+03</rscale>
<asrwt>0</asrwt>
<pdfrwt beam="1">  1       21 0.89803292E-01 0.45849392E+03</pdfrwt>
<pdfrwt beam="2">  1       21 0.12656018E-01 0.45849392E+03</pdfrwt>
<totfact> 0.51646283E+04</totfact>
</mgrwt>
</event>
<event>
 7    0  0.4784406E-002  0.4563367E+03  0.7546771E-02  0.1025849E+00
         21   -1    0    0  502  501  0.00000000000E+00  0.00000000000E+00  0.18191361079E+03  0.18191361079E+03  0.00000000000E+00 0.  1.
         21   -1    0    0  501  502 -0.00000000000E+00 -0.00000000000E+00 -0.28618415473E+03  0.28618415473E+03  0.00000000000E+00 0.  1.
      99926    2    1    2    0    0  0.00000000000E+00  0.35527136788E-14 -0.10427054394E+03  0.46809776553E+03  0.45633668684E+03 0.  0.
      99925    2    3    3    0    0 -0.79934620026E+02  0.31251973174E+02 -0.14327873237E+03  0.31146004283E+03  0.26289224756E+03 0.  0.
         25    1    4    4    0    0 -0.54349897323E+01 -0.86250184129E+01 -0.68921937104E+02  0.14318404789E+03  0.12509000000E+03 0.  0.
         25    1    3    3    0    0  0.79934620026E+02 -0.31251973174E+02  0.39008188433E+02  0.15663772269E+03  0.12509000000E+03 0.  0.
         25    1    4    4    0    0 -0.74499630294E+02  0.39876991587E+02 -0.74356795267E+02  0.16827599494E+03  0.12509000000E+03 0.  0.
<mgrwt>
<rscale>  2 0.45633669E+03</rscale>
<asrwt>0</asrwt>
<pdfrwt beam="1">  1       21 0.26752002E-01 0.45633669E+03</pdfrwt>
<pdfrwt beam="2">  1       21 0.42085905E-01 0.45633669E+03</pdfrwt>
<totfact> 0.66865936E+04</totfact>
</mgrwt>
</event>
<event>
 7    0  0.4784406E-002  0.4567658E+03  0.7546771E-02  0.1025723E+00
         21   -1    0    0  502  501  0.00000000000E+00  0.00000000000E+00  0.10616728924E+03  0.10616728924E+03  0.00000000000E+00 0. -1.
         21   -1    0    0  501  502 -0.00000000000E+00 -0.00000000000E+00 -0.49128838274E+03  0.49128838274E+03  0.00000000000E+00 0. -1.
      99926    2    1    2    0    0  0.00000000000E+00 -0.14210854715E-13 -0.38512109350E+03  0.59745567198E+03  0.45676582985E+03 0.  0.
      99925    2    3    3    0    0  0.58368757377E+02 -0.86595762453E+02 -0.30417439838E+03  0.41550619145E+03  0.26309236514E+03 0.  0.
         25    1    4    4    0    0  0.60744640260E+02 -0.51196988105E+02 -0.19990182579E+03  0.24883587154E+03  0.12509000000E+03 0.  0.
         25    1    4    4    0    0 -0.23758828826E+01 -0.35398774348E+02 -0.10427257259E+03  0.16667031991E+03  0.12509000000E+03 0.  0.
         25    1    3    3    0    0 -0.58368757377E+02  0.86595762453E+02 -0.80946695129E+02  0.18194948053E+03  0.12509000000E+03 0.  0.
<mgrwt>
<rscale>  2 0.45676583E+03</rscale>
<asrwt>0</asrwt>
<pdfrwt beam="1">  1       21 0.15612837E-01 0.45676583E+03</pdfrwt>
<pdfrwt beam="2">  1       21 0.72248291E-01 0.45676583E+03</pdfrwt>
<totfact> 0.58021307E+04</totfact>
</mgrwt>
</event>
<event>
 7    0  0.4784406E-002  0.4527669E+03  0.7546771E-02  0.1026900E+00
         21   -1    0    0  502  501  0.00000000000E+00  0.00000000000E+00  0.17955441221E+04  0.17955441221E+04  0.00000000000E+00 0.  1.
         21   -1    0    0  501  502 -0.00000000000E+00 -0.00000000000E+00 -0.28542583811E+02  0.28542583811E+02  0.00000000000E+00 0.  1.
      99926    2    1    2    0    0  0.88817841970E-15  0.00000000000E+00  0.17670015383E+04  0.18240867059E+04  0.45276690953E+03 0.  0.
      99925    2    3    3    0    0  0.77068747846E+01 -0.10905274580E+02  0.67161604744E+03  0.72150101645E+03  0.26328175142E+03 0.  0.
         25    1    4    4    0    0  0.21886050895E+02 -0.39850972386E+02  0.37720838448E+03  0.40000096581E+03  0.12509000000E+03 0.  0.
         25    1    3    3    0    0 -0.77068747846E+01  0.10905274580E+02  0.10953854909E+04  0.11025856895E+04  0.12509000000E+03 0.  0.
         25    1    4    4    0    0 -0.14179176110E+02  0.28945697806E+02  0.29440766295E+03  0.32150005064E+03  0.12509000000E+03 0.  0.
<mgrwt>
<rscale>  2 0.45276691E+03</rscale>
<asrwt>0</asrwt>
<pdfrwt beam="1">  1       21 0.26405053E+00 0.45276691E+03</pdfrwt>
<pdfrwt beam="2">  1       21 0.41974400E-02 0.45276691E+03</pdfrwt>
<totfact> 0.17095613E+04</totfact>
</mgrwt>
</event>
<event>
 6    0  0.5078207E-002  0.4528419E+03  0.7546771E-02  0.1026878E+00
         21   -1    0    0  502  501  0.00000000000E+00  0.00000000000E+00  0.11005101483E+03  0.11005101483E+03  0.00000000000E+00 0.  1.
         21   -1    0    0  501  502 -0.00000000000E+00 -0.00000000000E+00 -0.46584249578E+03  0.46584249578E+03  0.00000000000E+00 0.  1.
      99926    2    1    2    0    0 -0.71054273576E-14  0.00000000000E+00 -0.35579148095E+03  0.57589351062E+03  0.45284186826E+03 0.  0.
         25    1    3    3    0    0  0.25291904330E+02 -0.20291558055E+02 -0.51210599192E+02  0.13900165942E+03  0.12509000000E+03 0.  0.
         25    1    3    3    0    0  0.33697445818E+02 -0.42603857619E+02 -0.23059598556E+03  0.26790413061E+03  0.12509000000E+03 0.  0.
         25    1    3    3    0    0 -0.58989350148E+02  0.62895415674E+02 -0.73984896195E+02  0.16898772059E+03  0.12509000000E+03 0.  0.
<mgrwt>
<rscale>  2 0.45284187E+03</rscale>
<asrwt>0</asrwt>
<pdfrwt beam="1">  1       21 0.16183973E-01 0.45284187E+03</pdfrwt>
<pdfrwt beam="2">  1       21 0.68506249E-01 0.45284187E+03</pdfrwt>
<totfact> 0.61225212E+04</totfact>
</mgrwt>
</event>
<event>
 6    0  0.4784406E-002  0.4464966E+03  0.7546771E-02  0.1028772E+00
         21   -1    0    0  502  501  0.00000000000E+00  0.00000000000E+00  0.22202479721E+02  0.22202479721E+02  0.00000000000E+00 0.  1.
         21   -1    0    0  501  502 -0.00000000000E+00 -0.00000000000E+00 -0.22447859089E+04  0.22447859089E+04  0.00000000000E+00 0.  1.
      99926    2    1    2    0    0  0.55511151231E-16 -0.14210854715E-13 -0.22225834292E+04  0.22669883886E+04  0.44649664555E+03 0.  0.
         25    1    3    3    0    0  0.47803703815E+00  0.45974155784E+02 -0.71965157664E+03  0.73188779972E+03  0.12509000000E+03 0.  0.
         25    1    3    3    0    0  0.25067505576E+00 -0.64535429676E+02 -0.11787759524E+04  0.11871500067E+04  0.12509000000E+03 0.  0.
         25    1    3    3    0    0 -0.72871209391E+00  0.18561273892E+02 -0.32415590015E+03  0.34795058214E+03  0.12509000000E+03 0.  0.
<mgrwt>
<rscale>  2 0.44649665E+03</rscale>
<asrwt>0</asrwt>
<pdfrwt beam="1">  1       21 0.32650711E-02 0.44649665E+03</pdfrwt>
<pdfrwt beam="2">  1       21 0.33011551E+00 0.44649665E+03</pdfrwt>
<totfact> 0.10496337E+04</totfact>
</mgrwt>
</event>
<event>
 7    0  0.4784406E-002  0.4488541E+03  0.7546771E-02  0.1028064E+00
         21   -1    0    0  502  501  0.00000000000E+00  0.00000000000E+00  0.55151383208E+02  0.55151383208E+02  0.00000000000E+00 0.  1.
         21   -1    0    0  501  502 -0.00000000000E+00 -0.00000000000E+00 -0.91325914468E+03  0.91325914468E+03  0.00000000000E+00 0.  1.
      99926    2    1    2    0    0  0.00000000000E+00  0.00000000000E+00 -0.85810776147E+03  0.96841052789E+03  0.44885411909E+03 0.  0.
      99925    2    3    3    0    0  0.10400951183E+03  0.21176135351E+02 -0.57619126654E+03  0.64223446274E+03  0.26306334264E+03 0.  0.
         25    1    3    3    0    0 -0.10400951183E+03 -0.21176135351E+02 -0.28191649493E+03  0.32617606514E+03  0.12509000000E+03 0.  0.
         25    1    4    4    0    0  0.76044730096E+02 -0.21068594597E+02 -0.32543878024E+03  0.35746971122E+03  0.12509000000E+03 0.  0.
         25    1    4    4    0    0  0.27964781730E+02  0.42244729948E+02 -0.25075248630E+03  0.28476475152E+03  0.12509000000E+03 0.  0.
<mgrwt>
<rscale>  2 0.44885412E+03</rscale>
<asrwt>0</asrwt>
<pdfrwt beam="1">  1       21 0.81104976E-02 0.44885412E+03</pdfrwt>
<pdfrwt beam="2">  1       21 0.13430281E+00 0.44885412E+03</pdfrwt>
<totfact> 0.42405334E+04</totfact>
</mgrwt>
</event>
<event>
 7    0  0.4784406E-002  0.4529378E+03  0.7546771E-02  0.1026850E+00
         21   -1    0    0  502  501  0.00000000000E+00  0.00000000000E+00  0.22438279662E+03  0.22438279662E+03  0.00000000000E+00 0. -1.
         21   -1    0    0  501  502 -0.00000000000E+00 -0.00000000000E+00 -0.22857436321E+03  0.22857436321E+03  0.00000000000E+00 0. -1.
      99926    2    1    2    0    0  0.00000000000E+00  0.00000000000E+00 -0.41915665928E+01  0.45295715983E+03  0.45293776550E+03 0.  0.
      99925    2    3    3    0    0 -0.51156231009E+02 -0.56709246165E+02 -0.83555799076E+02  0.28628656234E+03  0.26295536816E+03 0.  0.
         25    1    4    4    0    0 -0.46487368554E+02 -0.64810337442E+02 -0.43207303526E+02  0.15451807160E+03  0.12509000000E+03 0.  0.
         25    1    3    3    0    0  0.51156231009E+02  0.56709246165E+02  0.79364232484E+02  0.16667059750E+03  0.12509000000E+03 0.  0.
         25    1    4    4    0    0 -0.46688624551E+01  0.81010912775E+01 -0.40348495551E+02  0.13176849073E+03  0.12509000000E+03 0.  0.
<mgrwt>
<rscale>  2 0.45293777E+03</rscale>
<asrwt>0</asrwt>
<pdfrwt beam="1">  1       21 0.32997470E-01 0.45293777E+03</pdfrwt>
<pdfrwt beam="2">  1       21 0.33613877E-01 0.45293777E+03</pdfrwt>
<totfact> 0.69837797E+04</totfact>
</mgrwt>
</event>
<event>
 7    0  0.4784406E-002  0.4531942E+03  0.7546771E-02  0.1026774E+00
         21   -1    0    0  502  501  0.00000000000E+00  0.00000000000E+00  0.40342790063E+03  0.40342790063E+03  0.00000000000E+00 0.  1.
         21   -1    0    0  501  502 -0.00000000000E+00 -0.00000000000E+00 -0.12727488846E+03  0.12727488846E+03  0.00000000000E+00 0.  1.
      99926    2    1    2    0    0  0.00000000000E+00  0.13322676296E-14  0.27615301218E+03  0.53070278909E+03  0.45319417937E+03 0.  0.
      99925    2    3    3    0    0 -0.64120247637E+02  0.37909390260E+01  0.67310263112E+02  0.27893190254E+03  0.26295732992E+03 0.  0.
         25    1    3    3    0    0  0.64120247637E+02 -0.37909390260E+01  0.20884274907E+03  0.25177088655E+03  0.12509000000E+03 0.  0.
         25    1    4    4    0    0  0.15386370376E+01  0.18653080458E+02  0.14213721057E+02  0.12727860300E+03  0.12509000000E+03 0.  0.
         25    1    4    4    0    0 -0.65658884674E+02 -0.14862141432E+02  0.53096542056E+02  0.15165329954E+03  0.12509000000E+03 0.  0.
<mgrwt>
<rscale>  2 0.45319418E+03</rscale>
<asrwt>0</asrwt>
<pdfrwt beam="1">  1       21 0.59327632E-01 0.45319418E+03</pdfrwt>
<pdfrwt beam="2">  1       21 0.18716895E-01 0.45319418E+03</pdfrwt>
<totfact> 0.64070937E+04</totfact>
</mgrwt>
</event>
<event>
 7    0  0.4784406E-002  0.4436245E+03  0.7546771E-02  0.1029641E+00
         21   -1    0    0  502  501  0.00000000000E+00  0.00000000000E+00  0.12857319677E+04  0.12857319677E+04  0.00000000000E+00 0. -1.
         21   -1    0    0  501  502 -0.00000000000E+00 -0.00000000000E+00 -0.38266666924E+02  0.38266666924E+02  0.00000000000E+00 0. -1.
      99926    2    1    2    0    0 -0.71054273576E-14  0.00000000000E+00  0.12474653008E+04  0.13239986347E+04  0.44362451223E+03 0.  0.
      99925    2    3    3    0    0  0.46763712138E+02  0.86935748501E+02  0.71782653373E+03  0.77090786378E+03  0.26320967453E+03 0.  0.
         25    1    3    3    0    0 -0.46763712138E+02 -0.86935748501E+02  0.52963876709E+03  0.55309077090E+03  0.12509000000E+03 0.  0.
         25    1    4    4    0    0 -0.83659975221E+01  0.67999887210E+02  0.38739637692E+03  0.41281646712E+03  0.12509000000E+03 0.  0.
         25    1    4    4    0    0  0.55129709660E+02  0.18935861291E+02  0.33043015681E+03  0.35809139666E+03  0.12509000000E+03 0.  0.
<mgrwt>
<rscale>  2 0.44362451E+03</rscale>
<asrwt>0</asrwt>
<pdfrwt beam="1">  1       21 0.18907820E+00 0.44362451E+03</pdfrwt>
<pdfrwt beam="2">  1       21 0.56274519E-02 0.44362451E+03</pdfrwt>
<totfact> 0.31085703E+04</totfact>
</mgrwt>
</event>
<event>
 7    0  0.4784406E-002  0.4647819E+03  0.7546771E-02  0.1023403E+00
         21   -1    0    0  502  501  0.00000000000E+00  0.00000000000E+00  0.68293087460E+02  0.68293087460E+02  0.00000000000E+00 0. -1.
         21   -1    0    0  501  502 -0.00000000000E+00 -0.00000000000E+00 -0.79079075527E+03  0.79079075527E+03  0.00000000000E+00 0. -1.
      99926    2    1    2    0    0  0.00000000000E+00  0.00000000000E+00 -0.72249766781E+03  0.85908384273E+03  0.46478185082E+03 0.  0.
      99925    2    3    3    0    0  0.79106485263E+02  0.55474121999E+02 -0.58779902401E+03  0.65141476231E+03  0.26362527516E+03 0.  0.
         25    1    3    3    0    0 -0.79106485263E+02 -0.55474121999E+02 -0.13469864380E+03  0.20766908042E+03  0.12509000000E+03 0.  0.
         25    1    4    4    0    0  0.73147276535E+02  0.17825486578E+02 -0.25487791076E+03  0.29373207099E+03  0.12509000000E+03 0.  0.
         25    1    4    4    0    0  0.59592087275E+01  0.37648635421E+02 -0.33292111326E+03  0.35768269132E+03  0.12509000000E+03 0.  0.
<mgrwt>
<rscale>  2 0.46478185E+03</rscale>
<asrwt>0</asrwt>
<pdfrwt beam="1">  1       21 0.10043102E-01 0.46478185E+03</pdfrwt>
<pdfrwt beam="2">  1       21 0.11629275E+00 0.46478185E+03</pdfrwt>
<totfact> 0.41739736E+04</totfact>
</mgrwt>
</event>
<event>
 7    0  0.4784406E-002  0.4590325E+03  0.7546771E-02  0.1025062E+00
         21   -1    0    0  502  501  0.00000000000E+00  0.00000000000E+00  0.43685622076E+02  0.43685622076E+02  0.00000000000E+00 0. -1.
         21   -1    0    0  501  502 -0.00000000000E+00 -0.00000000000E+00 -0.12058360979E+04  0.12058360979E+04  0.00000000000E+00 0. -1.
      99926    2    1    2    0    0  0.71054273576E-14 -0.14210854715E-13 -0.11621504758E+04  0.12495217200E+04  0.45903246097E+03 0.  0.
      99925    2    3    3    0    0 -0.44237866055E+02  0.87508428976E+02 -0.90194731848E+03  0.94461533249E+03  0.26301035555E+03 0.  0.
         25    1    4    4    0    0 -0.26362551173E+02  0.49659302243E+01 -0.46790684295E+03  0.48508140177E+03  0.12509000000E+03 0.  0.
         25    1    4    4    0    0 -0.17875314882E+02  0.82542498752E+02 -0.43404047553E+03  0.45953393072E+03  0.12509000000E+03 0.  0.
         25    1    3    3    0    0  0.44237866055E+02 -0.87508428976E+02 -0.26020315732E+03  0.30490638746E+03  0.12509000000E+03 0.  0.
<mgrwt>
<rscale>  2 0.45903246E+03</rscale>
<asrwt>0</asrwt>
<pdfrwt beam="1">  1       21 0.64243565E-02 0.45903246E+03</pdfrwt>
<pdfrwt beam="2">  1       21 0.17732883E+00 0.45903246E+03</pdfrwt>
<totfact> 0.29674154E+04</totfact>
</mgrwt>
</event>
<event>
 7    0  0.4784406E-002  0.4554527E+03  0.7546771E-02  0.1026108E+00
         21   -1    0    0  502  501  0.00000000000E+00  0.00000000000E+00  0.36851290259E+03  0.36851290259E+03  0.00000000000E+00 0.  1.
         21   -1    0    0  501  502 -0.00000000000E+00 -0.00000000000E+00 -0.14072586697E+03  0.14072586697E+03  0.00000000000E+00 0.  1.
      99926    2    1    2    0    0  0.00000000000E+00  0.00000000000E+00  0.22778703562E+03  0.50923876956E+03  0.45545273172E+03 0.  0.
      99925    2    3    3    0    0  0.48694744966E+02  0.10138257473E+03  0.12478537743E+03  0.31199157861E+03  0.26290254859E+03 0.  0.
         25    1    4    4    0    0  0.38143917978E+02  0.40852487495E+02  0.21865442464E+02  0.13874253092E+03  0.12509000000E+03 0.  0.
         25    1    3    3    0    0 -0.48694744966E+02 -0.10138257473E+03  0.10300165819E+03  0.19724719095E+03  0.12509000000E+03 0.  0.
         25    1    4    4    0    0  0.10550826988E+02  0.60530087239E+02  0.10291993497E+03  0.17324904769E+03  0.12509000000E+03 0.  0.
<mgrwt>
<rscale>  2 0.45545273E+03</rscale>
<asrwt>0</asrwt>
<pdfrwt beam="1">  1       21 0.54193074E-01 0.45545273E+03</pdfrwt>
<pdfrwt beam="2">  1       21 0.20694981E-01 0.45545273E+03</pdfrwt>
<totfact> 0.64394673E+04</totfact>
</mgrwt>
</event>
<event>
 6    0  0.4784406E-002  0.4588251E+03  0.7546771E-02  0.1025123E+00
         21   -1    0    0  502  501  0.00000000000E+00  0.00000000000E+00  0.24113842982E+03  0.24113842982E+03  0.00000000000E+00 0.  1.
         21   -1    0    0  501  502 -0.00000000000E+00 -0.00000000000E+00 -0.21825689587E+03  0.21825689587E+03  0.00000000000E+00 0.  1.
      99926    2    1    2    0    0  0.00000000000E+00 -0.17763568394E-14  0.22881533958E+02  0.45939532569E+03  0.45882513082E+03 0.  0.
         25    1    3    3    0    0 -0.74026609301E+02  0.97364952474E+01 -0.64453690289E+02  0.15930010834E+03  0.12509000000E+03 0.  0.
         25    1    3    3    0    0 -0.20653423203E+02 -0.25871965838E+02  0.39191253366E+02  0.13520127568E+03  0.12509000000E+03 0.  0.
         25    1    3    3    0    0  0.94680032504E+02  0.16135470591E+02  0.48143970880E+02  0.16489394167E+03  0.12509000000E+03 0.  0.
<mgrwt>
<rscale>  2 0.45882513E+03</rscale>
<asrwt>0</asrwt>
<pdfrwt beam="1">  1       21 0.35461534E-01 0.45882513E+03</pdfrwt>
<pdfrwt beam="2">  1       21 0.32096602E-01 0.45882513E+03</pdfrwt>
<totfact> 0.66181947E+04</totfact>
</mgrwt>
</event>
<event>
 7    0  0.4784406E-002  0.4591163E+03  0.7546771E-02  0.1025038E+00
         21   -1    0    0  502  501  0.00000000000E+00  0.00000000000E+00  0.57128726971E+02  0.57128726971E+02  0.00000000000E+00 0. -1.
         21   -1    0    0  501  502 -0.00000000000E+00 -0.00000000000E+00 -0.92242471602E+03  0.92242471602E+03  0.00000000000E+00 0. -1.
      99926    2    1    2    0    0  0.00000000000E+00 -0.35527136788E-14 -0.86529598905E+03  0.97955344299E+03  0.45911632405E+03 0.  0.
      99925    2    3    3    0    0 -0.11354821760E+03  0.24024941806E+02 -0.51071944921E+03  0.58605321904E+03  0.26297076681E+03 0.  0.
         25    1    4    4    0    0 -0.48492632369E+02 -0.25813434765E+02 -0.27150324215E+03  0.30393977596E+03  0.12509000000E+03 0.  0.
         25    1    4    4    0    0 -0.65055585227E+02  0.49838376570E+02 -0.23921620706E+03  0.28211344309E+03  0.12509000000E+03 0.  0.
         25    1    3    3    0    0  0.11354821760E+03 -0.24024941806E+02 -0.35457653984E+03  0.39350022395E+03  0.12509000000E+03 0.  0.
<mgrwt>
<rscale>  2 0.45911632E+03</rscale>
<asrwt>0</asrwt>
<pdfrwt beam="1">  1       21 0.84012837E-02 0.45911632E+03</pdfrwt>
<pdfrwt beam="2">  1       21 0.13565069E+00 0.45911632E+03</pdfrwt>
<totfact> 0.38706032E+04</totfact>
</mgrwt>
</event>
<event>
 7    0  0.4784406E-002  0.4563376E+03  0.7546771E-02  0.1025849E+00
         21   -1    0    0  502  501  0.00000000000E+00  0.00000000000E+00  0.11546641555E+04  0.11546641555E+04  0.00000000000E+00 0. -1.
         21   -1    0    0  501  502 -0.00000000000E+00 -0.00000000000E+00 -0.45087562194E+02  0.45087562194E+02  0.00000000000E+00 0. -1.
      99926    2    1    2    0    0  0.00000000000E+00  0.00000000000E+00  0.11095765933E+04  0.11997517177E+04  0.45633755894E+03 0.  0.
      99925    2    3    3    0    0 -0.47075280247E+02  0.79390184942E+02  0.51935865868E+03  0.58940460176E+03  0.26295529041E+03 0.  0.
         25    1    4    4    0    0  0.17532890164E+02  0.39278208854E+02  0.24377639403E+03  0.27735287688E+03  0.12509000000E+03 0.  0.
         25    1    4    4    0    0 -0.64608170411E+02  0.40111976089E+02  0.27558226465E+03  0.31205172488E+03  0.12509000000E+03 0.  0.
         25    1    3    3    0    0  0.47075280247E+02 -0.79390184942E+02  0.59021793463E+03  0.61034711594E+03  0.12509000000E+03 0.  0.
<mgrwt>
<rscale>  2 0.45633756E+03</rscale>
<asrwt>0</asrwt>
<pdfrwt beam="1">  1       21 0.16980353E+00 0.45633756E+03</pdfrwt>
<pdfrwt beam="2">  1       21 0.66305246E-02 0.45633756E+03</pdfrwt>
<totfact> 0.31830860E+04</totfact>
</mgrwt>
</event>
<event>
 7    0  0.4784406E-002  0.4386717E+03  0.7546771E-02  0.1031155E+00
         21   -1    0    0  502  501  0.00000000000E+00  0.00000000000E+00  0.72171343858E+03  0.72171343858E+03  0.00000000000E+00 0. -1.
         21   -1    0    0  501  502 -0.00000000000E+00 -0.00000000000E+00 -0.66658345978E+02  0.66658345978E+02  0.00000000000E+00 0. -1.
      99926    2    1    2    0    0  0.00000000000E+00  0.00000000000E+00  0.65505509260E+03  0.78837178456E+03  0.43867174099E+03 0.  0.
      99925    2    3    3    0    0 -0.83775882771E+02 -0.36656118996E+02  0.35948694683E+03  0.45465018428E+03  0.26289514171E+03 0.  0.
         25    1    4    4    0    0 -0.60179323818E+02  0.14011376990E+02  0.15541883945E+03  0.20885495794E+03  0.12509000000E+03 0.  0.
         25    1    4    4    0    0 -0.23596558954E+02 -0.50667495987E+02  0.20406810737E+03  0.24579522634E+03  0.12509000000E+03 0.  0.
         25    1    3    3    0    0  0.83775882771E+02  0.36656118996E+02  0.29556814577E+03  0.33372160027E+03  0.12509000000E+03 0.  0.
<mgrwt>
<rscale>  2 0.43867174E+03</rscale>
<asrwt>0</asrwt>
<pdfrwt beam="1">  1       21 0.10613432E+00 0.43867174E+03</pdfrwt>
<pdfrwt beam="2">  1       21 0.98026984E-02 0.43867174E+03</pdfrwt>
<totfact> 0.55056399E+04</totfact>
</mgrwt>
</event>
<event>
 7    0  0.4784406E-002  0.4616488E+03  0.7546771E-02  0.1024304E+00
         21   -1    0    0  502  501  0.00000000000E+00  0.00000000000E+00  0.68525461033E+02  0.68525461033E+02  0.00000000000E+00 0.  1.
         21   -1    0    0  501  502 -0.00000000000E+00 -0.00000000000E+00 -0.77751985716E+03  0.77751985716E+03  0.00000000000E+00 0.  1.
      99926    2    1    2    0    0  0.00000000000E+00  0.00000000000E+00 -0.70899439612E+03  0.84604531819E+03  0.46164881316E+03 0.  0.
      99925    2    3    3    0    0  0.11033301601E+03  0.41434720168E+02 -0.48130945647E+03  0.56077675998E+03  0.26252918160E+03 0.  0.
         25    1    3    3    0    0 -0.11033301601E+03 -0.41434720168E+02 -0.22768493966E+03  0.28526855821E+03  0.12509000000E+03 0.  0.
         25    1    4    4    0    0  0.47575480710E+02  0.13076105267E+02 -0.30898936088E+03  0.33698122222E+03  0.12509000000E+03 0.  0.
         25    1    4    4    0    0  0.62757535300E+02  0.28358614900E+02 -0.17232009558E+03  0.22379553775E+03  0.12509000000E+03 0.  0.
<mgrwt>
<rscale>  2 0.46164881E+03</rscale>
<asrwt>0</asrwt>
<pdfrwt beam="1">  1       21 0.10077273E-01 0.46164881E+03</pdfrwt>
<pdfrwt beam="2">  1       21 0.11434117E+00 0.46164881E+03</pdfrwt>
<totfact> 0.43313009E+04</totfact>
</mgrwt>
</event>
<event>
 7    0  0.4784406E-002  0.4443231E+03  0.7546771E-02  0.1029429E+00
         21   -1    0    0  502  501  0.00000000000E+00  0.00000000000E+00  0.95435185239E+03  0.95435185239E+03  0.00000000000E+00 0. -1.
         21   -1    0    0  501  502 -0.00000000000E+00 -0.00000000000E+00 -0.51716518155E+02  0.51716518155E+02  0.00000000000E+00 0. -1.
      99926    2    1    2    0    0  0.00000000000E+00  0.71054273576E-14  0.90263533424E+03  0.10060683705E+04  0.44432310271E+03 0.  0.
      99925    2    3    3    0    0 -0.70684947766E+02  0.46250204470E+02  0.44009952536E+03  0.51952718437E+03  0.26284113038E+03 0.  0.
         25    1    4    4    0    0 -0.51298549749E+02  0.19746933556E+02  0.15600224475E+03  0.20737813544E+03  0.12509000000E+03 0.  0.
         25    1    4    4    0    0 -0.19386398018E+02  0.26503270915E+02  0.28409728061E+03  0.31214904893E+03  0.12509000000E+03 0.  0.
         25    1    3    3    0    0  0.70684947766E+02 -0.46250204470E+02  0.46253580888E+03  0.48654118618E+03  0.12509000000E+03 0.  0.
<mgrwt>
<rscale>  2 0.44432310E+03</rscale>
<asrwt>0</asrwt>
<pdfrwt beam="1">  1       21 0.14034585E+00 0.44432310E+03</pdfrwt>
<pdfrwt beam="2">  1       21 0.76053709E-02 0.44432310E+03</pdfrwt>
<totfact> 0.42354278E+04</totfact>
</mgrwt>
</event>
<event>
 7    0  0.4784406E-002  0.4580059E+03  0.7546771E-02  0.1025361E+00
         21   -1    0    0  502  501  0.00000000000E+00  0.00000000000E+00  0.35029945708E+03  0.35029945708E+03  0.00000000000E+00 0. -1.
         21   -1    0    0  501  502 -0.00000000000E+00 -0.00000000000E+00 -0.14970720816E+03  0.14970720816E+03  0.00000000000E+00 0. -1.
      99926    2    1    2    0    0  0.00000000000E+00  0.00000000000E+00  0.20059224892E+03  0.50000666524E+03  0.45800591149E+03 0.  0.
      99925    2    3    3    0    0  0.33121833696E+02 -0.18499420579E+02  0.43999372674E+01  0.26425634036E+03  0.26148187231E+03 0.  0.
         25    1    4    4    0    0  0.31440540805E+02 -0.39365853382E+02 -0.15987155273E+02  0.13579865703E+03  0.12509000000E+03 0.  0.
         25    1    4    4    0    0  0.16812928900E+01  0.20866432803E+02  0.20387092541E+02  0.12845768333E+03  0.12509000000E+03 0.  0.
         25    1    3    3    0    0 -0.33121833696E+02  0.18499420579E+02  0.19619231165E+03  0.23575032488E+03  0.12509000000E+03 0.  0.
<mgrwt>
<rscale>  2 0.45800591E+03</rscale>
<asrwt>0</asrwt>
<pdfrwt beam="1">  1       21 0.51514626E-01 0.45800591E+03</pdfrwt>
<pdfrwt beam="2">  1       21 0.22015766E-01 0.45800591E+03</pdfrwt>
<totfact> 0.63735721E+04</totfact>
</mgrwt>
</event>
<event>
 7    0  0.4784406E-002  0.4470988E+03  0.7546771E-02  0.1028591E+00
         21   -1    0    0  502  501  0.00000000000E+00  0.00000000000E+00  0.49826238743E+03  0.49826238743E+03  0.00000000000E+00 0.  1.
         21   -1    0    0  501  502 -0.00000000000E+00 -0.00000000000E+00 -0.10029720853E+03  0.10029720853E+03  0.00000000000E+00 0.  1.
      99926    2    1    2    0    0 -0.14210854715E-13  0.00000000000E+00  0.39796517890E+03  0.59855959597E+03  0.44709876572E+03 0.  0.
      99925    2    3    3    0    0  0.10506211577E+03 -0.83168289919E+01  0.24307845370E+03  0.37329392269E+03  0.26297148181E+03 0.  0.
         25    1    4    4    0    0  0.76672515964E+02  0.16452967897E+02  0.16363875096E+03  0.22039628802E+03  0.12509000000E+03 0.  0.
         25    1    4    4    0    0  0.28389599806E+02 -0.24769796889E+02  0.79439702736E+02  0.15289763466E+03  0.12509000000E+03 0.  0.
         25    1    3    3    0    0 -0.10506211577E+03  0.83168289919E+01  0.15488672520E+03  0.22526567328E+03  0.12509000000E+03 0.  0.
<mgrwt>
<rscale>  2 0.44709877E+03</rscale>
<asrwt>0</asrwt>
<pdfrwt beam="1">  1       21 0.73273880E-01 0.44709877E+03</pdfrwt>
<pdfrwt beam="2">  1       21 0.14749590E-01 0.44709877E+03</pdfrwt>
<totfact> 0.62583545E+04</totfact>
</mgrwt>
</event>
<event>
 7    0  0.4784406E-002  0.4446605E+03  0.7546771E-02  0.1029326E+00
         21   -1    0    0  502  501  0.00000000000E+00  0.00000000000E+00  0.13317101344E+03  0.13317101344E+03  0.00000000000E+00 0. -1.
         21   -1    0    0  501  502 -0.00000000000E+00 -0.00000000000E+00 -0.37118241746E+03  0.37118241746E+03  0.00000000000E+00 0. -1.
      99926    2    1    2    0    0  0.00000000000E+00  0.35527136788E-14 -0.23801140402E+03  0.50435343090E+03  0.44466049389E+03 0.  0.
      99925    2    3    3    0    0  0.88467547874E+02 -0.26012375547E+02 -0.98260514474E+02  0.29535350283E+03  0.26282201624E+03 0.  0.
         25    1    3    3    0    0 -0.88467547874E+02  0.26012375547E+02 -0.13975088954E+03  0.20899992808E+03  0.12509000000E+03 0.  0.
         25    1    4    4    0    0  0.31410739640E+02 -0.12040906967E+02 -0.69593052348E+01  0.12972107784E+03  0.12509000000E+03 0.  0.
         25    1    4    4    0    0  0.57056808234E+02 -0.13971468580E+02 -0.91301209239E+02  0.16563242499E+03  0.12509000000E+03 0.  0.
<mgrwt>
<rscale>  2 0.44466049E+03</rscale>
<asrwt>0</asrwt>
<pdfrwt beam="1">  1       21 0.19583973E-01 0.44466049E+03</pdfrwt>
<pdfrwt beam="2">  1       21 0.54585648E-01 0.44466049E+03</pdfrwt>
<totfact> 0.70582199E+04</totfact>
</mgrwt>
</event>
<event>
 7    0  0.4784406E-002  0.4564395E+03  0.7546771E-02  0.1025819E+00
         21   -1    0    0  502  501  0.00000000000E+00  0.00000000000E+00  0.68529327668E+03  0.68529327668E+03  0.00000000000E+00 0.  1.
         21   -1    0    0  501  502 -0.00000000000E+00 -0.00000000000E+00 -0.76002856727E+02  0.76002856727E+02  0.00000000000E+00 0.  1.
      99926    2    1    2    0    0  0.00000000000E+00  0.00000000000E+00  0.60929041995E+03  0.76129613340E+03  0.45643946684E+03 0.  0.
      99925    2    3    3    0    0  0.52838610551E+02  0.10108908596E+03  0.36655791297E+03  0.46536117414E+03  0.26303117073E+03 0.  0.
         25    1    4    4    0    0  0.18928267135E+02  0.75685452746E+01  0.16924381495E+03  0.21143920917E+03  0.12509000000E+03 0.  0.
         25    1    3    3    0    0 -0.52838610551E+02 -0.10108908596E+03  0.24273250698E+03  0.29593495926E+03  0.12509000000E+03 0.  0.
         25    1    4    4    0    0  0.33910343416E+02  0.93520540688E+02  0.19731409802E+03  0.25392196498E+03  0.12509000000E+03 0.  0.
<mgrwt>
<rscale>  2 0.45643947E+03</rscale>
<asrwt>0</asrwt>
<pdfrwt beam="1">  1       21 0.10077842E+00 0.45643947E+03</pdfrwt>
<pdfrwt beam="2">  1       21 0.11176891E-01 0.45643947E+03</pdfrwt>
<totfact> 0.49135802E+04</totfact>
</mgrwt>
</event>
<event>
 7    0  0.4784406E-002  0.4553274E+03  0.7546771E-02  0.1026145E+00
         21   -1    0    0  502  501  0.00000000000E+00  0.00000000000E+00  0.71288113310E+02  0.71288113310E+02  0.00000000000E+00 0.  1.
         21   -1    0    0  501  502 -0.00000000000E+00 -0.00000000000E+00 -0.72706045638E+03  0.72706045638E+03  0.00000000000E+00 0.  1.
      99926    2    1    2    0    0  0.00000000000E+00 -0.35527136788E-14 -0.65577234307E+03  0.79834856969E+03  0.45532743470E+03 0.  0.
      99925    2    3    3    0    0 -0.81082526962E+02 -0.21008167318E+02 -0.54651831640E+03  0.61233870513E+03  0.26317427754E+03 0.  0.
         25    1    4    4    0    0 -0.91273720820E+01  0.65327993598E+01 -0.20280715325E+03  0.23854608758E+03  0.12509000000E+03 0.  0.
         25    1    4    4    0    0 -0.71955154880E+02 -0.27540966678E+02 -0.34371116315E+03  0.37379261755E+03  0.12509000000E+03 0.  0.
         25    1    3    3    0    0  0.81082526962E+02  0.21008167318E+02 -0.10925402667E+03  0.18600986457E+03  0.12509000000E+03 0.  0.
<mgrwt>
<rscale>  2 0.45532743E+03</rscale>
<asrwt>0</asrwt>
<pdfrwt beam="1">  1       21 0.10483546E-01 0.45532743E+03</pdfrwt>
<pdfrwt beam="2">  1       21 0.10692066E+00 0.45532743E+03</pdfrwt>
<totfact> 0.47722042E+04</totfact>
</mgrwt>
</event>
<event>
 7    0  0.4784406E-002  0.4548356E+03  0.7546771E-02  0.1026290E+00
         21   -1    0    0  502  501  0.00000000000E+00  0.00000000000E+00  0.17158727822E+03  0.17158727822E+03  0.00000000000E+00 0. -1.
         21   -1    0    0  501  502 -0.00000000000E+00 -0.00000000000E+00 -0.30141424168E+03  0.30141424168E+03  0.00000000000E+00 0. -1.
      99926    2    1    2    0    0  0.00000000000E+00  0.00000000000E+00 -0.12982696346E+03  0.47300151990E+03  0.45483557181E+03 0.  0.
      99925    2    3    3    0    0 -0.47063275027E+02  0.10215912938E+03 -0.69968545446E+02  0.29444626828E+03  0.26296685720E+03 0.  0.
         25    1    4    4    0    0 -0.14367528869E+02  0.90463640007E+02 -0.51201856532E+02  0.16327655760E+03  0.12509000000E+03 0.  0.
         25    1    4    4    0    0 -0.32695746158E+02  0.11695489369E+02 -0.18766688914E+02  0.13116971069E+03  0.12509000000E+03 0.  0.
         25    1    3    3    0    0  0.47063275027E+02 -0.10215912938E+03 -0.59858418017E+02  0.17855525161E+03  0.12509000000E+03 0.  0.
<mgrwt>
<rscale>  2 0.45483557E+03</rscale>
<asrwt>0</asrwt>
<pdfrwt beam="1">  1       21 0.25233423E-01 0.45483557E+03</pdfrwt>
<pdfrwt beam="2">  1       21 0.44325624E-01 0.45483557E+03</pdfrwt>
<totfact> 0.67300979E+04</totfact>
</mgrwt>
</event>
<event>
 7    0  0.4784406E-002  0.4565215E+03  0.7546771E-02  0.1025795E+00
         21   -1    0    0  502  501  0.00000000000E+00  0.00000000000E+00  0.43941515604E+03  0.43941515604E+03  0.00000000000E+00 0. -1.
         21   -1    0    0  501  502 -0.00000000000E+00 -0.00000000000E+00 -0.11857345135E+03  0.11857345135E+03  0.00000000000E+00 0. -1.
      99926    2    1    2    0    0  0.14210854715E-13  0.71054273576E-14  0.32084170469E+03  0.55798860739E+03  0.45652150718E+03 0.  0.
      99925    2    3    3    0    0 -0.98801266216E+02 -0.57610657395E+02  0.19090382037E+03  0.34441885314E+03  0.26286764676E+03 0.  0.
         25    1    4    4    0    0 -0.60425537435E+02  0.30914607120E+00  0.63165397725E+02  0.15260641112E+03  0.12509000000E+03 0.  0.
         25    1    3    3    0    0  0.98801266216E+02  0.57610657395E+02  0.12993788432E+03  0.21356975426E+03  0.12509000000E+03 0.  0.
         25    1    4    4    0    0 -0.38375728781E+02 -0.57919803466E+02  0.12773842264E+03  0.19181244202E+03  0.12509000000E+03 0.  0.
<mgrwt>
<rscale>  2 0.45652151E+03</rscale>
<asrwt>0</asrwt>
<pdfrwt beam="1">  1       21 0.64619875E-01 0.45652151E+03</pdfrwt>
<pdfrwt beam="2">  1       21 0.17437272E-01 0.45652151E+03</pdfrwt>
<totfact> 0.60608920E+04</totfact>
</mgrwt>
</event>
<event>
 7    0  0.4784406E-002  0.4599627E+03  0.7546771E-02  0.1024792E+00
         21   -1    0    0  502  501  0.00000000000E+00  0.00000000000E+00  0.17020264391E+04  0.17020264391E+04  0.00000000000E+00 0. -1.
         21   -1    0    0  501  502 -0.00000000000E+00 -0.00000000000E+00 -0.31075551319E+02  0.31075551319E+02  0.00000000000E+00 0. -1.
      99926    2    1    2    0    0  0.00000000000E+00  0.00000000000E+00  0.16709508877E+04  0.17331019904E+04  0.45996265045E+03 0.  0.
      99925    2    3    3    0    0  0.10315121722E+03  0.12346342763E+02  0.83716946005E+03  0.88361297747E+03  0.26291934755E+03 0.  0.
         25    1    4    4    0    0  0.87315512330E+02 -0.56840899508E+01  0.51603709859E+03  0.53814319915E+03  0.12509000000E+03 0.  0.
         25    1    3    3    0    0 -0.10315121722E+03 -0.12346342763E+02  0.83378142769E+03  0.84948901291E+03  0.12509000000E+03 0.  0.
         25    1    4    4    0    0  0.15835704887E+02  0.18030432713E+02  0.32113236147E+03  0.34546977832E+03  0.12509000000E+03 0.  0.
<mgrwt>
<rscale>  2 0.45996265E+03</rscale>
<asrwt>0</asrwt>
<pdfrwt beam="1">  1       21 0.25029794E+00 0.45996265E+03</pdfrwt>
<pdfrwt beam="2">  1       21 0.45699352E-02 0.45996265E+03</pdfrwt>
<totfact> 0.17882108E+04</totfact>
</mgrwt>
</event>
<event>
 7    0  0.4784406E-002  0.5141221E+03  0.7546771E-02  0.1010157E+00
         21   -1    0    0  502  501  0.00000000000E+00  0.00000000000E+00  0.57614933363E+02  0.57614933363E+02  0.00000000000E+00 0. -1.
         21   -1    0    0  501  502 -0.00000000000E+00 -0.00000000000E+00 -0.11469313918E+04  0.11469313918E+04  0.00000000000E+00 0. -1.
      99926    2    1    2    0    0  0.28421709430E-13  0.00000000000E+00 -0.10893164584E+04  0.12045463251E+04  0.51412206998E+03 0.  0.
      99925    2    3    3    0    0  0.13964760394E+03  0.14562892459E+02 -0.84619009059E+03  0.89718420979E+03  0.26303670039E+03 0.  0.
         25    1    4    4    0    0  0.24577868388E+02  0.13512233212E+01 -0.37823457412E+03  0.39914257926E+03  0.12509000000E+03 0.  0.
         25    1    4    4    0    0  0.11506973555E+03  0.13211669137E+02 -0.46795551647E+03  0.49804163053E+03  0.12509000000E+03 0.  0.
         25    1    3    3    0    0 -0.13964760394E+03 -0.14562892459E+02 -0.24312636781E+03  0.30736211534E+03  0.12509000000E+03 0.  0.
<mgrwt>
<rscale>  2 0.51412207E+03</rscale>
<asrwt>0</asrwt>
<pdfrwt beam="1">  1       21 0.84727846E-02 0.51412207E+03</pdfrwt>
<pdfrwt beam="2">  1       21 0.16866638E+00 0.51412207E+03</pdfrwt>
<totfact> 0.20706316E+04</totfact>
</mgrwt>
</event>
<event>
 7    0  0.4784406E-002  0.4569214E+03  0.7546771E-02  0.1025678E+00
         21   -1    0    0  502  501  0.00000000000E+00  0.00000000000E+00  0.49836113615E+03  0.49836113615E+03  0.00000000000E+00 0.  1.
         21   -1    0    0  501  502 -0.00000000000E+00 -0.00000000000E+00 -0.10473185059E+03  0.10473185059E+03  0.00000000000E+00 0.  1.
      99926    2    1    2    0    0  0.71054273576E-14  0.00000000000E+00  0.39362928556E+03  0.60309298673E+03  0.45692136763E+03 0.  0.
      99925    2    3    3    0    0 -0.40772914665E+02  0.71160728817E+02  0.35355699742E+03  0.44823958421E+03  0.26303972044E+03 0.  0.
         25    1    4    4    0    0 -0.98268631844E+01  0.34718318957E+01  0.12412973767E+03  0.17653419139E+03  0.12509000000E+03 0.  0.
         25    1    4    4    0    0 -0.30946051481E+02  0.67688896922E+02  0.22942725976E+03  0.27170539282E+03  0.12509000000E+03 0.  0.
         25    1    3    3    0    0  0.40772914665E+02 -0.71160728817E+02  0.40072288135E+02  0.15485340252E+03  0.12509000000E+03 0.  0.
<mgrwt>
<rscale>  2 0.45692137E+03</rscale>
<asrwt>0</asrwt>
<pdfrwt beam="1">  1       21 0.73288401E-01 0.45692137E+03</pdfrwt>
<pdfrwt beam="2">  1       21 0.15401743E-01 0.45692137E+03</pdfrwt>
<totfact> 0.57608795E+04</totfact>
</mgrwt>
</event>
<event>
 7    0  0.4784406E-002  0.4404919E+03  0.7546771E-02  0.1030596E+00
         21   -1    0    0  502  501  0.00000000000E+00  0.00000000000E+00  0.45935084041E+02  0.45935084041E+02  0.00000000000E+00 0. -1.
         21   -1    0    0  501  502 -0.00000000000E+00 -0.00000000000E+00 -0.10560182727E+04  0.10560182727E+04  0.00000000000E+00 0. -1.
      99926    2    1    2    0    0  0.00000000000E+00  0.00000000000E+00 -0.10100831887E+04  0.11019533568E+04  0.44049194366E+03 0.  0.
      99925    2    3    3    0    0  0.37318732466E+02 -0.65311954335E+02 -0.48299284900E+03  0.55502550645E+03  0.26289328908E+03 0.  0.
         25    1    3    3    0    0 -0.37318732466E+02  0.65311954335E+02 -0.52709033967E+03  0.54692785031E+03  0.12509000000E+03 0.  0.
         25    1    4    4    0    0 -0.13372421301E+02 -0.57260314170E+02 -0.24161261206E+03  0.27835539807E+03  0.12509000000E+03 0.  0.
         25    1    4    4    0    0  0.50691153767E+02 -0.80516401651E+01 -0.24138023694E+03  0.27667010837E+03  0.12509000000E+03 0.  0.
<mgrwt>
<rscale>  2 0.44049194E+03</rscale>
<asrwt>0</asrwt>
<pdfrwt beam="1">  1       21 0.67551600E-02 0.44049194E+03</pdfrwt>
<pdfrwt beam="2">  1       21 0.15529679E+00 0.44049194E+03</pdfrwt>
<totfact> 0.39736081E+04</totfact>
</mgrwt>
</event>
<event>
 7    0  0.4784406E-002  0.4535898E+03  0.7546771E-02  0.1026657E+00
         21   -1    0    0  502  501  0.00000000000E+00  0.00000000000E+00  0.40276762522E+03  0.40276762522E+03  0.00000000000E+00 0.  1.
         21   -1    0    0  501  502 -0.00000000000E+00 -0.00000000000E+00 -0.12770621371E+03  0.12770621371E+03  0.00000000000E+00 0.  1.
      99926    2    1    2    0    0  0.00000000000E+00  0.00000000000E+00  0.27506141151E+03  0.53047383893E+03  0.45358980775E+03 0.  0.
      99925    2    3    3    0    0  0.80718419926E+02 -0.51281485508E+02  0.10545456879E+03  0.29904513876E+03  0.26298683401E+03 0.  0.
         25    1    4    4    0    0  0.17889417828E+02  0.80577827377E+01  0.34325460014E+02  0.13118957443E+03  0.12509000000E+03 0.  0.
         25    1    3    3    0    0 -0.80718419926E+02  0.51281485508E+02  0.16960684271E+03  0.23142870018E+03  0.12509000000E+03 0.  0.
         25    1    4    4    0    0  0.62829002098E+02 -0.59339268246E+02  0.71129108779E+02  0.16785556433E+03  0.12509000000E+03 0.  0.
<mgrwt>
<rscale>  2 0.45358981E+03</rscale>
<asrwt>0</asrwt>
<pdfrwt beam="1">  1       21 0.59230533E-01 0.45358981E+03</pdfrwt>
<pdfrwt beam="2">  1       21 0.18780326E-01 0.45358981E+03</pdfrwt>
<totfact> 0.63885496E+04</totfact>
</mgrwt>
</event>
<event>
 7    0  0.4784406E-002  0.4574911E+03  0.7546771E-02  0.1025511E+00
         21   -1    0    0  502  501  0.00000000000E+00  0.00000000000E+00  0.38085174997E+03  0.38085174997E+03  0.00000000000E+00 0.  1.
         21   -1    0    0  501  502 -0.00000000000E+00 -0.00000000000E+00 -0.13738819725E+03  0.13738819725E+03  0.00000000000E+00 0.  1.
      99926    2    1    2    0    0  0.00000000000E+00  0.00000000000E+00  0.24346355271E+03  0.51823994722E+03  0.45749113805E+03 0.  0.
      99925    2    3    3    0    0  0.33052179610E+02  0.55047816407E+02  0.44030202963E+02  0.27422380480E+03  0.26293977957E+03 0.  0.
         25    1    3    3    0    0 -0.33052179610E+02 -0.55047816407E+02  0.19943334975E+03  0.24401614242E+03  0.12509000000E+03 0.  0.
         25    1    4    4    0    0  0.25142917276E+01 -0.11547880820E+02  0.17734124998E+02  0.12689240523E+03  0.12509000000E+03 0.  0.
         25    1    4    4    0    0  0.30537887882E+02  0.66595697227E+02  0.26296077964E+02  0.14733139958E+03  0.12509000000E+03 0.  0.
<mgrwt>
<rscale>  2 0.45749114E+03</rscale>
<asrwt>0</asrwt>
<pdfrwt beam="1">  1       21 0.56007610E-01 0.45749114E+03</pdfrwt>
<pdfrwt beam="2">  1       21 0.20204147E-01 0.45749114E+03</pdfrwt>
<totfact> 0.62757658E+04</totfact>
</mgrwt>
</event>
<event>
 7    0  0.4784406E-002  0.4552194E+03  0.7546771E-02  0.1026177E+00
         21   -1    0    0  502  501  0.00000000000E+00  0.00000000000E+00  0.32392589235E+03  0.32392589235E+03  0.00000000000E+00 0. -1.
         21   -1    0    0  501  502 -0.00000000000E+00 -0.00000000000E+00 -0.15993218236E+03  0.15993218236E+03  0.00000000000E+00 0. -1.
      99926    2    1    2    0    0  0.00000000000E+00  0.00000000000E+00  0.16399370999E+03  0.48385807471E+03  0.45521939716E+03 0.  0.
      99925    2    3    3    0    0  0.35234831153E+02 -0.10282697094E+03  0.13747594542E+03  0.31603203616E+03  0.26298618411E+03 0.  0.
         25    1    3    3    0    0 -0.35234831153E+02  0.10282697094E+03  0.26517764570E+02  0.16782603855E+03  0.12509000000E+03 0.  0.
         25    1    4    4    0    0  0.13920636900E+02 -0.31696774916E+02  0.25062963205E+02  0.13218974959E+03  0.12509000000E+03 0.  0.
         25    1    4    4    0    0  0.21314194252E+02 -0.71130196021E+02  0.11241298221E+03  0.18384228657E+03  0.12509000000E+03 0.  0.
<mgrwt>
<rscale>  2 0.45521940E+03</rscale>
<asrwt>0</asrwt>
<pdfrwt beam="1">  1       21 0.47636161E-01 0.45521940E+03</pdfrwt>
<pdfrwt beam="2">  1       21 0.23519439E-01 0.45521940E+03</pdfrwt>
<totfact> 0.66304766E+04</totfact>
</mgrwt>
</event>
<event>
 7    0  0.4784406E-002  0.4581862E+03  0.7546771E-02  0.1025309E+00
         21   -1    0    0  502  501  0.00000000000E+00  0.00000000000E+00  0.13421184131E+03  0.13421184131E+03  0.00000000000E+00 0.  1.
         21   -1    0    0  501  502 -0.00000000000E+00 -0.00000000000E+00 -0.39105076134E+03  0.39105076134E+03  0.00000000000E+00 0.  1.
      99926    2    1    2    0    0  0.00000000000E+00  0.17763568394E-14 -0.25683892003E+03  0.52526260265E+03  0.45818617493E+03 0.  0.
      99925    2    3    3    0    0 -0.11089110583E+03  0.14632891985E+02 -0.12624564782E+03  0.31262895120E+03  0.26322602200E+03 0.  0.
         25    1    4    4    0    0 -0.71760867859E+02 -0.12652764018E+01 -0.25272660311E+02  0.14641529476E+03  0.12509000000E+03 0.  0.
         25    1    4    4    0    0 -0.39130237975E+02  0.15898168387E+02 -0.10097298751E+03  0.16621365644E+03  0.12509000000E+03 0.  0.
         25    1    3    3    0    0  0.11089110583E+03 -0.14632891985E+02 -0.13059327222E+03  0.21263365145E+03  0.12509000000E+03 0.  0.
<mgrwt>
<rscale>  2 0.45818617E+03</rscale>
<asrwt>0</asrwt>
<pdfrwt beam="1">  1       21 0.19737036E-01 0.45818617E+03</pdfrwt>
<pdfrwt beam="2">  1       21 0.57507464E-01 0.45818617E+03</pdfrwt>
<totfact> 0.61948723E+04</totfact>
</mgrwt>
</event>
<event>
 7    0  0.4784406E-002  0.4596471E+03  0.7546771E-02  0.1024884E+00
         21   -1    0    0  502  501  0.00000000000E+00  0.00000000000E+00  0.22060130074E+03  0.22060130074E+03  0.00000000000E+00 0. -1.
         21   -1    0    0  501  502 -0.00000000000E+00 -0.00000000000E+00 -0.23943132759E+03  0.23943132759E+03  0.00000000000E+00 0. -1.
      99926    2    1    2    0    0  0.14210854715E-13 -0.14210854715E-13 -0.18830026843E+02  0.46003262833E+03  0.45964709204E+03 0.  0.
      99925    2    3    3    0    0  0.91837760089E+02 -0.69317074938E+02 -0.31435501251E+02  0.28960540885E+03  0.26390163137E+03 0.  0.
         25    1    4    4    0    0  0.81814579537E+02 -0.23499010524E+02 -0.37468209683E+02  0.15587560347E+03  0.12509000000E+03 0.  0.
         25    1    4    4    0    0  0.10023180551E+02 -0.45818064413E+02  0.60327084323E+01  0.13372980538E+03  0.12509000000E+03 0.  0.
         25    1    3    3    0    0 -0.91837760089E+02  0.69317074938E+02  0.12605474408E+02  0.17042721948E+03  0.12509000000E+03 0.  0.
<mgrwt>
<rscale>  2 0.45964709E+03</rscale>
<asrwt>0</asrwt>
<pdfrwt beam="1">  1       21 0.32441368E-01 0.45964709E+03</pdfrwt>
<pdfrwt beam="2">  1       21 0.35210489E-01 0.45964709E+03</pdfrwt>
<totfact> 0.65708305E+04</totfact>
</mgrwt>
</event>
<event>
 7    0  0.4784406E-002  0.4569397E+03  0.7546771E-02  0.1025673E+00
         21   -1    0    0  502  501  0.00000000000E+00  0.00000000000E+00  0.79468347184E+03  0.79468347184E+03  0.00000000000E+00 0.  1.
         21   -1    0    0  501  502 -0.00000000000E+00 -0.00000000000E+00 -0.65684620708E+02  0.65684620708E+02  0.00000000000E+00 0.  1.
      99926    2    1    2    0    0  0.00000000000E+00  0.00000000000E+00  0.72899885113E+03  0.86036809255E+03  0.45693974408E+03 0.  0.
      99925    2    3    3    0    0  0.80255047172E+01 -0.55993439971E+02  0.26950508407E+03  0.38080401538E+03  0.26301907486E+03 0.  0.
         25    1    3    3    0    0 -0.80255047172E+01  0.55993439971E+02  0.45949376706E+03  0.47956407717E+03  0.12509000000E+03 0.  0.
         25    1    4    4    0    0  0.17827590068E+02 -0.20585784665E+02  0.80606650608E+02  0.15128297234E+03  0.12509000000E+03 0.  0.
         25    1    4    4    0    0 -0.98020853513E+01 -0.35407655306E+02  0.18889843346E+03  0.22952104304E+03  0.12509000000E+03 0.  0.
<mgrwt>
<rscale>  2 0.45693974E+03</rscale>
<asrwt>0</asrwt>
<pdfrwt beam="1">  1       21 0.11686521E+00 0.45693974E+03</pdfrwt>
<pdfrwt beam="2">  1       21 0.96595035E-02 0.45693974E+03</pdfrwt>
<totfact> 0.44301172E+04</totfact>
</mgrwt>
</event>
<event>
 7    0  0.4784406E-002  0.4508500E+03  0.7546771E-02  0.1027469E+00
         21   -1    0    0  502  501  0.00000000000E+00  0.00000000000E+00  0.28353935568E+03  0.28353935568E+03  0.00000000000E+00 0.  1.
         21   -1    0    0  501  502 -0.00000000000E+00 -0.00000000000E+00 -0.17922175260E+03  0.17922175260E+03  0.00000000000E+00 0.  1.
      99926    2    1    2    0    0  0.17763568394E-14  0.00000000000E+00  0.10431760307E+03  0.46276110828E+03  0.45084995400E+03 0.  0.
      99925    2    3    3    0    0 -0.52713002562E+01 -0.37155822109E+02  0.17121749654E+03  0.31602513597E+03  0.26296028924E+03 0.  0.
         25    1    4    4    0    0 -0.37000383383E+02 -0.28602161136E+02  0.10960244395E+03  0.17276375723E+03  0.12509000000E+03 0.  0.
         25    1    3    3    0    0  0.52713002562E+01  0.37155822109E+02 -0.66899893469E+02  0.14673597231E+03  0.12509000000E+03 0.  0.
         25    1    4    4    0    0  0.31729083126E+02 -0.85536609731E+01  0.61615052590E+02  0.14326137874E+03  0.12509000000E+03 0.  0.
<mgrwt>
<rscale>  2 0.45084995E+03</rscale>
<asrwt>0</asrwt>
<pdfrwt beam="1">  1       21 0.41696964E-01 0.45084995E+03</pdfrwt>
<pdfrwt beam="2">  1       21 0.26356140E-01 0.45084995E+03</pdfrwt>
<totfact> 0.70262824E+04</totfact>
</mgrwt>
</event>
<event>
 7    0  0.4784406E-002  0.3973928E+03  0.7546771E-02  0.1044686E+00
         21   -1    0    0  502  501  0.00000000000E+00  0.00000000000E+00  0.92549629105E+02  0.92549629105E+02  0.00000000000E+00 0. -1.
         21   -1    0    0  501  502 -0.00000000000E+00 -0.00000000000E+00 -0.42658476768E+03  0.42658476768E+03  0.00000000000E+00 0. -1.
      99926    2    1    2    0    0  0.00000000000E+00  0.00000000000E+00 -0.33403513857E+03  0.51913439678E+03  0.39739281337E+03 0.  0.
      99925    2    3    3    0    0  0.39218995169E+02 -0.47227730103E+01 -0.21445638544E+03  0.34163222647E+03  0.26298403513E+03 0.  0.
         25    1    4    4    0    0 -0.39349513200E+01 -0.15151345513E+02 -0.65324313100E+02  0.14198528478E+03  0.12509000000E+03 0.  0.
         25    1    3    3    0    0 -0.39218995169E+02  0.47227730103E+01 -0.11957875313E+03  0.17750217032E+03  0.12509000000E+03 0.  0.
         25    1    4    4    0    0  0.43153946489E+02  0.10428572503E+02 -0.14913207234E+03  0.19964694168E+03  0.12509000000E+03 0.  0.
<mgrwt>
<rscale>  2 0.39739281E+03</rscale>
<asrwt>0</asrwt>
<pdfrwt beam="1">  1       21 0.13610240E-01 0.39739281E+03</pdfrwt>
<pdfrwt beam="2">  1       21 0.62733053E-01 0.39739281E+03</pdfrwt>
<totfact> 0.10380482E+05</totfact>
</mgrwt>
</event>
<event>
 7    0  0.4784406E-002  0.4532997E+03  0.7546771E-02  0.1026743E+00
         21   -1    0    0  502  501  0.00000000000E+00  0.00000000000E+00  0.48320957087E+02  0.48320957087E+02  0.00000000000E+00 0. -1.
         21   -1    0    0  501  502 -0.00000000000E+00 -0.00000000000E+00 -0.10631032265E+04  0.10631032265E+04  0.00000000000E+00 0. -1.
      99926    2    1    2    0    0 -0.71054273576E-14  0.00000000000E+00 -0.10147822694E+04  0.11114241836E+04  0.45329974801E+03 0.  0.
      99925    2    3    3    0    0  0.35807168860E+02  0.97751290458E+02 -0.73751099498E+03  0.78992093966E+03  0.26308773265E+03 0.  0.
         25    1    4    4    0    0  0.56031646870E+02  0.38071589121E+02 -0.34556308674E+03  0.37369820225E+03  0.12509000000E+03 0.  0.
         25    1    3    3    0    0 -0.35807168860E+02 -0.97751290458E+02 -0.27727127442E+03  0.32150324391E+03  0.12509000000E+03 0.  0.
         25    1    4    4    0    0 -0.20224478010E+02  0.59679701337E+02 -0.39194790825E+03  0.41622273741E+03  0.12509000000E+03 0.  0.
<mgrwt>
<rscale>  2 0.45329975E+03</rscale>
<asrwt>0</asrwt>
<pdfrwt beam="1">  1       21 0.71060228E-02 0.45329975E+03</pdfrwt>
<pdfrwt beam="2">  1       21 0.15633872E+00 0.45329975E+03</pdfrwt>
<totfact> 0.35565820E+04</totfact>
</mgrwt>
</event>
<event>
 7    0  0.4784406E-002  0.4527821E+03  0.7546771E-02  0.1026896E+00
         21   -1    0    0  502  501  0.00000000000E+00  0.00000000000E+00  0.50093109950E+03  0.50093109950E+03  0.00000000000E+00 0. -1.
         21   -1    0    0  501  502 -0.00000000000E+00 -0.00000000000E+00 -0.10231527836E+03  0.10231527836E+03  0.00000000000E+00 0. -1.
      99926    2    1    2    0    0  0.00000000000E+00 -0.14210854715E-13  0.39861582114E+03  0.60324637786E+03  0.45278208835E+03 0.  0.
      99925    2    3    3    0    0 -0.69575991469E+02  0.79048331056E+02  0.29907378132E+03  0.41181601709E+03  0.26278859950E+03 0.  0.
         25    1    3    3    0    0  0.69575991469E+02 -0.79048331056E+02  0.99542039827E+02  0.19143036077E+03  0.12509000000E+03 0.  0.
         25    1    4    4    0    0 -0.51347401185E+02  0.78547306273E+01  0.11679614648E+03  0.17884937890E+03  0.12509000000E+03 0.  0.
         25    1    4    4    0    0 -0.18228590284E+02  0.71193600429E+02  0.18227763483E+03  0.23296663818E+03  0.12509000000E+03 0.  0.
<mgrwt>
<rscale>  2 0.45278209E+03</rscale>
<asrwt>0</asrwt>
<pdfrwt beam="1">  1       21 0.73666337E-01 0.45278209E+03</pdfrwt>
<pdfrwt beam="2">  1       21 0.15046365E-01 0.45278209E+03</pdfrwt>
<totfact> 0.59514899E+04</totfact>
</mgrwt>
</event>
<event>
 7    0  0.4784406E-002  0.4452999E+03  0.7546771E-02  0.1029133E+00
         21   -1    0    0  502  501  0.00000000000E+00  0.00000000000E+00  0.44831267870E+02  0.44831267870E+02  0.00000000000E+00 0.  1.
         21   -1    0    0  501  502 -0.00000000000E+00 -0.00000000000E+00 -0.11057682081E+04  0.11057682081E+04  0.00000000000E+00 0.  1.
      99926    2    1    2    0    0 -0.13322676296E-14  0.00000000000E+00 -0.10609369402E+04  0.11505994760E+04  0.44529985735E+03 0.  0.
      99925    2    3    3    0    0 -0.21426518070E+01 -0.85063081591E+02 -0.82741939376E+03  0.87235808542E+03  0.26295523804E+03 0.  0.
         25    1    4    4    0    0  0.11777491442E+02 -0.52227425471E+01 -0.42542037625E+03  0.44361694171E+03  0.12509000000E+03 0.  0.
         25    1    3    3    0    0  0.21426518070E+01  0.85063081591E+02 -0.23351754645E+03  0.27824139053E+03  0.12509000000E+03 0.  0.
         25    1    4    4    0    0 -0.13920143249E+02 -0.79840339043E+02 -0.40199901751E+03  0.42874114371E+03  0.12509000000E+03 0.  0.
<mgrwt>
<rscale>  2 0.44529986E+03</rscale>
<asrwt>0</asrwt>
<pdfrwt beam="1">  1       21 0.65928349E-02 0.44529986E+03</pdfrwt>
<pdfrwt beam="2">  1       21 0.16261294E+00 0.44529986E+03</pdfrwt>
<totfact> 0.36440251E+04</totfact>
</mgrwt>
</event>
<event>
 7    0  0.4784406E-002  0.4559667E+03  0.7546771E-02  0.1025958E+00
         21   -1    0    0  502  501  0.00000000000E+00  0.00000000000E+00  0.72479215597E+03  0.72479215597E+03  0.00000000000E+00 0.  1.
         21   -1    0    0  501  502 -0.00000000000E+00 -0.00000000000E+00 -0.71712167552E+02  0.71712167552E+02  0.00000000000E+00 0.  1.
      99926    2    1    2    0    0  0.00000000000E+00  0.00000000000E+00  0.65307998842E+03  0.79650432352E+03  0.45596673795E+03 0.  0.
      99925    2    3    3    0    0 -0.28649733378E+02  0.52631327612E+02  0.24098810039E+03  0.36169620935E+03  0.26297912362E+03 0.  0.
         25    1    3    3    0    0  0.28649733378E+02 -0.52631327612E+02  0.41209188803E+03  0.43480811417E+03  0.12509000000E+03 0.  0.
         25    1    4    4    0    0  0.81684863258E+01  0.29007491092E+01  0.14810134902E+03  0.19405323032E+03  0.12509000000E+03 0.  0.
         25    1    4    4    0    0 -0.36818219703E+02  0.49730578503E+02  0.92886751365E+02  0.16764297903E+03  0.12509000000E+03 0.  0.
<mgrwt>
<rscale>  2 0.45596674E+03</rscale>
<asrwt>0</asrwt>
<pdfrwt beam="1">  1       21 0.10658708E+00 0.45596674E+03</pdfrwt>
<pdfrwt beam="2">  1       21 0.10545907E-01 0.45596674E+03</pdfrwt>
<totfact> 0.47572401E+04</totfact>
</mgrwt>
</event>
<event>
 7    0  0.4784406E-002  0.4520614E+03  0.7546771E-02  0.1027109E+00
         21   -1    0    0  502  501  0.00000000000E+00  0.00000000000E+00  0.31882811423E+03  0.31882811423E+03  0.00000000000E+00 0.  1.
         21   -1    0    0  501  502 -0.00000000000E+00 -0.00000000000E+00 -0.16024267868E+03  0.16024267868E+03  0.00000000000E+00 0.  1.
      99926    2    1    2    0    0  0.00000000000E+00  0.00000000000E+00  0.15858543555E+03  0.47907079291E+03  0.45206137221E+03 0.  0.
      99925    2    3    3    0    0  0.64518401549E+02 -0.51789844913E+02  0.17762896194E+03  0.32789216951E+03  0.26290000862E+03 0.  0.
         25    1    4    4    0    0  0.37428914467E+02  0.17193130062E+01  0.12110138637E+03  0.17809248596E+03  0.12509000000E+03 0.  0.
         25    1    3    3    0    0 -0.64518401549E+02  0.51789844913E+02 -0.19043526390E+02  0.15117862340E+03  0.12509000000E+03 0.  0.
         25    1    4    4    0    0  0.27089487081E+02 -0.53509157920E+02  0.56527575571E+02  0.14979968355E+03  0.12509000000E+03 0.  0.
<mgrwt>
<rscale>  2 0.45206137E+03</rscale>
<asrwt>0</asrwt>
<pdfrwt beam="1">  1       21 0.46886488E-01 0.45206137E+03</pdfrwt>
<pdfrwt beam="2">  1       21 0.23565100E-01 0.45206137E+03</pdfrwt>
<totfact> 0.68348211E+04</totfact>
</mgrwt>
</event>
<event>
 7    0  0.4784406E-002  0.4413832E+03  0.7546771E-02  0.1030323E+00
         21   -1    0    0  502  501  0.00000000000E+00  0.00000000000E+00  0.12201551998E+04  0.12201551998E+04  0.00000000000E+00 0.  1.
         21   -1    0    0  501  502 -0.00000000000E+00 -0.00000000000E+00 -0.39916873589E+02  0.39916873589E+02  0.00000000000E+00 0.  1.
      99926    2    1    2    0    0  0.00000000000E+00  0.00000000000E+00  0.11802383263E+04  0.12600720734E+04  0.44138319348E+03 0.  0.
      99925    2    3    3    0    0  0.93549750805E+02 -0.32964429030E+02  0.78459700283E+03  0.83343666192E+03  0.26303232334E+03 0.  0.
         25    1    3    3    0    0 -0.93549750805E+02  0.32964429030E+02  0.39564132343E+03  0.42663541152E+03  0.12509000000E+03 0.  0.
         25    1    4    4    0    0  0.45449292171E+02 -0.22498295765E+02  0.27403396828E+03  0.30547329727E+03  0.12509000000E+03 0.  0.
         25    1    4    4    0    0  0.48100458633E+02 -0.10466133265E+02  0.51056303455E+03  0.52796336465E+03  0.12509000000E+03 0.  0.
<mgrwt>
<rscale>  2 0.44138319E+03</rscale>
<asrwt>0</asrwt>
<pdfrwt beam="1">  1       21 0.17943456E+00 0.44138319E+03</pdfrwt>
<pdfrwt beam="2">  1       21 0.58701293E-02 0.44138319E+03</pdfrwt>
<totfact> 0.33731319E+04</totfact>
</mgrwt>
</event>
<event>
 7    0  0.4784406E-002  0.4386724E+03  0.7546771E-02  0.1031155E+00
         21   -1    0    0  502  501  0.00000000000E+00  0.00000000000E+00  0.14518808008E+04  0.14518808008E+04  0.00000000000E+00 0. -1.
         21   -1    0    0  501  502 -0.00000000000E+00 -0.00000000000E+00 -0.33135209624E+02  0.33135209624E+02  0.00000000000E+00 0. -1.
      99926    2    1    2    0    0  0.00000000000E+00  0.00000000000E+00  0.14187455912E+04  0.14850160105E+04  0.43867242761E+03 0.  0.
      99925    2    3    3    0    0  0.60520494921E+02 -0.59310775856E+02  0.10668600967E+04  0.11020650896E+04  0.26301425314E+03 0.  0.
         25    1    4    4    0    0  0.30720856115E+02  0.13049579810E+01  0.40035534865E+03  0.42056793412E+03  0.12509000000E+03 0.  0.
         25    1    3    3    0    0 -0.60520494921E+02  0.59310775856E+02  0.35188549453E+03  0.38295092088E+03  0.12509000000E+03 0.  0.
         25    1    4    4    0    0  0.29799638805E+02 -0.60615733837E+02  0.66650474804E+03  0.68149715548E+03  0.12509000000E+03 0.  0.
<mgrwt>
<rscale>  2 0.43867243E+03</rscale>
<asrwt>0</asrwt>
<pdfrwt beam="1">  1       21 0.21351184E+00 0.43867243E+03</pdfrwt>
<pdfrwt beam="2">  1       21 0.48728259E-02 0.43867243E+03</pdfrwt>
<totfact> 0.27471308E+04</totfact>
</mgrwt>
</event>
<event>
 7    0  0.4784406E-002  0.4478252E+03  0.7546771E-02  0.1028373E+00
         21   -1    0    0  502  501  0.00000000000E+00  0.00000000000E+00  0.90567119346E+03  0.90567119346E+03  0.00000000000E+00 0.  1.
         21   -1    0    0  501  502 -0.00000000000E+00 -0.00000000000E+00 -0.55358773740E+02  0.55358773740E+02  0.00000000000E+00 0.  1.
      99926    2    1    2    0    0  0.71054273576E-14  0.00000000000E+00  0.85031241972E+03  0.96102996720E+03  0.44782517429E+03 0.  0.
      99925    2    3    3    0    0  0.46783781024E+02  0.32897133296E+02  0.73089716917E+03  0.77888043053E+03  0.26300781284E+03 0.  0.
         25    1    3    3    0    0 -0.46783781024E+02 -0.32897133296E+02  0.11941525056E+03  0.18214953668E+03  0.12509000000E+03 0.  0.
         25    1    4    4    0    0  0.51589402435E+02  0.39469129240E+02  0.32996993080E+03  0.35881324103E+03  0.12509000000E+03 0.  0.
         25    1    4    4    0    0 -0.48056214107E+01 -0.65719959442E+01  0.40092723837E+03  0.42006718950E+03  0.12509000000E+03 0.  0.
<mgrwt>
<rscale>  2 0.44782517E+03</rscale>
<asrwt>0</asrwt>
<pdfrwt beam="1">  1       21 0.13318693E+00 0.44782517E+03</pdfrwt>
<pdfrwt beam="2">  1       21 0.81409967E-02 0.44782517E+03</pdfrwt>
<totfact> 0.43062855E+04</totfact>
</mgrwt>
</event>
<event>
 7    0  0.4784406E-002  0.4562714E+03  0.7546771E-02  0.1025868E+00
         21   -1    0    0  502  501  0.00000000000E+00  0.00000000000E+00  0.12660996080E+03  0.12660996080E+03  0.00000000000E+00 0.  1.
         21   -1    0    0  501  502 -0.00000000000E+00 -0.00000000000E+00 -0.41107274388E+03  0.41107274388E+03  0.00000000000E+00 0.  1.
      99926    2    1    2    0    0  0.00000000000E+00  0.14210854715E-13 -0.28446278308E+03  0.53768270468E+03  0.45627142794E+03 0.  0.
      99925    2    3    3    0    0  0.39868505440E+02  0.10717652929E+03 -0.17560116566E+03  0.33625116295E+03  0.26296914087E+03 0.  0.
         25    1    4    4    0    0  0.52706663953E+02  0.61128619026E+02 -0.12016891011E+03  0.19131851856E+03  0.12509000000E+03 0.  0.
         25    1    3    3    0    0 -0.39868505440E+02 -0.10717652929E+03 -0.10886161742E+03  0.20143154173E+03  0.12509000000E+03 0.  0.
         25    1    4    4    0    0 -0.12838158514E+02  0.46047910259E+02 -0.55432255549E+02  0.14493264439E+03  0.12509000000E+03 0.  0.
<mgrwt>
<rscale>  2 0.45627143E+03</rscale>
<asrwt>0</asrwt>
<pdfrwt beam="1">  1       21 0.18619112E-01 0.45627143E+03</pdfrwt>
<pdfrwt beam="2">  1       21 0.60451873E-01 0.45627143E+03</pdfrwt>
<totfact> 0.62061003E+04</totfact>
</mgrwt>
</event>
<event>
 7    0  0.4784406E-002  0.4533175E+03  0.7546771E-02  0.1026737E+00
         21   -1    0    0  502  501  0.00000000000E+00  0.00000000000E+00  0.90977579673E+02  0.90977579673E+02  0.00000000000E+00 0.  1.
         21   -1    0    0  501  502 -0.00000000000E+00 -0.00000000000E+00 -0.56469061535E+03  0.56469061535E+03  0.00000000000E+00 0.  1.
      99926    2    1    2    0    0  0.00000000000E+00  0.00000000000E+00 -0.47371303568E+03  0.65566819502E+03  0.45331748454E+03 0.  0.
      99925    2    3    3    0    0  0.94411966223E+02 -0.19020362433E+02 -0.21704250866E+03  0.35433339602E+03  0.26300059204E+03 0.  0.
         25    1    3    3    0    0 -0.94411966223E+02  0.19020362433E+02 -0.25667052701E+03  0.30133479900E+03  0.12509000000E+03 0.  0.
         25    1    4    4    0    0  0.45889630867E+02  0.20693219317E+01 -0.15673717681E+03  0.20572843996E+03  0.12509000000E+03 0.  0.
         25    1    4    4    0    0  0.48522335356E+02 -0.21089684365E+02 -0.60305331853E+02  0.14860495606E+03  0.12509000000E+03 0.  0.
<mgrwt>
<rscale>  2 0.45331748E+03</rscale>
<asrwt>0</asrwt>
<pdfrwt beam="1">  1       21 0.13379056E-01 0.45331748E+03</pdfrwt>
<pdfrwt beam="2">  1       21 0.83042739E-01 0.45331748E+03</pdfrwt>
<totfact> 0.56117121E+04</totfact>
</mgrwt>
</event>
<event>
 7    0  0.4784406E-002  0.4652186E+03  0.7546771E-02  0.1023278E+00
         21   -1    0    0  502  501  0.00000000000E+00  0.00000000000E+00  0.61180710405E+03  0.61180710405E+03  0.00000000000E+00 0.  1.
         21   -1    0    0  501  502 -0.00000000000E+00 -0.00000000000E+00 -0.88438151702E+02  0.88438151702E+02  0.00000000000E+00 0.  1.
      99926    2    1    2    0    0 -0.71054273576E-14  0.00000000000E+00  0.52336895235E+03  0.70024525575E+03  0.46521861304E+03 0.  0.
      99925    2    3    3    0    0 -0.44411917699E+02 -0.95132594775E+02  0.23086296454E+03  0.36523795728E+03  0.26282775353E+03 0.  0.
         25    1    4    4    0    0 -0.57384318602E+02 -0.33735617997E+02  0.98165185466E+02  0.17238028797E+03  0.12509000000E+03 0.  0.
         25    1    4    4    0    0  0.12972400903E+02 -0.61396976777E+02  0.13269777907E+03  0.19285766931E+03  0.12509000000E+03 0.  0.
         25    1    3    3    0    0  0.44411917699E+02  0.95132594775E+02  0.29250598781E+03  0.33500729847E+03  0.12509000000E+03 0.  0.
<mgrwt>
<rscale>  2 0.46521861E+03</rscale>
<asrwt>0</asrwt>
<pdfrwt beam="1">  1       21 0.89971631E-01 0.46521861E+03</pdfrwt>
<pdfrwt beam="2">  1       21 0.13005611E-01 0.46521861E+03</pdfrwt>
<totfact> 0.48841198E+04</totfact>
</mgrwt>
</event>
<event>
 7    0  0.4784406E-002  0.4584021E+03  0.7546771E-02  0.1025246E+00
         21   -1    0    0  502  501  0.00000000000E+00  0.00000000000E+00  0.36232281155E+03  0.36232281155E+03  0.00000000000E+00 0. -1.
         21   -1    0    0  501  502 -0.00000000000E+00 -0.00000000000E+00 -0.14498981355E+03  0.14498981355E+03  0.00000000000E+00 0. -1.
      99926    2    1    2    0    0  0.00000000000E+00  0.00000000000E+00  0.21733299801E+03  0.50731262510E+03  0.45840208068E+03 0.  0.
      99925    2    3    3    0    0 -0.50761229887E+02 -0.34534651399E+02  0.24585968268E+03  0.36507822545E+03  0.26280369580E+03 0.  0.
         25    1    4    4    0    0  0.65759609743E+01 -0.25924333733E+02  0.15009582548E+03  0.19720948068E+03  0.12509000000E+03 0.  0.
         25    1    4    4    0    0 -0.57337190861E+02 -0.86103176657E+01  0.95763857192E+02  0.16786874477E+03  0.12509000000E+03 0.  0.
         25    1    3    3    0    0  0.50761229887E+02  0.34534651399E+02 -0.28526684670E+02  0.14223439965E+03  0.12509000000E+03 0.  0.
<mgrwt>
<rscale>  2 0.45840208E+03</rscale>
<asrwt>0</asrwt>
<pdfrwt beam="1">  1       21 0.53282766E-01 0.45840208E+03</pdfrwt>
<pdfrwt beam="2">  1       21 0.21322031E-01 0.45840208E+03</pdfrwt>
<totfact> 0.63040362E+04</totfact>
</mgrwt>
</event>
<event>
 7    0  0.4784406E-002  0.4624717E+03  0.7546771E-02  0.1024067E+00
         21   -1    0    0  502  501  0.00000000000E+00  0.00000000000E+00  0.12560393348E+03  0.12560393348E+03  0.00000000000E+00 0.  1.
         21   -1    0    0  501  502 -0.00000000000E+00 -0.00000000000E+00 -0.42570336354E+03  0.42570336354E+03  0.00000000000E+00 0.  1.
      99926    2    1    2    0    0  0.00000000000E+00  0.00000000000E+00 -0.30009943006E+03  0.55130729702E+03  0.46247169407E+03 0.  0.
      99925    2    3    3    0    0  0.67562736040E+02  0.37426949817E+02 -0.78034047729E+02  0.28498786099E+03  0.26298910326E+03 0.  0.
         25    1    3    3    0    0 -0.67562736040E+02 -0.37426949817E+02 -0.22206538233E+03  0.26631943603E+03  0.12509000000E+03 0.  0.
         25    1    4    4    0    0  0.56345030459E+02  0.47031117106E+02 -0.63039867050E+02  0.15813987913E+03  0.12509000000E+03 0.  0.
         25    1    4    4    0    0  0.11217705581E+02 -0.96041672889E+01 -0.14994180679E+02  0.12684798186E+03  0.12509000000E+03 0.  0.
<mgrwt>
<rscale>  2 0.46247169E+03</rscale>
<asrwt>0</asrwt>
<pdfrwt beam="1">  1       21 0.18471167E-01 0.46247169E+03</pdfrwt>
<pdfrwt beam="2">  1       21 0.62603436E-01 0.46247169E+03</pdfrwt>
<totfact> 0.58259103E+04</totfact>
</mgrwt>
</event>
<event>
 7    0  0.4784406E-002  0.4562635E+03  0.7546771E-02  0.1025870E+00
         21   -1    0    0  502  501  0.00000000000E+00  0.00000000000E+00  0.93754257815E+03  0.93754257815E+03  0.00000000000E+00 0. -1.
         21   -1    0    0  501  502 -0.00000000000E+00 -0.00000000000E+00 -0.55511187102E+02  0.55511187102E+02  0.00000000000E+00 0. -1.
      99926    2    1    2    0    0  0.00000000000E+00  0.71054273576E-14  0.88203139104E+03  0.99305376525E+03  0.45626352680E+03 0.  0.
      99925    2    3    3    0    0  0.10339172563E+03  0.36891175051E+02  0.62407734130E+03  0.68607069145E+03  0.26300125096E+03 0.  0.
         25    1    4    4    0    0  0.29072240574E+02 -0.51770898926E+01  0.35115055419E+03  0.37393343959E+03  0.12509000000E+03 0.  0.
         25    1    4    4    0    0  0.74319485054E+02  0.42068264944E+02  0.27292678711E+03  0.31213725186E+03  0.12509000000E+03 0.  0.
         25    1    3    3    0    0 -0.10339172563E+03 -0.36891175051E+02  0.25795404974E+03  0.30698307380E+03  0.12509000000E+03 0.  0.
<mgrwt>
<rscale>  2 0.45626353E+03</rscale>
<asrwt>0</asrwt>
<pdfrwt beam="1">  1       21 0.13787390E+00 0.45626353E+03</pdfrwt>
<pdfrwt beam="2">  1       21 0.81634104E-02 0.45626353E+03</pdfrwt>
<totfact> 0.39051224E+04</totfact>
</mgrwt>
</event>
<event>
 7    0  0.4784406E-002  0.4593071E+03  0.7546771E-02  0.1024982E+00
         21   -1    0    0  502  501  0.00000000000E+00  0.00000000000E+00  0.47224217162E+02  0.47224217162E+02  0.00000000000E+00 0. -1.
         21   -1    0    0  501  502 -0.00000000000E+00 -0.00000000000E+00 -0.11168159802E+04  0.11168159802E+04  0.00000000000E+00 0. -1.
      99926    2    1    2    0    0  0.35527136788E-14  0.00000000000E+00 -0.10695917631E+04  0.11640401974E+04  0.45930713202E+03 0.  0.
      99925    2    3    3    0    0  0.28365424145E+02  0.27027624412E+02 -0.38998542912E+03  0.47190771946E+03  0.26281775243E+03 0.  0.
         25    1    4    4    0    0 -0.45656683756E+01 -0.50964554223E+01 -0.24367183963E+03  0.27398958504E+03  0.12509000000E+03 0.  0.
         25    1    4    4    0    0  0.32931092521E+02  0.32124079834E+02 -0.14631358950E+03  0.19791813442E+03  0.12509000000E+03 0.  0.
         25    1    3    3    0    0 -0.28365424145E+02 -0.27027624412E+02 -0.67960633395E+03  0.69213247794E+03  0.12509000000E+03 0.  0.
<mgrwt>
<rscale>  2 0.45930713E+03</rscale>
<asrwt>0</asrwt>
<pdfrwt beam="1">  1       21 0.69447379E-02 0.45930713E+03</pdfrwt>
<pdfrwt beam="2">  1       21 0.16423764E+00 0.45930713E+03</pdfrwt>
<totfact> 0.32221887E+04</totfact>
</mgrwt>
</event>
<event>
 7    0  0.4784406E-002  0.4492459E+03  0.7546771E-02  0.1027947E+00
         21   -1    0    0  502  501  0.00000000000E+00  0.00000000000E+00  0.22299331281E+02  0.22299331281E+02  0.00000000000E+00 0. -1.
         21   -1    0    0  501  502 -0.00000000000E+00 -0.00000000000E+00 -0.22626445345E+04  0.22626445345E+04  0.00000000000E+00 0. -1.
      99926    2    1    2    0    0  0.00000000000E+00  0.00000000000E+00 -0.22403452032E+04  0.22849438658E+04  0.44924585717E+03 0.  0.
      99925    2    3    3    0    0 -0.10170668359E+03  0.11333021792E+02 -0.12473858144E+04  0.12789177514E+04  0.26303337814E+03 0.  0.
         25    1    3    3    0    0  0.10170668359E+03 -0.11333021792E+02 -0.99295938879E+03  0.10060261144E+04  0.12509000000E+03 0.  0.
         25    1    4    4    0    0 -0.43075533003E+02  0.25428872067E+02 -0.77192112567E+03  0.78358908966E+03  0.12509000000E+03 0.  0.
         25    1    4    4    0    0 -0.58631150585E+02 -0.14095850275E+02 -0.47546468876E+03  0.49532866177E+03  0.12509000000E+03 0.  0.
<mgrwt>
<rscale>  2 0.44924586E+03</rscale>
<asrwt>0</asrwt>
<pdfrwt beam="1">  1       21 0.32793159E-02 0.44924586E+03</pdfrwt>
<pdfrwt beam="2">  1       21 0.33274159E+00 0.44924586E+03</pdfrwt>
<totfact> 0.10031435E+04</totfact>
</mgrwt>
</event>
<event>
 7    0  0.4784406E-002  0.4521727E+03  0.7546771E-02  0.1027076E+00
         21   -1    0    0  502  501  0.00000000000E+00  0.00000000000E+00  0.20332228467E+04  0.20332228467E+04  0.00000000000E+00 0. -1.
         21   -1    0    0  501  502 -0.00000000000E+00 -0.00000000000E+00 -0.25139906976E+02  0.25139906976E+02  0.00000000000E+00 0. -1.
      99926    2    1    2    0    0  0.00000000000E+00  0.00000000000E+00  0.20080829397E+04  0.20583627537E+04  0.45217268041E+03 0.  0.
      99925    2    3    3    0    0 -0.73255758251E+02 -0.81993790668E+02  0.12160761734E+04  0.12490348758E+04  0.26297808607E+03 0.  0.
         25    1    4    4    0    0 -0.59125744653E+02 -0.57619462712E+02  0.78965212884E+03  0.80374986709E+03  0.12509000000E+03 0.  0.
         25    1    4    4    0    0 -0.14130013598E+02 -0.24374327957E+02  0.42642404454E+03  0.44528500875E+03  0.12509000000E+03 0.  0.
         25    1    3    3    0    0  0.73255758251E+02  0.81993790668E+02  0.79200676635E+03  0.80932787785E+03  0.12509000000E+03 0.  0.
<mgrwt>
<rscale>  2 0.45217268E+03</rscale>
<asrwt>0</asrwt>
<pdfrwt beam="1">  1       21 0.29900325E+00 0.45217268E+03</pdfrwt>
<pdfrwt beam="2">  1       21 0.36970465E-02 0.45217268E+03</pdfrwt>
<totfact> 0.13064655E+04</totfact>
</mgrwt>
</event>
<event>
 7    0  0.4784406E-002  0.4468702E+03  0.7546771E-02  0.1028660E+00
         21   -1    0    0  502  501  0.00000000000E+00  0.00000000000E+00  0.12471671599E+03  0.12471671599E+03  0.00000000000E+00 0.  1.
         21   -1    0    0  501  502 -0.00000000000E+00 -0.00000000000E+00 -0.40029309154E+03  0.40029309154E+03  0.00000000000E+00 0.  1.
      99926    2    1    2    0    0  0.00000000000E+00  0.00000000000E+00 -0.27557637555E+03  0.52500980753E+03  0.44687018165E+03 0.  0.
      99925    2    3    3    0    0 -0.97636932912E+02  0.33677059927E+02 -0.19907121696E+03  0.34565635085E+03  0.26302442553E+03 0.  0.
         25    1    4    4    0    0 -0.34699944221E+02 -0.20068549120E+02 -0.10906832496E+03  0.17073441482E+03  0.12509000000E+03 0.  0.
         25    1    3    3    0    0  0.97636932912E+02 -0.33677059927E+02 -0.76505158591E+02  0.17935345669E+03  0.12509000000E+03 0.  0.
         25    1    4    4    0    0 -0.62936988692E+02  0.53745609047E+02 -0.90002891997E+02  0.17492193603E+03  0.12509000000E+03 0.  0.
<mgrwt>
<rscale>  2 0.44687018E+03</rscale>
<asrwt>0</asrwt>
<pdfrwt beam="1">  1       21 0.18340694E-01 0.44687018E+03</pdfrwt>
<pdfrwt beam="2">  1       21 0.58866630E-01 0.44687018E+03</pdfrwt>
<totfact> 0.67808788E+04</totfact>
</mgrwt>
</event>
<event>
 7    0  0.4784406E-002  0.4616201E+03  0.7546771E-02  0.1024312E+00
         21   -1    0    0  502  501  0.00000000000E+00  0.00000000000E+00  0.13053688609E+03  0.13053688609E+03  0.00000000000E+00 0.  1.
         21   -1    0    0  501  502 -0.00000000000E+00 -0.00000000000E+00 -0.40810896629E+03  0.40810896629E+03  0.00000000000E+00 0.  1.
      99926    2    1    2    0    0  0.00000000000E+00  0.00000000000E+00 -0.27757208020E+03  0.53864585238E+03  0.46162007601E+03 0.  0.
      99925    2    3    3    0    0 -0.63514382255E+02 -0.62467649838E+01 -0.29119597606E+03  0.39755645708E+03  0.26302650297E+03 0.  0.
         25    1    4    4    0    0 -0.21639235208E+02  0.22366862729E+02 -0.98225788506E+02  0.16206278622E+03  0.12509000000E+03 0.  0.
         25    1    3    3    0    0  0.63514382255E+02  0.62467649838E+01  0.13623895861E+02  0.14108939529E+03  0.12509000000E+03 0.  0.
         25    1    4    4    0    0 -0.41875147047E+02 -0.28613627713E+02 -0.19297018756E+03  0.23549367087E+03  0.12509000000E+03 0.  0.
<mgrwt>
<rscale>  2 0.46162008E+03</rscale>
<asrwt>0</asrwt>
<pdfrwt beam="1">  1       21 0.19196601E-01 0.46162008E+03</pdfrwt>
<pdfrwt beam="2">  1       21 0.60016025E-01 0.46162008E+03</pdfrwt>
<totfact> 0.59444500E+04</totfact>
</mgrwt>
</event>
<event>
 7    0  0.4784406E-002  0.4553636E+03  0.7546771E-02  0.1026135E+00
         21   -1    0    0  502  501  0.00000000000E+00  0.00000000000E+00  0.18032056601E+03  0.18032056601E+03  0.00000000000E+00 0. -1.
         21   -1    0    0  501  502 -0.00000000000E+00 -0.00000000000E+00 -0.28748244741E+03  0.28748244741E+03  0.00000000000E+00 0. -1.
      99926    2    1    2    0    0  0.17763568394E-14  0.00000000000E+00 -0.10716188140E+03  0.46780301341E+03  0.45536358060E+03 0.  0.
      99925    2    3    3    0    0 -0.10237932144E+02  0.81590876520E+02  0.13055454904E+02  0.27580925718E+03  0.26294184729E+03 0.  0.
         25    1    4    4    0    0  0.28039761516E+02  0.43065961861E+02  0.29608534468E+02  0.13843799591E+03  0.12509000000E+03 0.  0.
         25    1    4    4    0    0 -0.38277693660E+02  0.38524914660E+02 -0.16553079564E+02  0.13737126128E+03  0.12509000000E+03 0.  0.
         25    1    3    3    0    0  0.10237932144E+02 -0.81590876520E+02 -0.12021733630E+03  0.19199375623E+03  0.12509000000E+03 0.  0.
<mgrwt>
<rscale>  2 0.45536358E+03</rscale>
<asrwt>0</asrwt>
<pdfrwt beam="1">  1       21 0.26517731E-01 0.45536358E+03</pdfrwt>
<pdfrwt beam="2">  1       21 0.42276830E-01 0.45536358E+03</pdfrwt>
<totfact> 0.67405039E+04</totfact>
</mgrwt>
</event>
<event>
 7    0  0.4784406E-002  0.4558614E+03  0.7546771E-02  0.1025988E+00
         21   -1    0    0  502  501  0.00000000000E+00  0.00000000000E+00  0.96501209507E+02  0.96501209507E+02  0.00000000000E+00 0. -1.
         21   -1    0    0  501  502 -0.00000000000E+00 -0.00000000000E+00 -0.53836023671E+03  0.53836023671E+03  0.00000000000E+00 0. -1.
      99926    2    1    2    0    0  0.00000000000E+00  0.26645352591E-14 -0.44185902720E+03  0.63486144621E+03  0.45586144383E+03 0.  0.
      99925    2    3    3    0    0  0.16987957386E+02 -0.45369748580E+01 -0.12104722527E+03  0.29007615767E+03  0.26302580038E+03 0.  0.
         25    1    4    4    0    0  0.31926070050E+02 -0.35454002083E+02 -0.59875248062E+02  0.14665883418E+03  0.12509000000E+03 0.  0.
         25    1    4    4    0    0 -0.14938112664E+02  0.30917027225E+02 -0.61171977210E+02  0.14341732349E+03  0.12509000000E+03 0.  0.
         25    1    3    3    0    0 -0.16987957386E+02  0.45369748580E+01 -0.32081180193E+03  0.34478528854E+03  0.12509000000E+03 0.  0.
<mgrwt>
<rscale>  2 0.45586144E+03</rscale>
<asrwt>0</asrwt>
<pdfrwt beam="1">  1       21 0.14191354E-01 0.45586144E+03</pdfrwt>
<pdfrwt beam="2">  1       21 0.79170623E-01 0.45586144E+03</pdfrwt>
<totfact> 0.56199070E+04</totfact>
</mgrwt>
</event>
<event>
 7    0  0.4784406E-002  0.4519583E+03  0.7546771E-02  0.1027140E+00
         21   -1    0    0  502  501  0.00000000000E+00  0.00000000000E+00  0.33509955946E+03  0.33509955946E+03  0.00000000000E+00 0.  1.
         21   -1    0    0  501  502 -0.00000000000E+00 -0.00000000000E+00 -0.15239226259E+03  0.15239226259E+03  0.00000000000E+00 0.  1.
      99926    2    1    2    0    0  0.00000000000E+00 -0.35527136788E-14  0.18270729687E+03  0.48749182205E+03  0.45195831692E+03 0.  0.
      99925    2    3    3    0    0  0.10544045312E+03 -0.25788128919E+02  0.94488889680E+02  0.29984131655E+03  0.26304742556E+03 0.  0.
         25    1    4    4    0    0  0.72405660732E+02 -0.32602316146E+02  0.82864176636E+02  0.16976298358E+03  0.12509000000E+03 0.  0.
         25    1    3    3    0    0 -0.10544045312E+03  0.25788128919E+02  0.88218407190E+02  0.18765050550E+03  0.12509000000E+03 0.  0.
         25    1    4    4    0    0  0.33034792387E+02  0.68141872269E+01  0.11624713044E+02  0.13007833297E+03  0.12509000000E+03 0.  0.
<mgrwt>
<rscale>  2 0.45195832E+03</rscale>
<asrwt>0</asrwt>
<pdfrwt beam="1">  1       21 0.49279347E-01 0.45195832E+03</pdfrwt>
<pdfrwt beam="2">  1       21 0.22410627E-01 0.45195832E+03</pdfrwt>
<totfact> 0.67780628E+04</totfact>
</mgrwt>
</event>
<event>
 7    0  0.4784406E-002  0.4589985E+03  0.7546771E-02  0.1025072E+00
         21   -1    0    0  502  501  0.00000000000E+00  0.00000000000E+00  0.95825397199E+02  0.95825397199E+02  0.00000000000E+00 0.  1.
         21   -1    0    0  501  502 -0.00000000000E+00 -0.00000000000E+00 -0.54964454272E+03  0.54964454272E+03  0.00000000000E+00 0.  1.
      99926    2    1    2    0    0 -0.17763568394E-14  0.00000000000E+00 -0.45381914552E+03  0.64546993992E+03  0.45899850381E+03 0.  0.
      99925    2    3    3    0    0  0.95018339318E+01 -0.10089753225E+03 -0.36721954393E+03  0.46266513703E+03  0.26256092383E+03 0.  0.
         25    1    3    3    0    0 -0.95018339318E+01  0.10089753225E+03 -0.86599601594E+02  0.18280480289E+03  0.12509000000E+03 0.  0.
         25    1    4    4    0    0  0.35822800143E+02 -0.77609352527E+02 -0.19688757257E+03  0.24843250380E+03  0.12509000000E+03 0.  0.
         25    1    4    4    0    0 -0.26320966211E+02 -0.23288179723E+02 -0.17033197136E+03  0.21423263324E+03  0.12509000000E+03 0.  0.
<mgrwt>
<rscale>  2 0.45899850E+03</rscale>
<asrwt>0</asrwt>
<pdfrwt beam="1">  1       21 0.14091971E-01 0.45899850E+03</pdfrwt>
<pdfrwt beam="2">  1       21 0.80830077E-01 0.45899850E+03</pdfrwt>
<totfact> 0.54231859E+04</totfact>
</mgrwt>
</event>
<event>
 7    0  0.4784406E-002  0.4478300E+03  0.7546771E-02  0.1028371E+00
         21   -1    0    0  502  501  0.00000000000E+00  0.00000000000E+00  0.26285151016E+02  0.26285151016E+02  0.00000000000E+00 0.  1.
         21   -1    0    0  501  502 -0.00000000000E+00 -0.00000000000E+00 -0.19074619216E+04  0.19074619216E+04  0.00000000000E+00 0.  1.
      99926    2    1    2    0    0  0.00000000000E+00  0.00000000000E+00 -0.18811767706E+04  0.19337470727E+04  0.44782998858E+03 0.  0.
      99925    2    3    3    0    0 -0.19717827349E+02  0.60062810402E+02 -0.82168558678E+03  0.86502568209E+03  0.26287999781E+03 0.  0.
         25    1    3    3    0    0  0.19717827349E+02 -0.60062810402E+02 -0.10594911838E+04  0.10687213906E+04  0.12509000000E+03 0.  0.
         25    1    4    4    0    0  0.10451336086E+02  0.64152611261E+02 -0.45962723207E+03  0.48075928334E+03  0.12509000000E+03 0.  0.
         25    1    4    4    0    0 -0.30169163435E+02 -0.40898008597E+01 -0.36205835471E+03  0.38426639875E+03  0.12509000000E+03 0.  0.
<mgrwt>
<rscale>  2 0.44782999E+03</rscale>
<asrwt>0</asrwt>
<pdfrwt beam="1">  1       21 0.38654627E-02 0.44782999E+03</pdfrwt>
<pdfrwt beam="2">  1       21 0.28050915E+00 0.44782999E+03</pdfrwt>
<totfact> 0.15676195E+04</totfact>
</mgrwt>
</event>
<event>
 7    0  0.4784406E-002  0.4071706E+03  0.7546771E-02  0.1041325E+00
         21   -1    0    0  502  501  0.00000000000E+00  0.00000000000E+00  0.18449007056E+03  0.18449007056E+03  0.00000000000E+00 0.  1.
         21   -1    0    0  501  502 -0.00000000000E+00 -0.00000000000E+00 -0.22465694008E+03  0.22465694008E+03  0.00000000000E+00 0.  1.
      99926    2    1    2    0    0  0.00000000000E+00  0.00000000000E+00 -0.40166869517E+02  0.40914701063E+03  0.40717060172E+03 0.  0.
      99925    2    3    3    0    0  0.32503027491E+02  0.44951384744E+02 -0.96499780026E+01  0.26894764347E+03  0.26298790669E+03 0.  0.
         25    1    4    4    0    0 -0.45000852421E+01  0.15395744935E+02 -0.39007908146E+02  0.13200910850E+03  0.12509000000E+03 0.  0.
         25    1    4    4    0    0  0.37003112733E+02  0.29555639809E+02  0.29357930143E+02  0.13693853497E+03  0.12509000000E+03 0.  0.
         25    1    3    3    0    0 -0.32503027491E+02 -0.44951384744E+02 -0.30516891514E+02  0.14019936717E+03  0.12509000000E+03 0.  0.
<mgrwt>
<rscale>  2 0.40717060E+03</rscale>
<asrwt>0</asrwt>
<pdfrwt beam="1">  1       21 0.27130893E-01 0.40717060E+03</pdfrwt>
<pdfrwt beam="2">  1       21 0.33037785E-01 0.40717060E+03</pdfrwt>
<totfact> 0.10761067E+05</totfact>
</mgrwt>
</event>
<event>
 7    0  0.4784406E-002  0.4527678E+03  0.7546771E-02  0.1026900E+00
         21   -1    0    0  502  501  0.00000000000E+00  0.00000000000E+00  0.18863671384E+04  0.18863671384E+04  0.00000000000E+00 0. -1.
         21   -1    0    0  501  502 -0.00000000000E+00 -0.00000000000E+00 -0.27168449565E+02  0.27168449565E+02  0.00000000000E+00 0. -1.
      99926    2    1    2    0    0 -0.14210854715E-13 -0.17763568394E-14  0.18591986888E+04  0.19135355880E+04  0.45276780125E+03 0.  0.
      99925    2    3    3    0    0 -0.60358730267E+02 -0.13516507063E+02  0.78287904803E+03  0.82820736592E+03  0.26306266333E+03 0.  0.
         25    1    4    4    0    0  0.11084293567E+02 -0.11556076425E+02  0.35684693371E+03  0.37847542412E+03  0.12509000000E+03 0.  0.
         25    1    4    4    0    0 -0.71443023834E+02 -0.19604306384E+01  0.42603211432E+03  0.44973194180E+03  0.12509000000E+03 0.  0.
         25    1    3    3    0    0  0.60358730267E+02  0.13516507063E+02  0.10763196408E+04  0.10853282221E+04  0.12509000000E+03 0.  0.
<mgrwt>
<rscale>  2 0.45276780E+03</rscale>
<asrwt>0</asrwt>
<pdfrwt beam="1">  1       21 0.27740684E+00 0.45276780E+03</pdfrwt>
<pdfrwt beam="2">  1       21 0.39953615E-02 0.45276780E+03</pdfrwt>
<totfact> 0.15438936E+04</totfact>
</mgrwt>
</event>
<event>
 7    0  0.4784406E-002  0.4526956E+03  0.7546771E-02  0.1026921E+00
         21   -1    0    0  502  501  0.00000000000E+00  0.00000000000E+00  0.41234148121E+02  0.41234148121E+02  0.00000000000E+00 0.  1.
         21   -1    0    0  501  502 -0.00000000000E+00 -0.00000000000E+00 -0.12424977325E+04  0.12424977325E+04  0.00000000000E+00 0.  1.
      99926    2    1    2    0    0  0.00000000000E+00  0.00000000000E+00 -0.12012635844E+04  0.12837318807E+04  0.45269563967E+03 0.  0.
      99925    2    3    3    0    0 -0.76205377233E+02 -0.52308347384E+02 -0.58339933455E+03  0.64659205136E+03  0.26302675642E+03 0.  0.
         25    1    4    4    0    0 -0.11901202080E+02 -0.10551793607E+02 -0.20417009679E+03  0.23997065546E+03  0.12509000000E+03 0.  0.
         25    1    3    3    0    0  0.76205377233E+02  0.52308347384E+02 -0.61786424987E+03  0.63713982931E+03  0.12509000000E+03 0.  0.
         25    1    4    4    0    0 -0.64304175152E+02 -0.41756553777E+02 -0.37922923776E+03  0.40662139589E+03  0.12509000000E+03 0.  0.
<mgrwt>
<rscale>  2 0.45269564E+03</rscale>
<asrwt>0</asrwt>
<pdfrwt beam="1">  1       21 0.60638450E-02 0.45269564E+03</pdfrwt>
<pdfrwt beam="2">  1       21 0.18272026E+00 0.45269564E+03</pdfrwt>
<totfact> 0.30127305E+04</totfact>
</mgrwt>
</event>
<event>
 7    0  0.4784406E-002  0.4516636E+03  0.7546771E-02  0.1027227E+00
         21   -1    0    0  502  501  0.00000000000E+00  0.00000000000E+00  0.35127012116E+03  0.35127012116E+03  0.00000000000E+00 0. -1.
         21   -1    0    0  501  502 -0.00000000000E+00 -0.00000000000E+00 -0.14518741150E+03  0.14518741150E+03  0.00000000000E+00 0. -1.
      99926    2    1    2    0    0  0.35527136788E-14  0.00000000000E+00  0.20608270966E+03  0.49645753266E+03  0.45166358998E+03 0.  0.
      99925    2    3    3    0    0  0.24106925513E+02  0.35521494850E+02  0.18682730388E+02  0.26709061965E+03  0.26295519435E+03 0.  0.
         25    1    3    3    0    0 -0.24106925513E+02 -0.35521494850E+02  0.18739997927E+03  0.22936691301E+03  0.12509000000E+03 0.  0.
         25    1    4    4    0    0  0.46140151551E+01  0.41493943075E+02 -0.22600821579E+02  0.13379589562E+03  0.12509000000E+03 0.  0.
         25    1    4    4    0    0  0.19492910358E+02 -0.59724482246E+01  0.41283551967E+02  0.13329472403E+03  0.12509000000E+03 0.  0.
<mgrwt>
<rscale>  2 0.45166359E+03</rscale>
<asrwt>0</asrwt>
<pdfrwt beam="1">  1       21 0.51657371E-01 0.45166359E+03</pdfrwt>
<pdfrwt beam="2">  1       21 0.21351090E-01 0.45166359E+03</pdfrwt>
<totfact> 0.67284721E+04</totfact>
</mgrwt>
</event>
<event>
 7    0  0.4784406E-002  0.4536399E+03  0.7546771E-02  0.1026642E+00
         21   -1    0    0  502  501  0.00000000000E+00  0.00000000000E+00  0.31987244016E+02  0.31987244016E+02  0.00000000000E+00 0. -1.
         21   -1    0    0  501  502 -0.00000000000E+00 -0.00000000000E+00 -0.16083688459E+04  0.16083688459E+04  0.00000000000E+00 0. -1.
      99926    2    1    2    0    0 -0.35527136788E-14 -0.14210854715E-13 -0.15763816019E+04  0.16403560899E+04  0.45363988688E+03 0.  0.
      99925    2    3    3    0    0  0.22145170680E+02  0.10941092801E+03 -0.10263769791E+04  0.10653658701E+04  0.26285656564E+03 0.  0.
         25    1    4    4    0    0 -0.18858924498E+02  0.43810799399E+02 -0.58521057995E+03  0.60032822370E+03  0.12509000000E+03 0.  0.
         25    1    4    4    0    0  0.41004095177E+02  0.65600128609E+02 -0.44116639918E+03  0.46503764639E+03  0.12509000000E+03 0.  0.
         25    1    3    3    0    0 -0.22145170680E+02 -0.10941092801E+03 -0.55000462273E+03  0.57499021981E+03  0.12509000000E+03 0.  0.
<mgrwt>
<rscale>  2 0.45363989E+03</rscale>
<asrwt>0</asrwt>
<pdfrwt beam="1">  1       21 0.47040076E-02 0.45363989E+03</pdfrwt>
<pdfrwt beam="2">  1       21 0.23652477E+00 0.45363989E+03</pdfrwt>
<totfact> 0.20751286E+04</totfact>
</mgrwt>
</event>
<event>
 7    0  0.4784406E-002  0.4583137E+03  0.7546771E-02  0.1025271E+00
         21   -1    0    0  502  501  0.00000000000E+00  0.00000000000E+00  0.48532967355E+03  0.48532967355E+03  0.00000000000E+00 0. -1.
         21   -1    0    0  501  502 -0.00000000000E+00 -0.00000000000E+00 -0.10820040557E+03  0.10820040557E+03  0.00000000000E+00 0. -1.
      99926    2    1    2    0    0  0.00000000000E+00  0.00000000000E+00  0.37712926798E+03  0.59353007913E+03  0.45831372449E+03 0.  0.
      99925    2    3    3    0    0  0.14420286167E+02 -0.27557819447E+02  0.91601454524E+02  0.28025540983E+03  0.26303020777E+03 0.  0.
         25    1    3    3    0    0 -0.14420286167E+02  0.27557819447E+02  0.28552781346E+03  0.31327466930E+03  0.12509000000E+03 0.  0.
         25    1    4    4    0    0  0.15759399792E+02 -0.47393145120E+02  0.69900129411E+02  0.15174981080E+03  0.12509000000E+03 0.  0.
         25    1    4    4    0    0 -0.13391136253E+01  0.19835325673E+02  0.21701325113E+02  0.12850559903E+03  0.12509000000E+03 0.  0.
<mgrwt>
<rscale>  2 0.45831372E+03</rscale>
<asrwt>0</asrwt>
<pdfrwt beam="1">  1       21 0.71372010E-01 0.45831372E+03</pdfrwt>
<pdfrwt beam="2">  1       21 0.15911825E-01 0.45831372E+03</pdfrwt>
<totfact> 0.57556139E+04</totfact>
</mgrwt>
</event>
<event>
 7    0  0.4784406E-002  0.4560979E+03  0.7546771E-02  0.1025919E+00
         21   -1    0    0  502  501  0.00000000000E+00  0.00000000000E+00  0.15624173880E+03  0.15624173880E+03  0.00000000000E+00 0.  1.
         21   -1    0    0  501  502 -0.00000000000E+00 -0.00000000000E+00 -0.33285800666E+03  0.33285800666E+03  0.00000000000E+00 0.  1.
      99926    2    1    2    0    0 -0.17763568394E-14  0.00000000000E+00 -0.17661626786E+03  0.48909974546E+03  0.45609785676E+03 0.  0.
      99925    2    3    3    0    0 -0.11053338141E+02 -0.11235461006E+03 -0.92459120568E+02  0.30074988954E+03  0.26297542166E+03 0.  0.
         25    1    4    4    0    0  0.12788407489E+02 -0.78785075004E+02 -0.79716829209E+02  0.16844260853E+03  0.12509000000E+03 0.  0.
         25    1    4    4    0    0 -0.23841745630E+02 -0.33569535055E+02 -0.12742291359E+02  0.13230728101E+03  0.12509000000E+03 0.  0.
         25    1    3    3    0    0  0.11053338141E+02  0.11235461006E+03 -0.84157147295E+02  0.18834985592E+03  0.12509000000E+03 0.  0.
<mgrwt>
<rscale>  2 0.45609786E+03</rscale>
<asrwt>0</asrwt>
<pdfrwt beam="1">  1       21 0.22976727E-01 0.45609786E+03</pdfrwt>
<pdfrwt beam="2">  1       21 0.48949706E-01 0.45609786E+03</pdfrwt>
<totfact> 0.65470960E+04</totfact>
</mgrwt>
</event>
<event>
 7    0  0.4784406E-002  0.4488460E+03  0.7546771E-02  0.1028067E+00
         21   -1    0    0  502  501  0.00000000000E+00  0.00000000000E+00  0.10905749191E+03  0.10905749191E+03  0.00000000000E+00 0.  1.
         21   -1    0    0  501  502 -0.00000000000E+00 -0.00000000000E+00 -0.46182694727E+03  0.46182694727E+03  0.00000000000E+00 0.  1.
      99926    2    1    2    0    0  0.00000000000E+00  0.00000000000E+00 -0.35276945536E+03  0.57088443918E+03  0.44884602512E+03 0.  0.
      99925    2    3    3    0    0 -0.52924567519E+02 -0.73320433806E+02 -0.14996857566E+03  0.31602643800E+03  0.26306888826E+03 0.  0.
         25    1    4    4    0    0 -0.24328535445E+02 -0.16735146942E+02 -0.31221628463E+02  0.13226579665E+03  0.12509000000E+03 0.  0.
         25    1    3    3    0    0  0.52924567519E+02  0.73320433806E+02 -0.20280087970E+03  0.25485800118E+03  0.12509000000E+03 0.  0.
         25    1    4    4    0    0 -0.28596032074E+02 -0.56585286864E+02 -0.11874694719E+03  0.18376064135E+03  0.12509000000E+03 0.  0.
<mgrwt>
<rscale>  2 0.44884603E+03</rscale>
<asrwt>0</asrwt>
<pdfrwt beam="1">  1       21 0.16037866E-01 0.44884603E+03</pdfrwt>
<pdfrwt beam="2">  1       21 0.67915727E-01 0.44884603E+03</pdfrwt>
<totfact> 0.63543374E+04</totfact>
</mgrwt>
</event>
<event>
 7    0  0.4784406E-002  0.4537651E+03  0.7546771E-02  0.1026605E+00
         21   -1    0    0  502  501  0.00000000000E+00  0.00000000000E+00  0.13251302460E+03  0.13251302460E+03  0.00000000000E+00 0.  1.
         21   -1    0    0  501  502 -0.00000000000E+00 -0.00000000000E+00 -0.38845768164E+03  0.38845768164E+03  0.00000000000E+00 0.  1.
      99926    2    1    2    0    0 -0.35527136788E-14 -0.71054273576E-14 -0.25594465704E+03  0.52097070625E+03  0.45376514773E+03 0.  0.
      99925    2    3    3    0    0 -0.17447091066E+02  0.42831378368E+02 -0.27831647320E+03  0.38574151480E+03  0.26305423210E+03 0.  0.
         25    1    3    3    0    0  0.17447091066E+02 -0.42831378368E+02  0.22371816164E+02  0.13522919144E+03  0.12509000000E+03 0.  0.
         25    1    4    4    0    0  0.15304198339E+02  0.70553719550E+01 -0.92199090417E+02  0.15630795608E+03  0.12509000000E+03 0.  0.
         25    1    4    4    0    0 -0.32751289405E+02  0.35776006413E+02 -0.18611738279E+03  0.22943355872E+03  0.12509000000E+03 0.  0.
<mgrwt>
<rscale>  2 0.45376515E+03</rscale>
<asrwt>0</asrwt>
<pdfrwt beam="1">  1       21 0.19487209E-01 0.45376515E+03</pdfrwt>
<pdfrwt beam="2">  1       21 0.57126130E-01 0.45376515E+03</pdfrwt>
<totfact> 0.64450239E+04</totfact>
</mgrwt>
</event>
<event>
 7    0  0.4784406E-002  0.4480036E+03  0.7546771E-02  0.1028319E+00
         21   -1    0    0  502  501  0.00000000000E+00  0.00000000000E+00  0.84983283494E+03  0.84983283494E+03  0.00000000000E+00 0.  1.
         21   -1    0    0  501  502 -0.00000000000E+00 -0.00000000000E+00 -0.59043140177E+02  0.59043140177E+02  0.00000000000E+00 0.  1.
      99926    2    1    2    0    0 -0.35527136788E-14  0.00000000000E+00  0.79078969476E+03  0.90887597512E+03  0.44800356784E+03 0.  0.
      99925    2    3    3    0    0 -0.23680358071E+02 -0.60938093692E+02  0.67126969608E+03  0.72392530925E+03  0.26304113341E+03 0.  0.
         25    1    4    4    0    0 -0.16645008923E+02 -0.27205182336E+02  0.22747222769E+03  0.26154980546E+03  0.12509000000E+03 0.  0.
         25    1    3    3    0    0  0.23680358071E+02  0.60938093692E+02  0.11951999868E+03  0.18495066587E+03  0.12509000000E+03 0.  0.
         25    1    4    4    0    0 -0.70353491476E+01 -0.33732911357E+02  0.44379746840E+03  0.46237550379E+03  0.12509000000E+03 0.  0.
<mgrwt>
<rscale>  2 0.44800357E+03</rscale>
<asrwt>0</asrwt>
<pdfrwt beam="1">  1       21 0.12497541E+00 0.44800357E+03</pdfrwt>
<pdfrwt beam="2">  1       21 0.86828152E-02 0.44800357E+03</pdfrwt>
<totfact> 0.45280680E+04</totfact>
</mgrwt>
</event>
<event>
 7    0  0.4784406E-002  0.4517077E+03  0.7546771E-02  0.1027214E+00
         21   -1    0    0  502  501  0.00000000000E+00  0.00000000000E+00  0.35717803396E+03  0.35717803396E+03  0.00000000000E+00 0.  1.
         21   -1    0    0  501  502 -0.00000000000E+00 -0.00000000000E+00 -0.14281379589E+03  0.14281379589E+03  0.00000000000E+00 0.  1.
      99926    2    1    2    0    0  0.14210854715E-13  0.88817841970E-15  0.21436423807E+03  0.49999182985E+03  0.45170765253E+03 0.  0.
      99925    2    3    3    0    0  0.10665087618E+03  0.41448868555E+01  0.10567079183E+03  0.30287926599E+03  0.26301700334E+03 0.  0.
         25    1    4    4    0    0  0.82324225465E+02 -0.97876994980E+01  0.86635112933E+02  0.17328077808E+03  0.12509000000E+03 0.  0.
         25    1    3    3    0    0 -0.10665087618E+03 -0.41448868555E+01  0.10869344623E+03  0.19711256386E+03  0.12509000000E+03 0.  0.
         25    1    4    4    0    0  0.24326650712E+02  0.13932586353E+02  0.19035678899E+02  0.12959848791E+03  0.12509000000E+03 0.  0.
<mgrwt>
<rscale>  2 0.45170765E+03</rscale>
<asrwt>0</asrwt>
<pdfrwt beam="1">  1       21 0.52526181E-01 0.45170765E+03</pdfrwt>
<pdfrwt beam="2">  1       21 0.21002029E-01 0.45170765E+03</pdfrwt>
<totfact> 0.67005302E+04</totfact>
</mgrwt>
</event>
<event>
 7    0  0.4784406E-002  0.4541808E+03  0.7546771E-02  0.1026483E+00
         21   -1    0    0  502  501  0.00000000000E+00  0.00000000000E+00  0.44131099444E+02  0.44131099444E+02  0.00000000000E+00 0.  1.
         21   -1    0    0  501  502 -0.00000000000E+00 -0.00000000000E+00 -0.11685645867E+04  0.11685645867E+04  0.00000000000E+00 0.  1.
      99926    2    1    2    0    0  0.00000000000E+00  0.00000000000E+00 -0.11244334873E+04  0.12126956862E+04  0.45418075690E+03 0.  0.
      99925    2    3    3    0    0 -0.73838562726E+02  0.84330662498E+02 -0.68756555935E+03  0.74465200388E+03  0.26305211363E+03 0.  0.
         25    1    3    3    0    0  0.73838562726E+02 -0.84330662498E+02 -0.43686792794E+03  0.46804368231E+03  0.12509000000E+03 0.  0.
         25    1    4    4    0    0 -0.20191148470E+01  0.16859149467E+02 -0.32510037528E+03  0.34874929370E+03  0.12509000000E+03 0.  0.
         25    1    4    4    0    0 -0.71819447879E+02  0.67471513031E+02 -0.36246518407E+03  0.39590271018E+03  0.12509000000E+03 0.  0.
<mgrwt>
<rscale>  2 0.45418076E+03</rscale>
<asrwt>0</asrwt>
<pdfrwt beam="1">  1       21 0.64898666E-02 0.45418076E+03</pdfrwt>
<pdfrwt beam="2">  1       21 0.17184776E+00 0.45418076E+03</pdfrwt>
<totfact> 0.31959581E+04</totfact>
</mgrwt>
</event>
<event>
 7    0  0.4784406E-002  0.4600487E+03  0.7546771E-02  0.1024767E+00
         21   -1    0    0  502  501  0.00000000000E+00  0.00000000000E+00  0.25964616028E+03  0.25964616028E+03  0.00000000000E+00 0.  1.
         21   -1    0    0  501  502 -0.00000000000E+00 -0.00000000000E+00 -0.20378197003E+03  0.20378197003E+03  0.00000000000E+00 0.  1.
      99926    2    1    2    0    0 -0.71054273576E-14  0.71054273576E-14  0.55864190253E+02  0.46342813031E+03  0.46004871939E+03 0.  0.
      99925    2    3    3    0    0 -0.50825628511E+02  0.63589737374E+02 -0.50839252950E+02  0.27996142460E+03  0.26299595132E+03 0.  0.
         25    1    3    3    0    0  0.50825628511E+02 -0.63589737374E+02  0.10670344320E+03  0.18346670571E+03  0.12509000000E+03 0.  0.
         25    1    4    4    0    0 -0.12586958853E+02 -0.78179664272E+01 -0.16610220834E+02  0.12705494744E+03  0.12509000000E+03 0.  0.
         25    1    4    4    0    0 -0.38238669658E+02  0.71407703801E+02 -0.34229032116E+02  0.15290647717E+03  0.12509000000E+03 0.  0.
<mgrwt>
<rscale>  2 0.46004872E+03</rscale>
<asrwt>0</asrwt>
<pdfrwt beam="1">  1       21 0.38183259E-01 0.46004872E+03</pdfrwt>
<pdfrwt beam="2">  1       21 0.29967937E-01 0.46004872E+03</pdfrwt>
<totfact> 0.65263826E+04</totfact>
</mgrwt>
</event>
<event>
 7    0  0.4784406E-002  0.4558472E+03  0.7546771E-02  0.1025993E+00
         21   -1    0    0  502  501  0.00000000000E+00  0.00000000000E+00  0.42202021135E+03  0.42202021135E+03  0.00000000000E+00 0. -1.
         21   -1    0    0  501  502 -0.00000000000E+00 -0.00000000000E+00 -0.12309639877E+03  0.12309639877E+03  0.00000000000E+00 0. -1.
      99926    2    1    2    0    0  0.00000000000E+00 -0.14210854715E-13  0.29892381258E+03  0.54511661012E+03  0.45584720346E+03 0.  0.
      99925    2    3    3    0    0 -0.34843082658E+02  0.10797031327E+03  0.20351263887E+03  0.35115158976E+03  0.26271356237E+03 0.  0.
         25    1    4    4    0    0 -0.29687596783E+02  0.13641570987E+02  0.97126260759E+02  0.16170486848E+03  0.12509000000E+03 0.  0.
         25    1    4    4    0    0 -0.51554858749E+01  0.94328742280E+02  0.10638637811E+03  0.18944672128E+03  0.12509000000E+03 0.  0.
         25    1    3    3    0    0  0.34843082658E+02 -0.10797031327E+03  0.95411173702E+02  0.19396502036E+03  0.12509000000E+03 0.  0.
<mgrwt>
<rscale>  2 0.45584720E+03</rscale>
<asrwt>0</asrwt>
<pdfrwt beam="1">  1       21 0.62061795E-01 0.45584720E+03</pdfrwt>
<pdfrwt beam="2">  1       21 0.18102412E-01 0.45584720E+03</pdfrwt>
<totfact> 0.61775195E+04</totfact>
</mgrwt>
</event>
<event>
 7    0  0.4784406E-002  0.4647149E+03  0.7546771E-02  0.1023423E+00
         21   -1    0    0  502  501  0.00000000000E+00  0.00000000000E+00  0.64579743438E+03  0.64579743438E+03  0.00000000000E+00 0.  1.
         21   -1    0    0  501  502 -0.00000000000E+00 -0.00000000000E+00 -0.83602030021E+02  0.83602030021E+02  0.00000000000E+00 0.  1.
      99926    2    1    2    0    0  0.00000000000E+00  0.00000000000E+00  0.56219540436E+03  0.72939946440E+03  0.46471486525E+03 0.  0.
      99925    2    3    3    0    0 -0.30403827533E+02  0.98962980576E+02  0.45244026602E+03  0.53341027402E+03  0.26288069893E+03 0.  0.
         25    1    4    4    0    0  0.11090256565E+02  0.19065273785E+02  0.17830272345E+03  0.21891972900E+03  0.12509000000E+03 0.  0.
         25    1    3    3    0    0  0.30403827533E+02 -0.98962980576E+02  0.10975513835E+03  0.19598919038E+03  0.12509000000E+03 0.  0.
         25    1    4    4    0    0 -0.41494084098E+02  0.79897706791E+02  0.27413754257E+03  0.31449054502E+03  0.12509000000E+03 0.  0.
<mgrwt>
<rscale>  2 0.46471487E+03</rscale>
<asrwt>0</asrwt>
<pdfrwt beam="1">  1       21 0.94970208E-01 0.46471487E+03</pdfrwt>
<pdfrwt beam="2">  1       21 0.12294417E-01 0.46471487E+03</pdfrwt>
<totfact> 0.47594126E+04</totfact>
</mgrwt>
</event>
<event>
 7    0  0.4784406E-002  0.4574953E+03  0.7546771E-02  0.1025510E+00
         21   -1    0    0  502  501  0.00000000000E+00  0.00000000000E+00  0.47650673914E+03  0.47650673914E+03  0.00000000000E+00 0. -1.
         21   -1    0    0  501  502 -0.00000000000E+00 -0.00000000000E+00 -0.10981061448E+03  0.10981061448E+03  0.00000000000E+00 0. -1.
      99926    2    1    2    0    0  0.00000000000E+00  0.00000000000E+00  0.36669612466E+03  0.58631735362E+03  0.45749534568E+03 0.  0.
      99925    2    3    3    0    0 -0.86685365673E+02  0.74275565661E+02  0.24613281509E+03  0.37843702268E+03  0.26382191948E+03 0.  0.
         25    1    3    3    0    0  0.86685365673E+02 -0.74275565661E+02  0.12056330957E+03  0.20788033094E+03  0.12509000000E+03 0.  0.
         25    1    4    4    0    0 -0.15329191337E+02  0.33979048086E+02  0.15767297850E+03  0.20468960908E+03  0.12509000000E+03 0.  0.
         25    1    4    4    0    0 -0.71356174336E+02  0.40296517576E+02  0.88459836589E+02  0.17374741360E+03  0.12509000000E+03 0.  0.
<mgrwt>
<rscale>  2 0.45749535E+03</rscale>
<asrwt>0</asrwt>
<pdfrwt beam="1">  1       21 0.70074519E-01 0.45749535E+03</pdfrwt>
<pdfrwt beam="2">  1       21 0.16148620E-01 0.45749535E+03</pdfrwt>
<totfact> 0.58368648E+04</totfact>
</mgrwt>
</event>
<event>
 7    0  0.4784406E-002  0.4545597E+03  0.7546771E-02  0.1026371E+00
         21   -1    0    0  502  501  0.00000000000E+00  0.00000000000E+00  0.64838965513E+03  0.64838965513E+03  0.00000000000E+00 0.  1.
         21   -1    0    0  501  502 -0.00000000000E+00 -0.00000000000E+00 -0.79668329320E+02  0.79668329320E+02  0.00000000000E+00 0.  1.
      99926    2    1    2    0    0  0.00000000000E+00  0.83266726847E-15  0.56872132581E+03  0.72805798445E+03  0.45455965757E+03 0.  0.
      99925    2    3    3    0    0  0.11045091837E+03 -0.32348223404E+00  0.32183310911E+03  0.43006333742E+03  0.26301789686E+03 0.  0.
         25    1    4    4    0    0  0.95099735878E+02 -0.11892908091E+02  0.19731576693E+03  0.25252013981E+03  0.12509000000E+03 0.  0.
         25    1    3    3    0    0 -0.11045091837E+03  0.32348223404E+00  0.24688821671E+03  0.29799464703E+03  0.12509000000E+03 0.  0.
         25    1    4    4    0    0  0.15351182493E+02  0.11569425857E+02  0.12451734217E+03  0.17754319762E+03  0.12509000000E+03 0.  0.
<mgrwt>
<rscale>  2 0.45455966E+03</rscale>
<asrwt>0</asrwt>
<pdfrwt beam="1">  1       21 0.95351417E-01 0.45455966E+03</pdfrwt>
<pdfrwt beam="2">  1       21 0.11715931E-01 0.45455966E+03</pdfrwt>
<totfact> 0.51584361E+04</totfact>
</mgrwt>
</event>
<event>
 7    0  0.4784406E-002  0.4509806E+03  0.7546771E-02  0.1027430E+00
         21   -1    0    0  502  501  0.00000000000E+00  0.00000000000E+00  0.14990233944E+03  0.14990233944E+03  0.00000000000E+00 0.  1.
         21   -1    0    0  501  502 -0.00000000000E+00 -0.00000000000E+00 -0.33919330584E+03  0.33919330584E+03  0.00000000000E+00 0.  1.
      99926    2    1    2    0    0  0.71054273576E-14  0.14210854715E-13 -0.18929096640E+03  0.48909564529E+03  0.45098057639E+03 0.  0.
      99925    2    3    3    0    0  0.28183921971E+02  0.98905481495E+02 -0.15978456920E+03  0.32449077506E+03  0.26303331883E+03 0.  0.
         25    1    3    3    0    0 -0.28183921971E+02 -0.98905481495E+02 -0.29506397200E+02  0.16460487023E+03  0.12509000000E+03 0.  0.
         25    1    4    4    0    0  0.34076442642E+02  0.25303912808E+02 -0.10681496166E+03  0.16987770919E+03  0.12509000000E+03 0.  0.
         25    1    4    4    0    0 -0.58925206706E+01  0.73601568687E+02 -0.52969607543E+02  0.15461306587E+03  0.12509000000E+03 0.  0.
<mgrwt>
<rscale>  2 0.45098058E+03</rscale>
<asrwt>0</asrwt>
<pdfrwt beam="1">  1       21 0.22044462E-01 0.45098058E+03</pdfrwt>
<pdfrwt beam="2">  1       21 0.49881367E-01 0.45098058E+03</pdfrwt>
<totfact> 0.68193878E+04</totfact>
</mgrwt>
</event>
<event>
 7    0  0.4784406E-002  0.4469723E+03  0.7546771E-02  0.1028629E+00
         21   -1    0    0  502  501  0.00000000000E+00  0.00000000000E+00  0.86637238363E+02  0.86637238363E+02  0.00000000000E+00 0.  1.
         21   -1    0    0  501  502 -0.00000000000E+00 -0.00000000000E+00 -0.57649649976E+03  0.57649649976E+03  0.00000000000E+00 0.  1.
      99926    2    1    2    0    0  0.00000000000E+00  0.00000000000E+00 -0.48985926139E+03  0.66313373812E+03  0.44697232427E+03 0.  0.
      99925    2    3    3    0    0 -0.76097895721E+02 -0.57790620329E+02 -0.24439953865E+03  0.37153704897E+03  0.26301710731E+03 0.  0.
         25    1    4    4    0    0 -0.47913142181E+02 -0.26480556235E+02 -0.71858858803E+02  0.15429871270E+03  0.12509000000E+03 0.  0.
         25    1    3    3    0    0  0.76097895721E+02  0.57790620329E+02 -0.24545972274E+03  0.29159668915E+03  0.12509000000E+03 0.  0.
         25    1    4    4    0    0 -0.28184753540E+02 -0.31310064094E+02 -0.17254067985E+03  0.21723833627E+03  0.12509000000E+03 0.  0.
<mgrwt>
<rscale>  2 0.44697232E+03</rscale>
<asrwt>0</asrwt>
<pdfrwt beam="1">  1       21 0.12740770E-01 0.44697232E+03</pdfrwt>
<pdfrwt beam="2">  1       21 0.84778897E-01 0.44697232E+03</pdfrwt>
<totfact> 0.58569316E+04</totfact>
</mgrwt>
</event>
<event>
 7    0  0.4784406E-002  0.4546957E+03  0.7546771E-02  0.1026331E+00
         21   -1    0    0  502  501  0.00000000000E+00  0.00000000000E+00  0.41040916010E+03  0.41040916010E+03  0.00000000000E+00 0.  1.
         21   -1    0    0  501  502 -0.00000000000E+00 -0.00000000000E+00 -0.12594027003E+03  0.12594027003E+03  0.00000000000E+00 0.  1.
      99926    2    1    2    0    0  0.00000000000E+00  0.00000000000E+00  0.28446889007E+03  0.53634943012E+03  0.45469568040E+03 0.  0.
      99925    2    3    3    0    0  0.96480943938E+02 -0.49377795881E+02  0.14101054896E+03  0.31731851220E+03  0.26279331042E+03 0.  0.
         25    1    3    3    0    0 -0.96480943938E+02  0.49377795881E+02  0.14345834111E+03  0.21903091792E+03  0.12509000000E+03 0.  0.
         25    1    4    4    0    0  0.59275121271E+02 -0.47587277387E+02  0.11018077103E+03  0.18320862255E+03  0.12509000000E+03 0.  0.
         25    1    4    4    0    0  0.37205822667E+02 -0.17905184942E+01  0.30829777928E+02  0.13410988966E+03  0.12509000000E+03 0.  0.
<mgrwt>
<rscale>  2 0.45469568E+03</rscale>
<asrwt>0</asrwt>
<pdfrwt beam="1">  1       21 0.60354288E-01 0.45469568E+03</pdfrwt>
<pdfrwt beam="2">  1       21 0.18520628E-01 0.45469568E+03</pdfrwt>
<totfact> 0.62929098E+04</totfact>
</mgrwt>
</event>
<event>
 7    0  0.4784406E-002  0.4573658E+03  0.7546771E-02  0.1025548E+00
         21   -1    0    0  502  501  0.00000000000E+00  0.00000000000E+00  0.37009099478E+03  0.37009099478E+03  0.00000000000E+00 0.  1.
         21   -1    0    0  501  502 -0.00000000000E+00 -0.00000000000E+00 -0.14130543103E+03  0.14130543103E+03  0.00000000000E+00 0.  1.
      99926    2    1    2    0    0  0.00000000000E+00  0.00000000000E+00  0.22878556375E+03  0.51139642581E+03  0.45736579469E+03 0.  0.
      99925    2    3    3    0    0  0.41011244418E+02 -0.60733461477E+02  0.24324620709E+03  0.36570121718E+03  0.26305548364E+03 0.  0.
         25    1    4    4    0    0  0.36639689460E+02  0.57366071664E+01  0.10197614547E+03  0.16559594756E+03  0.12509000000E+03 0.  0.
         25    1    3    3    0    0 -0.41011244418E+02  0.60733461477E+02 -0.14460643344E+02  0.14569520863E+03  0.12509000000E+03 0.  0.
         25    1    4    4    0    0  0.43715549588E+01 -0.66470068644E+02  0.14127006162E+03  0.20010526962E+03  0.12509000000E+03 0.  0.
<mgrwt>
<rscale>  2 0.45736579E+03</rscale>
<asrwt>0</asrwt>
<pdfrwt beam="1">  1       21 0.54425146E-01 0.45736579E+03</pdfrwt>
<pdfrwt beam="2">  1       21 0.20780211E-01 0.45736579E+03</pdfrwt>
<totfact> 0.63280709E+04</totfact>
</mgrwt>
</event>
<event>
 7    0  0.4784406E-002  0.4392797E+03  0.7546771E-02  0.1030968E+00
         21   -1    0    0  502  501  0.00000000000E+00  0.00000000000E+00  0.50265772961E+02  0.50265772961E+02  0.00000000000E+00 0.  1.
         21   -1    0    0  501  502 -0.00000000000E+00 -0.00000000000E+00 -0.95973174362E+03  0.95973174362E+03  0.00000000000E+00 0.  1.
      99926    2    1    2    0    0  0.00000000000E+00  0.00000000000E+00 -0.90946597065E+03  0.10099975166E+04  0.43927967369E+03 0.  0.
      99925    2    3    3    0    0 -0.46237502605E+02  0.76693062271E+02 -0.67194280643E+03  0.72700547766E+03  0.26269772931E+03 0.  0.
         25    1    3    3    0    0  0.46237502605E+02 -0.76693062271E+02 -0.23752316422E+03  0.28299203891E+03  0.12509000000E+03 0.  0.
         25    1    4    4    0    0 -0.58918837602E+02  0.24678459710E+02 -0.37240824334E+03  0.39801490374E+03  0.12509000000E+03 0.  0.
         25    1    4    4    0    0  0.12681334997E+02  0.52014602560E+02 -0.29953456310E+03  0.32899057392E+03  0.12509000000E+03 0.  0.
<mgrwt>
<rscale>  2 0.43927967E+03</rscale>
<asrwt>0</asrwt>
<pdfrwt beam="1">  1       21 0.73920253E-02 0.43927967E+03</pdfrwt>
<pdfrwt beam="2">  1       21 0.14113702E+00 0.43927967E+03</pdfrwt>
<totfact> 0.43930089E+04</totfact>
</mgrwt>
</event>
<event>
 7    0  0.4784406E-002  0.4664393E+03  0.7546771E-02  0.1022930E+00
         21   -1    0    0  502  501  0.00000000000E+00  0.00000000000E+00  0.11138364279E+03  0.11138364279E+03  0.00000000000E+00 0. -1.
         21   -1    0    0  501  502 -0.00000000000E+00 -0.00000000000E+00 -0.48832483532E+03  0.48832483532E+03  0.00000000000E+00 0. -1.
      99926    2    1    2    0    0  0.14210854715E-13  0.71054273576E-14 -0.37694119253E+03  0.59970847811E+03  0.46643927374E+03 0.  0.
      99925    2    3    3    0    0 -0.11312274264E+03 -0.46202605434E+02 -0.21113863265E+03  0.35873247803E+03  0.26301717234E+03 0.  0.
         25    1    4    4    0    0 -0.27112670665E+02  0.25651386396E+01 -0.70643385209E+02  0.14621789501E+03  0.12509000000E+03 0.  0.
         25    1    4    4    0    0 -0.86010071975E+02 -0.48767744074E+02 -0.14049524744E+03  0.21251458302E+03  0.12509000000E+03 0.  0.
         25    1    3    3    0    0  0.11312274264E+03  0.46202605434E+02 -0.16580255988E+03  0.24097600008E+03  0.12509000000E+03 0.  0.
<mgrwt>
<rscale>  2 0.46643927E+03</rscale>
<asrwt>0</asrwt>
<pdfrwt beam="1">  1       21 0.16379948E-01 0.46643927E+03</pdfrwt>
<pdfrwt beam="2">  1       21 0.71812475E-01 0.46643927E+03</pdfrwt>
<totfact> 0.53677252E+04</totfact>
</mgrwt>
</event>
<event>
 7    0  0.4784406E-002  0.4549633E+03  0.7546771E-02  0.1026252E+00
         21   -1    0    0  502  501  0.00000000000E+00  0.00000000000E+00  0.17939148596E+03  0.17939148596E+03  0.00000000000E+00 0.  1.
         21   -1    0    0  501  502 -0.00000000000E+00 -0.00000000000E+00 -0.28846347548E+03  0.28846347548E+03  0.00000000000E+00 0.  1.
      99926    2    1    2    0    0  0.00000000000E+00  0.26645352591E-14 -0.10907198952E+03  0.46785496143E+03  0.45496325790E+03 0.  0.
      99925    2    3    3    0    0  0.23578546240E+02 -0.67871548766E+01 -0.18217700668E+03  0.32090645022E+03  0.26304082328E+03 0.  0.
         25    1    4    4    0    0  0.30727328342E+02  0.32381680968E+02 -0.95860674957E+02  0.16379718884E+03  0.12509000000E+03 0.  0.
         25    1    4    4    0    0 -0.71487821018E+01 -0.39168835845E+02 -0.86316331727E+02  0.15710926137E+03  0.12509000000E+03 0.  0.
         25    1    3    3    0    0 -0.23578546240E+02  0.67871548766E+01  0.73105017163E+02  0.14694851122E+03  0.12509000000E+03 0.  0.
<mgrwt>
<rscale>  2 0.45496326E+03</rscale>
<asrwt>0</asrwt>
<pdfrwt beam="1">  1       21 0.26381102E-01 0.45496326E+03</pdfrwt>
<pdfrwt beam="2">  1       21 0.42421098E-01 0.45496326E+03</pdfrwt>
<totfact> 0.67615423E+04</totfact>
</mgrwt>
</event>
<event>
 7    0  0.4784406E-002  0.4486357E+03  0.7546771E-02  0.1028130E+00
         21   -1    0    0  502  501  0.00000000000E+00  0.00000000000E+00  0.35230909021E+03  0.35230909021E+03  0.00000000000E+00 0.  1.
         21   -1    0    0  501  502 -0.00000000000E+00 -0.00000000000E+00 -0.14282487053E+03  0.14282487053E+03  0.00000000000E+00 0.  1.
      99926    2    1    2    0    0 -0.14210854715E-13  0.17763568394E-14  0.20948421968E+03  0.49513396074E+03  0.44863571055E+03 0.  0.
      99925    2    3    3    0    0 -0.10455869774E+03 -0.10797152111E+02  0.15518505197E+03  0.32295670475E+03  0.26300101334E+03 0.  0.
         25    1    4    4    0    0 -0.22237002274E+02 -0.34211660616E+02  0.76064917717E+02  0.15198125476E+03  0.12509000000E+03 0.  0.
         25    1    4    4    0    0 -0.82321695464E+02  0.23414508504E+02  0.79120134256E+02  0.17097544998E+03  0.12509000000E+03 0.  0.
         25    1    3    3    0    0  0.10455869774E+03  0.10797152111E+02  0.54299167705E+02  0.17217725599E+03  0.12509000000E+03 0.  0.
<mgrwt>
<rscale>  2 0.44863571E+03</rscale>
<asrwt>0</asrwt>
<pdfrwt beam="1">  1       21 0.51810160E-01 0.44863571E+03</pdfrwt>
<pdfrwt beam="2">  1       21 0.21003657E-01 0.44863571E+03</pdfrwt>
<totfact> 0.69036286E+04</totfact>
</mgrwt>
</event>
<event>
 7    0  0.4784406E-002  0.4493243E+03  0.7546771E-02  0.1027924E+00
         21   -1    0    0  502  501  0.00000000000E+00  0.00000000000E+00  0.36716899910E+03  0.36716899910E+03  0.00000000000E+00 0.  1.
         21   -1    0    0  501  502 -0.00000000000E+00 -0.00000000000E+00 -0.13746552123E+03  0.13746552123E+03  0.00000000000E+00 0.  1.
      99926    2    1    2    0    0  0.00000000000E+00  0.00000000000E+00  0.22970347787E+03  0.50463452033E+03  0.44932428308E+03 0.  0.
      99925    2    3    3    0    0  0.80359780096E+02 -0.41396827630E+02  0.21143274933E+03  0.34922306896E+03  0.26283369801E+03 0.  0.
         25    1    4    4    0    0  0.51697947514E+02  0.10538297091E+02  0.13325798430E+03  0.19023388752E+03  0.12509000000E+03 0.  0.
         25    1    3    3    0    0 -0.80359780096E+02  0.41396827630E+02  0.18270728534E+02  0.15541145137E+03  0.12509000000E+03 0.  0.
         25    1    4    4    0    0  0.28661832582E+02 -0.51935124721E+02  0.78174765031E+02  0.15898918144E+03  0.12509000000E+03 0.  0.
<mgrwt>
<rscale>  2 0.44932428E+03</rscale>
<asrwt>0</asrwt>
<pdfrwt beam="1">  1       21 0.53995441E-01 0.44932428E+03</pdfrwt>
<pdfrwt beam="2">  1       21 0.20215518E-01 0.44932428E+03</pdfrwt>
<totfact> 0.67956275E+04</totfact>
</mgrwt>
</event>
<event>
 7    0  0.4784406E-002  0.4726843E+03  0.7546771E-02  0.1021165E+00
         21   -1    0    0  502  501  0.00000000000E+00  0.00000000000E+00  0.10241374259E+03  0.10241374259E+03  0.00000000000E+00 0. -1.
         21   -1    0    0  501  502 -0.00000000000E+00 -0.00000000000E+00 -0.54541135527E+03  0.54541135527E+03  0.00000000000E+00 0. -1.
      99926    2    1    2    0    0  0.00000000000E+00 -0.14210854715E-13 -0.44299761268E+03  0.64782509785E+03  0.47268432655E+03 0.  0.
      99925    2    3    3    0    0  0.53990823557E+02 -0.72652764912E+02 -0.40066397663E+03  0.48772176210E+03  0.26295904962E+03 0.  0.
         25    1    3    3    0    0 -0.53990823557E+02  0.72652764912E+02 -0.42333636046E+02  0.16010333575E+03  0.12509000000E+03 0.  0.
         25    1    4    4    0    0  0.60658049750E+02 -0.13961103600E+02 -0.19687290274E+03  0.24141408274E+03  0.12509000000E+03 0.  0.
         25    1    4    4    0    0 -0.66672261928E+01 -0.58691661312E+02 -0.20379107390E+03  0.24630767936E+03  0.12509000000E+03 0.  0.
<mgrwt>
<rscale>  2 0.47268433E+03</rscale>
<asrwt>0</asrwt>
<pdfrwt beam="1">  1       21 0.15060845E-01 0.47268433E+03</pdfrwt>
<pdfrwt beam="2">  1       21 0.80207552E-01 0.47268433E+03</pdfrwt>
<totfact> 0.48671320E+04</totfact>
</mgrwt>
</event>
<event>
 6    0  0.4784406E-002  0.4508786E+03  0.7546771E-02  0.1027460E+00
         21   -1    0    0  502  501  0.00000000000E+00  0.00000000000E+00  0.23856635974E+03  0.23856635974E+03  0.00000000000E+00 0. -1.
         21   -1    0    0  501  502 -0.00000000000E+00 -0.00000000000E+00 -0.21303453825E+03  0.21303453825E+03  0.00000000000E+00 0. -1.
      99926    2    1    2    0    0  0.14210854715E-13  0.00000000000E+00  0.25531821485E+02  0.45160089799E+03  0.45087858361E+03 0.  0.
         25    1    3    3    0    0  0.10827176720E+03  0.11526902307E+02  0.33749894705E+02  0.16924009141E+03  0.12509000000E+03 0.  0.
         25    1    3    3    0    0 -0.18204238651E+02 -0.17360937921E+02  0.37100309726E+01  0.12764822325E+03  0.12509000000E+03 0.  0.
         25    1    3    3    0    0 -0.90067528547E+02  0.58340356134E+01 -0.11928104193E+02  0.15471258333E+03  0.12509000000E+03 0.  0.
<mgrwt>
<rscale>  2 0.45087858E+03</rscale>
<asrwt>0</asrwt>
<pdfrwt beam="1">  1       21 0.35083288E-01 0.45087858E+03</pdfrwt>
<pdfrwt beam="2">  1       21 0.31328608E-01 0.45087858E+03</pdfrwt>
<totfact> 0.71105179E+04</totfact>
</mgrwt>
</event>
<event>
 7    0  0.4784406E-002  0.4534814E+03  0.7546771E-02  0.1026689E+00
         21   -1    0    0  502  501  0.00000000000E+00  0.00000000000E+00  0.28472466588E+02  0.28472466588E+02  0.00000000000E+00 0.  1.
         21   -1    0    0  501  502 -0.00000000000E+00 -0.00000000000E+00 -0.18056509113E+04  0.18056509113E+04  0.00000000000E+00 0.  1.
      99926    2    1    2    0    0  0.00000000000E+00  0.00000000000E+00 -0.17771784447E+04  0.18341233779E+04  0.45348135680E+03 0.  0.
      99925    2    3    3    0    0  0.46996119294E+02  0.91072799771E+02 -0.93938880189E+03  0.98086967365E+03  0.26296597778E+03 0.  0.
         25    1    4    4    0    0 -0.77090519551E+01  0.49189133517E+02 -0.54622565001E+03  0.56257352335E+03  0.12509000000E+03 0.  0.
         25    1    3    3    0    0 -0.46996119294E+02 -0.91072799771E+02 -0.83778964281E+03  0.85325370423E+03  0.12509000000E+03 0.  0.
         25    1    4    4    0    0  0.54705171249E+02  0.41883666253E+02 -0.39316315188E+03  0.41829615030E+03  0.12509000000E+03 0.  0.
<mgrwt>
<rscale>  2 0.45348136E+03</rscale>
<asrwt>0</asrwt>
<pdfrwt beam="1">  1       21 0.41871280E-02 0.45348136E+03</pdfrwt>
<pdfrwt beam="2">  1       21 0.26553687E+00 0.45348136E+03</pdfrwt>
<totfact> 0.16810096E+04</totfact>
</mgrwt>
</event>
<event>
 7    0  0.4784406E-002  0.4545980E+03  0.7546771E-02  0.1026360E+00
         21   -1    0    0  502  501  0.00000000000E+00  0.00000000000E+00  0.39915346870E+03  0.39915346870E+03  0.00000000000E+00 0.  1.
         21   -1    0    0  501  502 -0.00000000000E+00 -0.00000000000E+00 -0.12943599420E+03  0.12943599420E+03  0.00000000000E+00 0.  1.
      99926    2    1    2    0    0  0.00000000000E+00 -0.35527136788E-14  0.26971747450E+03  0.52858946290E+03  0.45459795890E+03 0.  0.
      99925    2    3    3    0    0  0.85499153774E+02  0.15411333603E+02  0.25338792554E+03  0.37541708690E+03  0.26303029071E+03 0.  0.
         25    1    4    4    0    0  0.80324958566E+02 -0.92285701034E+01  0.14724846743E+03  0.20944422822E+03  0.12509000000E+03 0.  0.
         25    1    4    4    0    0  0.51741952085E+01  0.24639903707E+02  0.10613945811E+03  0.16597285868E+03  0.12509000000E+03 0.  0.
         25    1    3    3    0    0 -0.85499153774E+02 -0.15411333603E+02  0.16329548964E+02  0.15317237600E+03  0.12509000000E+03 0.  0.
<mgrwt>
<rscale>  2 0.45459796E+03</rscale>
<asrwt>0</asrwt>
<pdfrwt beam="1">  1       21 0.58699039E-01 0.45459796E+03</pdfrwt>
<pdfrwt beam="2">  1       21 0.19034705E-01 0.45459796E+03</pdfrwt>
<totfact> 0.63504251E+04</totfact>
</mgrwt>
</event>
<event>
 7    0  0.4784406E-002  0.4602235E+03  0.7546771E-02  0.1024716E+00
         21   -1    0    0  502  501  0.00000000000E+00  0.00000000000E+00  0.18745232490E+04  0.18745232490E+04  0.00000000000E+00 0.  1.
         21   -1    0    0  501  502 -0.00000000000E+00 -0.00000000000E+00 -0.28247941942E+02  0.28247941942E+02  0.00000000000E+00 0.  1.
      99926    2    1    2    0    0  0.00000000000E+00  0.14210854715E-13  0.18462753071E+04  0.19027711910E+04  0.46022352789E+03 0.  0.
      99925    2    3    3    0    0  0.92720315832E+01  0.10239255123E+03  0.13941411519E+04  0.14225181249E+04  0.26335918253E+03 0.  0.
         25    1    4    4    0    0 -0.68748566397E+01  0.14772591697E+02  0.52741534481E+03  0.54229138585E+03  0.12509000000E+03 0.  0.
         25    1    4    4    0    0  0.16146888223E+02  0.87619959534E+02  0.86672580711E+03  0.88022673904E+03  0.12509000000E+03 0.  0.
         25    1    3    3    0    0 -0.92720315832E+01 -0.10239255123E+03  0.45213415515E+03  0.48025306607E+03  0.12509000000E+03 0.  0.
<mgrwt>
<rscale>  2 0.46022353E+03</rscale>
<asrwt>0</asrwt>
<pdfrwt beam="1">  1       21 0.27566510E+00 0.46022353E+03</pdfrwt>
<pdfrwt beam="2">  1       21 0.41541104E-02 0.46022353E+03</pdfrwt>
<totfact> 0.14755533E+04</totfact>
</mgrwt>
</event>
<event>
 7    0  0.4784406E-002  0.4677046E+03  0.7546771E-02  0.1022570E+00
         21   -1    0    0  502  501  0.00000000000E+00  0.00000000000E+00  0.23985071261E+02  0.23985071261E+02  0.00000000000E+00 0.  1.
         21   -1    0    0  501  502 -0.00000000000E+00 -0.00000000000E+00 -0.22800391598E+04  0.22800391598E+04  0.00000000000E+00 0.  1.
      99926    2    1    2    0    0  0.71054273576E-14  0.00000000000E+00 -0.22560540885E+04  0.23040242310E+04  0.46770461500E+03 0.  0.
      99925    2    3    3    0    0  0.56357386604E+02  0.41955984966E+02 -0.19116899264E+04  0.19309684123E+04  0.26295279919E+03 0.  0.
         25    1    4    4    0    0  0.16226465341E+02  0.41106118774E+01 -0.67068631262E+03  0.68245720258E+03  0.12509000000E+03 0.  0.
         25    1    3    3    0    0 -0.56357386604E+02 -0.41955984966E+02 -0.34436416207E+03  0.37305581877E+03  0.12509000000E+03 0.  0.
         25    1    4    4    0    0  0.40130921263E+02  0.37845373088E+02 -0.12410036138E+04  0.12485112097E+04  0.12509000000E+03 0.  0.
<mgrwt>
<rscale>  2 0.46770462E+03</rscale>
<asrwt>0</asrwt>
<pdfrwt beam="1">  1       21 0.35272180E-02 0.46770462E+03</pdfrwt>
<pdfrwt beam="2">  1       21 0.33529972E+00 0.46770462E+03</pdfrwt>
<totfact> 0.84821944E+03</totfact>
</mgrwt>
</event>
<event>
 7    0  0.4784406E-002  0.4491389E+03  0.7546771E-02  0.1027979E+00
         21   -1    0    0  502  501  0.00000000000E+00  0.00000000000E+00  0.74730834113E+02  0.74730834113E+02  0.00000000000E+00 0.  1.
         21   -1    0    0  501  502 -0.00000000000E+00 -0.00000000000E+00 -0.67484117877E+03  0.67484117877E+03  0.00000000000E+00 0.  1.
      99926    2    1    2    0    0 -0.35527136788E-14 -0.14210854715E-13 -0.60011034466E+03  0.74957201289E+03  0.44913892810E+03 0.  0.
      99925    2    3    3    0    0 -0.26130634185E+02 -0.82216206999E+02 -0.48712935071E+03  0.56021909416E+03  0.26288422243E+03 0.  0.
         25    1    3    3    0    0  0.26130634185E+02  0.82216206999E+02 -0.11298099395E+03  0.18935291873E+03  0.12509000000E+03 0.  0.
         25    1    4    4    0    0  0.21556113175E+02 -0.24336559648E+02 -0.19915683980E+03  0.23741922646E+03  0.12509000000E+03 0.  0.
         25    1    4    4    0    0 -0.47686747360E+02 -0.57879647351E+02 -0.28797251091E+03  0.32279986770E+03  0.12509000000E+03 0.  0.
<mgrwt>
<rscale>  2 0.44913893E+03</rscale>
<asrwt>0</asrwt>
<pdfrwt beam="1">  1       21 0.10989828E-01 0.44913893E+03</pdfrwt>
<pdfrwt beam="2">  1       21 0.99241352E-01 0.44913893E+03</pdfrwt>
<totfact> 0.52677770E+04</totfact>
</mgrwt>
</event>
<event>
 7    0  0.4784406E-002  0.4693657E+03  0.7546771E-02  0.1022099E+00
         21   -1    0    0  502  501  0.00000000000E+00  0.00000000000E+00  0.15905875392E+03  0.15905875392E+03  0.00000000000E+00 0.  1.
         21   -1    0    0  501  502 -0.00000000000E+00 -0.00000000000E+00 -0.34626226147E+03  0.34626226147E+03  0.00000000000E+00 0.  1.
      99926    2    1    2    0    0 -0.71054273576E-14  0.17763568394E-14 -0.18720350755E+03  0.50532101539E+03  0.46936571600E+03 0.  0.
      99925    2    3    3    0    0 -0.35555450329E+02  0.14673718902E+02 -0.24572803911E+03  0.36196085018E+03  0.26297125278E+03 0.  0.
         25    1    4    4    0    0 -0.48874652899E+02  0.33192160632E+02 -0.11978317234E+03  0.18299171484E+03  0.12509000000E+03 0.  0.
         25    1    3    3    0    0  0.35555450329E+02 -0.14673718902E+02  0.58524531553E+02  0.14336016521E+03  0.12509000000E+03 0.  0.
         25    1    4    4    0    0  0.13319202570E+02 -0.18518441730E+02 -0.12594486676E+03  0.17896913534E+03  0.12509000000E+03 0.  0.
<mgrwt>
<rscale>  2 0.46936572E+03</rscale>
<asrwt>0</asrwt>
<pdfrwt beam="1">  1       21 0.23390993E-01 0.46936572E+03</pdfrwt>
<pdfrwt beam="2">  1       21 0.50920921E-01 0.46936572E+03</pdfrwt>
<totfact> 0.57996944E+04</totfact>
</mgrwt>
</event>
<event>
 7    0  0.4784406E-002  0.4536307E+03  0.7546771E-02  0.1026645E+00
         21   -1    0    0  502  501  0.00000000000E+00  0.00000000000E+00  0.57002958566E+02  0.57002958566E+02  0.00000000000E+00 0. -1.
         21   -1    0    0  501  502 -0.00000000000E+00 -0.00000000000E+00 -0.90250056305E+03  0.90250056305E+03  0.00000000000E+00 0. -1.
      99926    2    1    2    0    0  0.44408920985E-15  0.00000000000E+00 -0.84549760448E+03  0.95950352161E+03  0.45363069650E+03 0.  0.
      99925    2    3    3    0    0 -0.86124785698E+00 -0.72761185085E+02 -0.35268522628E+03  0.44588257188E+03  0.26292483196E+03 0.  0.
         25    1    3    3    0    0  0.86124785698E+00  0.72761185085E+02 -0.49281237820E+03  0.51362094973E+03  0.12509000000E+03 0.  0.
         25    1    4    4    0    0  0.27473485655E+02 -0.13844145153E+02 -0.13636670652E+03  0.18758955066E+03  0.12509000000E+03 0.  0.
         25    1    4    4    0    0 -0.28334733512E+02 -0.58917039932E+02 -0.21631851976E+03  0.25829302122E+03  0.12509000000E+03 0.  0.
<mgrwt>
<rscale>  2 0.45363070E+03</rscale>
<asrwt>0</asrwt>
<pdfrwt beam="1">  1       21 0.83827887E-02 0.45363070E+03</pdfrwt>
<pdfrwt beam="2">  1       21 0.13272066E+00 0.45363070E+03</pdfrwt>
<totfact> 0.41197703E+04</totfact>
</mgrwt>
</event>
<event>
 7    0  0.4784406E-002  0.4498683E+03  0.7546771E-02  0.1027761E+00
         21   -1    0    0  502  501  0.00000000000E+00  0.00000000000E+00  0.19643036039E+03  0.19643036039E+03  0.00000000000E+00 0. -1.
         21   -1    0    0  501  502 -0.00000000000E+00 -0.00000000000E+00 -0.25757412443E+03  0.25757412443E+03  0.00000000000E+00 0. -1.
      99926    2    1    2    0    0  0.00000000000E+00  0.71054273576E-14 -0.61143764038E+02  0.45400448482E+03  0.44986832779E+03 0.  0.
      99925    2    3    3    0    0 -0.84582565227E+02 -0.41296327291E+02  0.15252756704E+02  0.27981053122E+03  0.26306214058E+03 0.  0.
         25    1    3    3    0    0  0.84582565227E+02  0.41296327291E+02 -0.76396520742E+02  0.17419395360E+03  0.12509000000E+03 0.  0.
         25    1    4    4    0    0 -0.68299545163E+02 -0.54073788020E+02  0.13171991697E+02  0.15300265320E+03  0.12509000000E+03 0.  0.
         25    1    4    4    0    0 -0.16283020064E+02  0.12777460730E+02  0.20807650076E+01  0.12680787802E+03  0.12509000000E+03 0.  0.
<mgrwt>
<rscale>  2 0.44986833E+03</rscale>
<asrwt>0</asrwt>
<pdfrwt beam="1">  1       21 0.28886818E-01 0.44986833E+03</pdfrwt>
<pdfrwt beam="2">  1       21 0.37878547E-01 0.44986833E+03</pdfrwt>
<totfact> 0.71501353E+04</totfact>
</mgrwt>
</event>
<event>
 7    0  0.4784406E-002  0.4606887E+03  0.7546771E-02  0.1024582E+00
         21   -1    0    0  502  501  0.00000000000E+00  0.00000000000E+00  0.60498386731E+02  0.60498386731E+02  0.00000000000E+00 0. -1.
         21   -1    0    0  501  502 -0.00000000000E+00 -0.00000000000E+00 -0.87702353747E+03  0.87702353747E+03  0.00000000000E+00 0. -1.
      99926    2    1    2    0    0  0.14210854715E-13  0.71054273576E-14 -0.81652515074E+03  0.93752192420E+03  0.46068865470E+03 0.  0.
      99925    2    3    3    0    0 -0.10420969573E+03 -0.53261725604E+02 -0.54674441615E+03  0.61795092277E+03  0.26313003299E+03 0.  0.
         25    1    4    4    0    0 -0.11764789664E+02 -0.33870044482E+02 -0.22123564704E+03  0.25666770309E+03  0.12509000000E+03 0.  0.
         25    1    4    4    0    0 -0.92444906069E+02 -0.19391681122E+02 -0.32550876911E+03  0.36128321968E+03  0.12509000000E+03 0.  0.
         25    1    3    3    0    0  0.10420969573E+03  0.53261725604E+02 -0.26978073459E+03  0.31957100143E+03  0.12509000000E+03 0.  0.
<mgrwt>
<rscale>  2 0.46068865E+03</rscale>
<asrwt>0</asrwt>
<pdfrwt beam="1">  1       21 0.88968210E-02 0.46068865E+03</pdfrwt>
<pdfrwt beam="2">  1       21 0.12897406E+00 0.46068865E+03</pdfrwt>
<totfact> 0.39847633E+04</totfact>
</mgrwt>
</event>
<event>
 7    0  0.4784406E-002  0.4668907E+03  0.7546771E-02  0.1022801E+00
         21   -1    0    0  502  501  0.00000000000E+00  0.00000000000E+00  0.14231196673E+03  0.14231196673E+03  0.00000000000E+00 0. -1.
         21   -1    0    0  501  502 -0.00000000000E+00 -0.00000000000E+00 -0.38293844911E+03  0.38293844911E+03  0.00000000000E+00 0. -1.
      99926    2    1    2    0    0 -0.35527136788E-14  0.14210854715E-13 -0.24062648238E+03  0.52525041584E+03  0.46689066742E+03 0.  0.
      99925    2    3    3    0    0  0.19843910707E+02 -0.11765208901E+03 -0.19242698648E+03  0.34578873652E+03  0.26135399431E+03 0.  0.
         25    1    3    3    0    0 -0.19843910707E+02  0.11765208901E+03 -0.48199495900E+02  0.17946167932E+03  0.12509000000E+03 0.  0.
         25    1    4    4    0    0  0.25628980254E+02 -0.69858494582E+02 -0.13973763935E+03  0.20177009155E+03  0.12509000000E+03 0.  0.
         25    1    4    4    0    0 -0.57850695467E+01 -0.47793594425E+02 -0.52689347127E+02  0.14401864497E+03  0.12509000000E+03 0.  0.
<mgrwt>
<rscale>  2 0.46689067E+03</rscale>
<asrwt>0</asrwt>
<pdfrwt beam="1">  1       21 0.20928231E-01 0.46689067E+03</pdfrwt>
<pdfrwt beam="2">  1       21 0.56314477E-01 0.46689067E+03</pdfrwt>
<totfact> 0.57874992E+04</totfact>
</mgrwt>
</event>
<event>
 7    0  0.4784406E-002  0.4605620E+03  0.7546771E-02  0.1024618E+00
         21   -1    0    0  502  501  0.00000000000E+00  0.00000000000E+00  0.42341524110E+03  0.42341524110E+03  0.00000000000E+00 0.  1.
         21   -1    0    0  501  502 -0.00000000000E+00 -0.00000000000E+00 -0.12524192715E+03  0.12524192715E+03  0.00000000000E+00 0.  1.
      99926    2    1    2    0    0  0.14210854715E-13 -0.71054273576E-14  0.29817331395E+03  0.54865716825E+03  0.46056200790E+03 0.  0.
      99925    2    3    3    0    0  0.10708929923E+03 -0.40620793526E+02  0.21941169837E+03  0.36165698893E+03  0.26369701815E+03 0.  0.
         25    1    3    3    0    0 -0.10708929923E+03  0.40620793526E+02  0.78761615575E+02  0.18700017932E+03  0.12509000000E+03 0.  0.
         25    1    4    4    0    0  0.75531266394E+02 -0.17206931947E+02  0.70203282395E+02  0.16302472104E+03  0.12509000000E+03 0.  0.
         25    1    4    4    0    0  0.31558032839E+02 -0.23413861579E+02  0.14920841598E+03  0.19863226790E+03  0.12509000000E+03 0.  0.
<mgrwt>
<rscale>  2 0.46056201E+03</rscale>
<asrwt>0</asrwt>
<pdfrwt beam="1">  1       21 0.62266947E-01 0.46056201E+03</pdfrwt>
<pdfrwt beam="2">  1       21 0.18417931E-01 0.46056201E+03</pdfrwt>
<totfact> 0.59302144E+04</totfact>
</mgrwt>
</event>
<event>
 7    0  0.4784406E-002  0.4530832E+03  0.7546771E-02  0.1026807E+00
         21   -1    0    0  502  501  0.00000000000E+00  0.00000000000E+00  0.48515449112E+03  0.48515449112E+03  0.00000000000E+00 0. -1.
         21   -1    0    0  501  502 -0.00000000000E+00 -0.00000000000E+00 -0.10578301606E+03  0.10578301606E+03  0.00000000000E+00 0. -1.
      99926    2    1    2    0    0 -0.53290705182E-14  0.00000000000E+00  0.37937147506E+03  0.59093750717E+03  0.45308323882E+03 0.  0.
      99925    2    3    3    0    0  0.20504434721E+01 -0.14270248742E+02  0.94529792355E+02  0.27950511223E+03  0.26263926173E+03 0.  0.
         25    1    4    4    0    0  0.37372089906E+02 -0.23666757512E+02  0.49902896571E+02  0.14175540801E+03  0.12509000000E+03 0.  0.
         25    1    3    3    0    0 -0.20504434721E+01  0.14270248742E+02  0.28484168270E+03  0.31143239495E+03  0.12509000000E+03 0.  0.
         25    1    4    4    0    0 -0.35321646434E+02  0.93965087705E+01  0.44626895783E+02  0.13774970421E+03  0.12509000000E+03 0.  0.
<mgrwt>
<rscale>  2 0.45308324E+03</rscale>
<asrwt>0</asrwt>
<pdfrwt beam="1">  1       21 0.71346248E-01 0.45308324E+03</pdfrwt>
<pdfrwt beam="2">  1       21 0.15556326E-01 0.45308324E+03</pdfrwt>
<totfact> 0.60145540E+04</totfact>
</mgrwt>
</event>
<event>
 7    0  0.4784406E-002  0.4555054E+03  0.7546771E-02  0.1026093E+00
         21   -1    0    0  502  501  0.00000000000E+00  0.00000000000E+00  0.43224923841E+03  0.43224923841E+03  0.00000000000E+00 0.  1.
         21   -1    0    0  501  502 -0.00000000000E+00 -0.00000000000E+00 -0.12000317864E+03  0.12000317864E+03  0.00000000000E+00 0.  1.
      99926    2    1    2    0    0  0.00000000000E+00 -0.19984014443E-14  0.31224605977E+03  0.55225241706E+03  0.45550535705E+03 0.  0.
      99925    2    3    3    0    0 -0.79825062036E+02 -0.18607751634E+01  0.29443176289E+03  0.40278549668E+03  0.26300302341E+03 0.  0.
         25    1    4    4    0    0 -0.24588873119E+02 -0.25220031979E+02  0.18506448421E+03  0.22613499090E+03  0.12509000000E+03 0.  0.
         25    1    4    4    0    0 -0.55236188917E+02  0.23359256815E+02  0.10936727869E+03  0.17665050578E+03  0.12509000000E+03 0.  0.
         25    1    3    3    0    0  0.79825062036E+02  0.18607751634E+01  0.17814296874E+02  0.14946692037E+03  0.12509000000E+03 0.  0.
<mgrwt>
<rscale>  2 0.45550536E+03</rscale>
<asrwt>0</asrwt>
<pdfrwt beam="1">  1       21 0.63566064E-01 0.45550536E+03</pdfrwt>
<pdfrwt beam="2">  1       21 0.17647526E-01 0.45550536E+03</pdfrwt>
<totfact> 0.61471776E+04</totfact>
</mgrwt>
</event>
<event>
 7    0  0.4784406E-002  0.4263492E+03  0.7546771E-02  0.1035019E+00
         21   -1    0    0  502  501  0.00000000000E+00  0.00000000000E+00  0.24448221309E+02  0.24448221309E+02  0.00000000000E+00 0. -1.
         21   -1    0    0  501  502 -0.00000000000E+00 -0.00000000000E+00 -0.18587617911E+04  0.18587617911E+04  0.00000000000E+00 0. -1.
      99926    2    1    2    0    0  0.00000000000E+00  0.88817841970E-15 -0.18343135698E+04  0.18832100124E+04  0.42634924477E+03 0.  0.
      99925    2    3    3    0    0 -0.81168366813E+02  0.62781198721E+01 -0.11084163749E+04  0.11421283947E+04  0.26314005988E+03 0.  0.
         25    1    4    4    0    0 -0.72789063201E+02  0.29965574997E+02 -0.58284703629E+03  0.60129390419E+03  0.12509000000E+03 0.  0.
         25    1    3    3    0    0  0.81168366813E+02 -0.62781198721E+01 -0.72589719487E+03  0.74108161776E+03  0.12509000000E+03 0.  0.
         25    1    4    4    0    0 -0.83793036124E+01 -0.23687455124E+02 -0.52556933865E+03  0.54083449047E+03  0.12509000000E+03 0.  0.
<mgrwt>
<rscale>  2 0.42634924E+03</rscale>
<asrwt>0</asrwt>
<pdfrwt beam="1">  1       21 0.35953257E-02 0.42634924E+03</pdfrwt>
<pdfrwt beam="2">  1       21 0.27334740E+00 0.42634924E+03</pdfrwt>
<totfact> 0.19752361E+04</totfact>
</mgrwt>
</event>
<event>
 7    0  0.4784406E-002  0.4561675E+03  0.7546771E-02  0.1025899E+00
         21   -1    0    0  502  501  0.00000000000E+00  0.00000000000E+00  0.43562176433E+03  0.43562176433E+03  0.00000000000E+00 0. -1.
         21   -1    0    0  501  502 -0.00000000000E+00 -0.00000000000E+00 -0.11942057657E+03  0.11942057657E+03  0.00000000000E+00 0. -1.
      99926    2    1    2    0    0  0.00000000000E+00  0.00000000000E+00  0.31620118776E+03  0.55504234090E+03  0.45616752301E+03 0.  0.
      99925    2    3    3    0    0 -0.10889220778E+03 -0.33013780902E+02  0.18624342014E+03  0.34177267097E+03  0.26301050252E+03 0.  0.
         25    1    4    4    0    0 -0.69300878716E+02  0.15244398029E+02  0.11889133986E+03  0.18659491487E+03  0.12509000000E+03 0.  0.
         25    1    4    4    0    0 -0.39591329063E+02 -0.48258178931E+02  0.67352080275E+02  0.15517775610E+03  0.12509000000E+03 0.  0.
         25    1    3    3    0    0  0.10889220778E+03  0.33013780902E+02  0.12995776762E+03  0.21326966992E+03  0.12509000000E+03 0.  0.
<mgrwt>
<rscale>  2 0.45616752E+03</rscale>
<asrwt>0</asrwt>
<pdfrwt beam="1">  1       21 0.64062023E-01 0.45616752E+03</pdfrwt>
<pdfrwt beam="2">  1       21 0.17561850E-01 0.45616752E+03</pdfrwt>
<totfact> 0.60969457E+04</totfact>
</mgrwt>
</event>
<event>
 7    0  0.4784406E-002  0.4543632E+03  0.7546771E-02  0.1026429E+00
         21   -1    0    0  502  501  0.00000000000E+00  0.00000000000E+00  0.20812182831E+02  0.20812182831E+02  0.00000000000E+00 0.  1.
         21   -1    0    0  501  502 -0.00000000000E+00 -0.00000000000E+00 -0.24798688281E+04  0.24798688281E+04  0.00000000000E+00 0.  1.
      99926    2    1    2    0    0  0.00000000000E+00 -0.71054273576E-14 -0.24590566453E+04  0.25006810109E+04  0.45436321791E+03 0.  0.
      99925    2    3    3    0    0 -0.84269967658E+02 -0.45952911267E+02 -0.18718645384E+04  0.18926882675E+04  0.26301887880E+03 0.  0.
         25    1    4    4    0    0 -0.70636698987E+02 -0.29231938449E+01 -0.11163745937E+04  0.11255833287E+04  0.12509000000E+03 0.  0.
         25    1    4    4    0    0 -0.13633268671E+02 -0.43029717422E+02 -0.75548994467E+03  0.76710493884E+03  0.12509000000E+03 0.  0.
         25    1    3    3    0    0  0.84269967658E+02  0.45952911267E+02 -0.58719210692E+03  0.60799274340E+03  0.12509000000E+03 0.  0.
<mgrwt>
<rscale>  2 0.45436322E+03</rscale>
<asrwt>0</asrwt>
<pdfrwt beam="1">  1       21 0.30606166E-02 0.45436322E+03</pdfrwt>
<pdfrwt beam="2">  1       21 0.36468642E+00 0.45436322E+03</pdfrwt>
<totfact> 0.71602031E+03</totfact>
</mgrwt>
</event>
<event>
 7    0  0.4784406E-002  0.4548561E+03  0.7546771E-02  0.1026284E+00
         21   -1    0    0  502  501  0.00000000000E+00  0.00000000000E+00  0.87014970922E+03  0.87014970922E+03  0.00000000000E+00 0. -1.
         21   -1    0    0  501  502 -0.00000000000E+00 -0.00000000000E+00 -0.59442089761E+02  0.59442089761E+02  0.00000000000E+00 0. -1.
      99926    2    1    2    0    0  0.00000000000E+00 -0.17763568394E-14  0.81070761946E+03  0.92959179898E+03  0.45485609646E+03 0.  0.
      99925    2    3    3    0    0  0.40874336388E+02 -0.14611170505E+02  0.29758269064E+03  0.39965888025E+03  0.26322531245E+03 0.  0.
         25    1    3    3    0    0 -0.40874336388E+02  0.14611170505E+02  0.51312492882E+03  0.52993291873E+03  0.12509000000E+03 0.  0.
         25    1    4    4    0    0 -0.12278871996E+01 -0.16930497264E+02  0.19581585511E+03  0.23297962713E+03  0.12509000000E+03 0.  0.
         25    1    4    4    0    0  0.42102223588E+02  0.23193267589E+01  0.10176683553E+03  0.16667925312E+03  0.12509000000E+03 0.  0.
<mgrwt>
<rscale>  2 0.45485610E+03</rscale>
<asrwt>0</asrwt>
<pdfrwt beam="1">  1       21 0.12796318E+00 0.45485610E+03</pdfrwt>
<pdfrwt beam="2">  1       21 0.87414843E-02 0.45485610E+03</pdfrwt>
<totfact> 0.42025745E+04</totfact>
</mgrwt>
</event>
<event>
 7    0  0.4784406E-002  0.4641447E+03  0.7546771E-02  0.1023586E+00
         21   -1    0    0  502  501  0.00000000000E+00  0.00000000000E+00  0.10320411188E+04  0.10320411188E+04  0.00000000000E+00 0. -1.
         21   -1    0    0  501  502 -0.00000000000E+00 -0.00000000000E+00 -0.52185499882E+02  0.52185499882E+02  0.00000000000E+00 0. -1.
      99926    2    1    2    0    0  0.00000000000E+00 -0.71054273576E-14  0.97985561888E+03  0.10842266186E+04  0.46414472606E+03 0.  0.
      99925    2    3    3    0    0  0.15163899287E+02  0.56968262258E+02  0.36352263993E+03  0.45257071882E+03  0.26305174214E+03 0.  0.
         25    1    4    4    0    0 -0.21831872960E+02  0.45892768597E+02  0.14742714992E+03  0.19991260471E+03  0.12509000000E+03 0.  0.
         25    1    4    4    0    0  0.36995772246E+02  0.11075493661E+02  0.21609549001E+03  0.25265811412E+03  0.12509000000E+03 0.  0.
         25    1    3    3    0    0 -0.15163899287E+02 -0.56968262258E+02  0.61633297894E+03  0.63165589982E+03  0.12509000000E+03 0.  0.
<mgrwt>
<rscale>  2 0.46414473E+03</rscale>
<asrwt>0</asrwt>
<pdfrwt beam="1">  1       21 0.15177074E+00 0.46414473E+03</pdfrwt>
<pdfrwt beam="2">  1       21 0.76743389E-02 0.46414473E+03</pdfrwt>
<totfact> 0.33584899E+04</totfact>
</mgrwt>
</event>
<event>
 7    0  0.4784406E-002  0.4598835E+03  0.7546771E-02  0.1024815E+00
         21   -1    0    0  502  501  0.00000000000E+00  0.00000000000E+00  0.81014293425E+02  0.81014293425E+02  0.00000000000E+00 0. -1.
         21   -1    0    0  501  502 -0.00000000000E+00 -0.00000000000E+00 -0.65264036741E+03  0.65264036741E+03  0.00000000000E+00 0. -1.
      99926    2    1    2    0    0  0.14210854715E-13  0.88817841970E-15 -0.57162607398E+03  0.73365466083E+03  0.45988345578E+03 0.  0.
      99925    2    3    3    0    0 -0.10588678059E+03 -0.68774126940E+01 -0.43947786403E+03  0.52301286393E+03  0.26294933686E+03 0.  0.
         25    1    4    4    0    0 -0.96536917211E+02 -0.52277280981E+01 -0.24327875300E+03  0.29013577044E+03  0.12509000000E+03 0.  0.
         25    1    4    4    0    0 -0.93498633800E+01 -0.16496845959E+01 -0.19619911103E+03  0.23287709349E+03  0.12509000000E+03 0.  0.
         25    1    3    3    0    0  0.10588678059E+03  0.68774126940E+01 -0.13214820995E+03  0.21064179691E+03  0.12509000000E+03 0.  0.
<mgrwt>
<rscale>  2 0.45988346E+03</rscale>
<asrwt>0</asrwt>
<pdfrwt beam="1">  1       21 0.11913867E-01 0.45988346E+03</pdfrwt>
<pdfrwt beam="2">  1       21 0.95976521E-01 0.45988346E+03</pdfrwt>
<totfact> 0.49197097E+04</totfact>
</mgrwt>
</event>
<event>
 7    0  0.4784406E-002  0.4311436E+03  0.7546771E-02  0.1033499E+00
         21   -1    0    0  502  501  0.00000000000E+00  0.00000000000E+00  0.27688487375E+03  0.27688487375E+03  0.00000000000E+00 0.  1.
         21   -1    0    0  501  502 -0.00000000000E+00 -0.00000000000E+00 -0.16783582418E+03  0.16783582418E+03  0.00000000000E+00 0.  1.
      99926    2    1    2    0    0 -0.71054273576E-14  0.71054273576E-14  0.10904904957E+03  0.44472069793E+03  0.43114360015E+03 0.  0.
      99925    2    3    3    0    0  0.41188445068E+02 -0.44305263434E+02  0.13750581435E+03  0.30288720422E+03  0.26300829858E+03 0.  0.
         25    1    3    3    0    0 -0.41188445068E+02  0.44305263434E+02 -0.28456764784E+02  0.14183349371E+03  0.12509000000E+03 0.  0.
         25    1    4    4    0    0 -0.11675000328E+02 -0.46678507111E+02  0.66101746219E+02  0.14943941117E+03  0.12509000000E+03 0.  0.
         25    1    4    4    0    0  0.52863445396E+02  0.23732436772E+01  0.71404068134E+02  0.15344779305E+03  0.12509000000E+03 0.  0.
<mgrwt>
<rscale>  2 0.43114360E+03</rscale>
<asrwt>0</asrwt>
<pdfrwt beam="1">  1       21 0.40718364E-01 0.43114360E+03</pdfrwt>
<pdfrwt beam="2">  1       21 0.24681739E-01 0.43114360E+03</pdfrwt>
<totfact> 0.84203404E+04</totfact>
</mgrwt>
</event>
<event>
 7    0  0.4784406E-002  0.4550511E+03  0.7546771E-02  0.1026226E+00
         21   -1    0    0  502  501  0.00000000000E+00  0.00000000000E+00  0.62574055871E+03  0.62574055871E+03  0.00000000000E+00 0. -1.
         21   -1    0    0  501  502 -0.00000000000E+00 -0.00000000000E+00 -0.82730584694E+02  0.82730584694E+02  0.00000000000E+00 0. -1.
      99926    2    1    2    0    0  0.71054273576E-14  0.00000000000E+00  0.54300997402E+03  0.70847114341E+03  0.45505112807E+03 0.  0.
      99925    2    3    3    0    0 -0.60750591572E+02  0.94869267253E+02  0.35974293070E+03  0.45962354042E+03  0.26296009293E+03 0.  0.
         25    1    4    4    0    0 -0.68277913092E+02  0.59786909318E+02  0.21774138906E+03  0.26701155134E+03  0.12509000000E+03 0.  0.
         25    1    4    4    0    0  0.75273215200E+01  0.35082357935E+02  0.14200154164E+03  0.19261198907E+03  0.12509000000E+03 0.  0.
         25    1    3    3    0    0  0.60750591572E+02 -0.94869267253E+02  0.18326704332E+03  0.24884760299E+03  0.12509000000E+03 0.  0.
<mgrwt>
<rscale>  2 0.45505113E+03</rscale>
<asrwt>0</asrwt>
<pdfrwt beam="1">  1       21 0.92020668E-01 0.45505113E+03</pdfrwt>
<pdfrwt beam="2">  1       21 0.12166263E-01 0.45505113E+03</pdfrwt>
<totfact> 0.52424355E+04</totfact>
</mgrwt>
</event>
<event>
 7    0  0.4784406E-002  0.4496499E+03  0.7546771E-02  0.1027826E+00
         21   -1    0    0  502  501  0.00000000000E+00  0.00000000000E+00  0.99657472584E+03  0.99657472584E+03  0.00000000000E+00 0. -1.
         21   -1    0    0  501  502 -0.00000000000E+00 -0.00000000000E+00 -0.50719985707E+02  0.50719985707E+02  0.00000000000E+00 0. -1.
      99926    2    1    2    0    0  0.00000000000E+00  0.00000000000E+00  0.94585474014E+03  0.10472947116E+04  0.44964988981E+03 0.  0.
      99925    2    3    3    0    0  0.97670211765E+02  0.45762975068E+02  0.58228950104E+03  0.64796914095E+03  0.26300042672E+03 0.  0.
         25    1    3    3    0    0 -0.97670211765E+02 -0.45762975068E+02  0.36356523910E+03  0.39932557060E+03  0.12509000000E+03 0.  0.
         25    1    4    4    0    0  0.78290067444E+02  0.53501749955E+02  0.34050869176E+03  0.37494726185E+03  0.12509000000E+03 0.  0.
         25    1    4    4    0    0  0.19380144320E+02 -0.77387748878E+01  0.24178080928E+03  0.27302187910E+03  0.12509000000E+03 0.  0.
<mgrwt>
<rscale>  2 0.44964989E+03</rscale>
<asrwt>0</asrwt>
<pdfrwt beam="1">  1       21 0.14655509E+00 0.44964989E+03</pdfrwt>
<pdfrwt beam="2">  1       21 0.74588221E-02 0.44964989E+03</pdfrwt>
<totfact> 0.38979319E+04</totfact>
</mgrwt>
</event>
<event>
 7    0  0.4784406E-002  0.4378177E+03  0.7546771E-02  0.1031418E+00
         21   -1    0    0  502  501  0.00000000000E+00  0.00000000000E+00  0.89825804276E+03  0.89825804276E+03  0.00000000000E+00 0. -1.
         21   -1    0    0  501  502 -0.00000000000E+00 -0.00000000000E+00 -0.53348901897E+02  0.53348901897E+02  0.00000000000E+00 0. -1.
      99926    2    1    2    0    0  0.00000000000E+00 -0.71054273576E-14  0.84490914086E+03  0.95160694465E+03  0.43781767987E+03 0.  0.
      99925    2    3    3    0    0  0.44208378117E+02  0.51045638881E+02  0.39181211911E+03  0.47673384880E+03  0.26305586473E+03 0.  0.
         25    1    4    4    0    0 -0.98807481824E+01  0.29663927910E+01  0.20768516079E+03  0.24266656709E+03  0.12509000000E+03 0.  0.
         25    1    3    3    0    0 -0.44208378117E+02 -0.51045638881E+02  0.45309702175E+03  0.47487309585E+03  0.12509000000E+03 0.  0.
         25    1    4    4    0    0  0.54089126299E+02  0.48079246090E+02  0.18412695832E+03  0.23406728172E+03  0.12509000000E+03 0.  0.
<mgrwt>
<rscale>  2 0.43781768E+03</rscale>
<asrwt>0</asrwt>
<pdfrwt beam="1">  1       21 0.13209676E+00 0.43781768E+03</pdfrwt>
<pdfrwt beam="2">  1       21 0.78454273E-02 0.43781768E+03</pdfrwt>
<totfact> 0.47091651E+04</totfact>
</mgrwt>
</event>
<event>
 7    0  0.4784406E-002  0.4547667E+03  0.7546771E-02  0.1026310E+00
         21   -1    0    0  502  501  0.00000000000E+00  0.00000000000E+00  0.18085322881E+03  0.18085322881E+03  0.00000000000E+00 0. -1.
         21   -1    0    0  501  502 -0.00000000000E+00 -0.00000000000E+00 -0.28588479663E+03  0.28588479663E+03  0.00000000000E+00 0. -1.
      99926    2    1    2    0    0  0.00000000000E+00  0.00000000000E+00 -0.10503156783E+03  0.46673802544E+03  0.45476670299E+03 0.  0.
      99925    2    3    3    0    0 -0.48958501370E+02  0.11232999852E+02 -0.16996602947E+03  0.31711480682E+03  0.26296432151E+03 0.  0.
         25    1    3    3    0    0  0.48958501370E+02 -0.11232999852E+02  0.64934461647E+02  0.14962321862E+03  0.12509000000E+03 0.  0.
         25    1    4    4    0    0 -0.34869434804E+01 -0.14743012527E+02 -0.48356595541E+02  0.13496437910E+03  0.12509000000E+03 0.  0.
         25    1    4    4    0    0 -0.45471557890E+02  0.25976012379E+02 -0.12160943393E+03  0.18215042772E+03  0.12509000000E+03 0.  0.
<mgrwt>
<rscale>  2 0.45476670E+03</rscale>
<asrwt>0</asrwt>
<pdfrwt beam="1">  1       21 0.26596063E-01 0.45476670E+03</pdfrwt>
<pdfrwt beam="2">  1       21 0.42041882E-01 0.45476670E+03</pdfrwt>
<totfact> 0.67804746E+04</totfact>
</mgrwt>
</event>
<event>
 7    0  0.4784406E-002  0.4522564E+03  0.7546771E-02  0.1027051E+00
         21   -1    0    0  502  501  0.00000000000E+00  0.00000000000E+00  0.53917678919E+02  0.53917678919E+02  0.00000000000E+00 0. -1.
         21   -1    0    0  501  502 -0.00000000000E+00 -0.00000000000E+00 -0.94837096955E+03  0.94837096955E+03  0.00000000000E+00 0. -1.
      99926    2    1    2    0    0  0.00000000000E+00  0.00000000000E+00 -0.89445329063E+03  0.10022886485E+04  0.45225639380E+03 0.  0.
      99925    2    3    3    0    0 -0.94677716652E+02 -0.16212346182E+02 -0.44384545355E+03  0.52487725235E+03  0.26319314810E+03 0.  0.
         25    1    4    4    0    0 -0.57099958858E+02  0.12939958116E+02 -0.28836829960E+03  0.31973681698E+03  0.12509000000E+03 0.  0.
         25    1    3    3    0    0  0.94677716652E+02  0.16212346182E+02 -0.45060783709E+03  0.47741139612E+03  0.12509000000E+03 0.  0.
         25    1    4    4    0    0 -0.37577757794E+02 -0.29152304298E+02 -0.15547715395E+03  0.20514043537E+03  0.12509000000E+03 0.  0.
<mgrwt>
<rscale>  2 0.45225639E+03</rscale>
<asrwt>0</asrwt>
<pdfrwt beam="1">  1       21 0.79290712E-02 0.45225639E+03</pdfrwt>
<pdfrwt beam="2">  1       21 0.13946631E+00 0.45225639E+03</pdfrwt>
<totfact> 0.39926539E+04</totfact>
</mgrwt>
</event>
<event>
 7    0  0.4784406E-002  0.4598305E+03  0.7546771E-02  0.1024830E+00
         21   -1    0    0  502  501  0.00000000000E+00  0.00000000000E+00  0.51845882770E+03  0.51845882770E+03  0.00000000000E+00 0.  1.
         21   -1    0    0  501  502 -0.00000000000E+00 -0.00000000000E+00 -0.10195798424E+03  0.10195798424E+03  0.00000000000E+00 0.  1.
      99926    2    1    2    0    0  0.00000000000E+00  0.00000000000E+00  0.41650084346E+03  0.62041681194E+03  0.45983047739E+03 0.  0.
      99925    2    3    3    0    0 -0.93875618420E+02 -0.28047157468E+02  0.34867195974E+03  0.44765240489E+03  0.26309934497E+03 0.  0.
         25    1    4    4    0    0 -0.80186829571E+02  0.91229268869E+01  0.20073746022E+03  0.24991236758E+03  0.12509000000E+03 0.  0.
         25    1    3    3    0    0  0.93875618420E+02  0.28047157468E+02  0.67828883718E+02  0.17276440705E+03  0.12509000000E+03 0.  0.
         25    1    4    4    0    0 -0.13688788849E+02 -0.37170084355E+02  0.14793449951E+03  0.19774003732E+03  0.12509000000E+03 0.  0.
<mgrwt>
<rscale>  2 0.45983048E+03</rscale>
<asrwt>0</asrwt>
<pdfrwt beam="1">  1       21 0.76243944E-01 0.45983048E+03</pdfrwt>
<pdfrwt beam="2">  1       21 0.14993821E-01 0.45983048E+03</pdfrwt>
<totfact> 0.55299089E+04</totfact>
</mgrwt>
</event>
<event>
 7    0  0.4784406E-002  0.4317311E+03  0.7546771E-02  0.1033315E+00
         21   -1    0    0  502  501  0.00000000000E+00  0.00000000000E+00  0.35401288180E+03  0.35401288180E+03  0.00000000000E+00 0.  1.
         21   -1    0    0  501  502 -0.00000000000E+00 -0.00000000000E+00 -0.13162779842E+03  0.13162779842E+03  0.00000000000E+00 0.  1.
      99926    2    1    2    0    0  0.00000000000E+00  0.00000000000E+00  0.22238508338E+03  0.48564068022E+03  0.43173110263E+03 0.  0.
      99925    2    3    3    0    0  0.14356491744E+02 -0.72024959083E+02  0.20092134186E+03  0.33900540518E+03  0.26298588468E+03 0.  0.
         25    1    3    3    0    0 -0.14356491744E+02  0.72024959083E+02  0.21463741522E+02  0.14663527504E+03  0.12509000000E+03 0.  0.
         25    1    4    4    0    0  0.48267629630E+01  0.33799423737E+01  0.75335028219E+02  0.14614238341E+03  0.12509000000E+03 0.  0.
         25    1    4    4    0    0  0.95297287807E+01 -0.75404901457E+02  0.12558631364E+03  0.19286302178E+03  0.12509000000E+03 0.  0.
<mgrwt>
<rscale>  2 0.43173110E+03</rscale>
<asrwt>0</asrwt>
<pdfrwt beam="1">  1       21 0.52060718E-01 0.43173110E+03</pdfrwt>
<pdfrwt beam="2">  1       21 0.19357029E-01 0.43173110E+03</pdfrwt>
<totfact> 0.80094519E+04</totfact>
</mgrwt>
</event>
<event>
 7    0  0.4784406E-002  0.4643443E+03  0.7546771E-02  0.1023529E+00
         21   -1    0    0  502  501  0.00000000000E+00  0.00000000000E+00  0.95615294885E+02  0.95615294885E+02  0.00000000000E+00 0.  1.
         21   -1    0    0  501  502 -0.00000000000E+00 -0.00000000000E+00 -0.56375811025E+03  0.56375811025E+03  0.00000000000E+00 0.  1.
      99926    2    1    2    0    0  0.00000000000E+00  0.00000000000E+00 -0.46814281536E+03  0.65937340513E+03  0.46434426003E+03 0.  0.
      99925    2    3    3    0    0  0.79438372154E+02  0.14411029802E+02 -0.16282287715E+03  0.31968839587E+03  0.26300427445E+03 0.  0.
         25    1    3    3    0    0 -0.79438372154E+02 -0.14411029802E+02 -0.30531993821E+03  0.33968500926E+03  0.12509000000E+03 0.  0.
         25    1    4    4    0    0  0.20643917371E+02 -0.14370343261E+02 -0.11155930694E+03  0.16948647485E+03  0.12509000000E+03 0.  0.
         25    1    4    4    0    0  0.58794454783E+02  0.28781373063E+02 -0.51263570211E+02  0.15020192102E+03  0.12509000000E+03 0.  0.
<mgrwt>
<rscale>  2 0.46434426E+03</rscale>
<asrwt>0</asrwt>
<pdfrwt beam="1">  1       21 0.14061072E-01 0.46434426E+03</pdfrwt>
<pdfrwt beam="2">  1       21 0.82905608E-01 0.46434426E+03</pdfrwt>
<totfact> 0.51279605E+04</totfact>
</mgrwt>
</event>
<event>
 7    0  0.4784406E-002  0.4546547E+03  0.7546771E-02  0.1026343E+00
         21   -1    0    0  502  501  0.00000000000E+00  0.00000000000E+00  0.75705750814E+03  0.75705750814E+03  0.00000000000E+00 0.  1.
         21   -1    0    0  501  502 -0.00000000000E+00 -0.00000000000E+00 -0.68261286859E+02  0.68261286859E+02  0.00000000000E+00 0.  1.
      99926    2    1    2    0    0  0.35527136788E-14  0.00000000000E+00  0.68879622128E+03  0.82531879500E+03  0.45465468097E+03 0.  0.
      99925    2    3    3    0    0  0.25299787792E+02  0.37699006096E+02  0.62107291988E+03  0.67600286157E+03  0.26303422349E+03 0.  0.
         25    1    4    4    0    0  0.40787369749E+02  0.36573398875E+02  0.26209575768E+03  0.29553835171E+03  0.12509000000E+03 0.  0.
         25    1    4    4    0    0 -0.15487581957E+02  0.11256072206E+01  0.35897716219E+03  0.38046450986E+03  0.12509000000E+03 0.  0.
         25    1    3    3    0    0 -0.25299787792E+02 -0.37699006096E+02  0.67723301406E+02  0.14931593343E+03  0.12509000000E+03 0.  0.
<mgrwt>
<rscale>  2 0.45465468E+03</rscale>
<asrwt>0</asrwt>
<pdfrwt beam="1">  1       21 0.11133198E+00 0.45465468E+03</pdfrwt>
<pdfrwt beam="2">  1       21 0.10038425E-01 0.45465468E+03</pdfrwt>
<totfact> 0.46690815E+04</totfact>
</mgrwt>
</event>
<event>
 7    0  0.4784406E-002  0.4596972E+03  0.7546771E-02  0.1024869E+00
         21   -1    0    0  502  501  0.00000000000E+00  0.00000000000E+00  0.95033531433E+02  0.95033531433E+02  0.00000000000E+00 0. -1.
         21   -1    0    0  501  502 -0.00000000000E+00 -0.00000000000E+00 -0.55591310517E+03  0.55591310517E+03  0.00000000000E+00 0. -1.
      99926    2    1    2    0    0  0.71054273576E-14  0.00000000000E+00 -0.46087957374E+03  0.65094663660E+03  0.45969722886E+03 0.  0.
      99925    2    3    3    0    0  0.62835221929E+02  0.74399238998E+02 -0.19544143935E+03  0.34177286157E+03  0.26292170092E+03 0.  0.
         25    1    3    3    0    0 -0.62835221929E+02 -0.74399238998E+02 -0.26543813439E+03  0.30917377503E+03  0.12509000000E+03 0.  0.
         25    1    4    4    0    0  0.29123407904E+02 -0.44329092146E+01 -0.83031313067E+02  0.15300173405E+03  0.12509000000E+03 0.  0.
         25    1    4    4    0    0  0.33711814025E+02  0.78832148213E+02 -0.11241012628E+03  0.18877112752E+03  0.12509000000E+03 0.  0.
<mgrwt>
<rscale>  2 0.45969723E+03</rscale>
<asrwt>0</asrwt>
<pdfrwt beam="1">  1       21 0.13975519E-01 0.45969723E+03</pdfrwt>
<pdfrwt beam="2">  1       21 0.81751927E-01 0.45969723E+03</pdfrwt>
<totfact> 0.53631774E+04</totfact>
</mgrwt>
</event>
<event>
 7    0  0.4784406E-002  0.4514591E+03  0.7546771E-02  0.1027288E+00
         21   -1    0    0  502  501  0.00000000000E+00  0.00000000000E+00  0.32131217080E+03  0.32131217080E+03  0.00000000000E+00 0. -1.
         21   -1    0    0  501  502 -0.00000000000E+00 -0.00000000000E+00 -0.15858045706E+03  0.15858045706E+03  0.00000000000E+00 0. -1.
      99926    2    1    2    0    0  0.00000000000E+00  0.00000000000E+00  0.16273171374E+03  0.47989262785E+03  0.45145910514E+03 0.  0.
      99925    2    3    3    0    0  0.37623102643E+02 -0.10127374707E+03  0.12335407903E+03  0.30998095694E+03  0.26305910962E+03 0.  0.
         25    1    3    3    0    0 -0.37623102643E+02  0.10127374707E+03  0.39377634715E+02  0.16991167092E+03  0.12509000000E+03 0.  0.
         25    1    4    4    0    0 -0.45783424323E+01 -0.13722262162E+02  0.57410389765E+02  0.13839336202E+03  0.12509000000E+03 0.  0.
         25    1    4    4    0    0  0.42201445075E+02 -0.87551484908E+02  0.65943689261E+02  0.17158759492E+03  0.12509000000E+03 0.  0.
<mgrwt>
<rscale>  2 0.45145911E+03</rscale>
<asrwt>0</asrwt>
<pdfrwt beam="1">  1       21 0.47251790E-01 0.45145911E+03</pdfrwt>
<pdfrwt beam="2">  1       21 0.23320655E-01 0.45145911E+03</pdfrwt>
<totfact> 0.68616340E+04</totfact>
</mgrwt>
</event>
<event>
 7    0  0.4784406E-002  0.4491203E+03  0.7546771E-02  0.1027985E+00
         21   -1    0    0  502  501  0.00000000000E+00  0.00000000000E+00  0.12545933129E+03  0.12545933129E+03  0.00000000000E+00 0. -1.
         21   -1    0    0  501  502 -0.00000000000E+00 -0.00000000000E+00 -0.40194108199E+03  0.40194108199E+03  0.00000000000E+00 0. -1.
      99926    2    1    2    0    0  0.00000000000E+00  0.71054273576E-14 -0.27648175070E+03  0.52740041328E+03  0.44912029286E+03 0.  0.
      99925    2    3    3    0    0  0.78937853871E+01  0.42099901387E+02 -0.29086597130E+03  0.39439993415E+03  0.26289462006E+03 0.  0.
         25    1    4    4    0    0 -0.86346168478E+01 -0.16537181724E+02 -0.15332042927E+03  0.19875285437E+03  0.12509000000E+03 0.  0.
         25    1    4    4    0    0  0.16528402235E+02  0.58637083111E+02 -0.13754554203E+03  0.19564707978E+03  0.12509000000E+03 0.  0.
         25    1    3    3    0    0 -0.78937853871E+01 -0.42099901387E+02  0.14384220604E+02  0.13300047912E+03  0.12509000000E+03 0.  0.
<mgrwt>
<rscale>  2 0.44912029E+03</rscale>
<asrwt>0</asrwt>
<pdfrwt beam="1">  1       21 0.18449902E-01 0.44912029E+03</pdfrwt>
<pdfrwt beam="2">  1       21 0.59108982E-01 0.44912029E+03</pdfrwt>
<totfact> 0.66423231E+04</totfact>
</mgrwt>
</event>
<event>
 7    0  0.4784406E-002  0.4544100E+03  0.7546771E-02  0.1026415E+00
         21   -1    0    0  502  501  0.00000000000E+00  0.00000000000E+00  0.11567312736E+04  0.11567312736E+04  0.00000000000E+00 0. -1.
         21   -1    0    0  501  502 -0.00000000000E+00 -0.00000000000E+00 -0.44627575409E+02  0.44627575409E+02  0.00000000000E+00 0. -1.
      99926    2    1    2    0    0  0.00000000000E+00 -0.17763568394E-14  0.11121036981E+04  0.12013588490E+04  0.45441000050E+03 0.  0.
      99925    2    3    3    0    0 -0.70056677945E+01 -0.14091447965E+02  0.40519339129E+03  0.48329385307E+03  0.26295173661E+03 0.  0.
         25    1    3    3    0    0  0.70056677945E+01  0.14091447965E+02  0.70691030685E+03  0.71806499589E+03  0.12509000000E+03 0.  0.
         25    1    4    4    0    0 -0.22803408129E+02  0.19483823042E+02  0.24473138845E+03  0.27647888776E+03  0.12509000000E+03 0.  0.
         25    1    4    4    0    0  0.15797740335E+02 -0.33575271007E+02  0.16046200284E+03  0.20681496531E+03  0.12509000000E+03 0.  0.
<mgrwt>
<rscale>  2 0.45441000E+03</rscale>
<asrwt>0</asrwt>
<pdfrwt beam="1">  1       21 0.17010752E+00 0.45441000E+03</pdfrwt>
<pdfrwt beam="2">  1       21 0.65628795E-02 0.45441000E+03</pdfrwt>
<totfact> 0.32260928E+04</totfact>
</mgrwt>
</event>
<event>
 7    0  0.4784406E-002  0.4508335E+03  0.7546771E-02  0.1027474E+00
         21   -1    0    0  502  501  0.00000000000E+00  0.00000000000E+00  0.18934483051E+03  0.18934483051E+03  0.00000000000E+00 0. -1.
         21   -1    0    0  501  502 -0.00000000000E+00 -0.00000000000E+00 -0.26836071970E+03  0.26836071970E+03  0.00000000000E+00 0. -1.
      99926    2    1    2    0    0  0.00000000000E+00  0.00000000000E+00 -0.79015889194E+02  0.45770555020E+03  0.45083351688E+03 0.  0.
      99925    2    3    3    0    0  0.28181105128E+02  0.82948502949E+02  0.16327147736E+02  0.27767102124E+03  0.26298287293E+03 0.  0.
         25    1    4    4    0    0  0.22746625443E+02  0.69035267721E+02 -0.21204604583E+02  0.14622045176E+03  0.12509000000E+03 0.  0.
         25    1    4    4    0    0  0.54344796858E+01  0.13913235228E+02  0.37531752319E+02  0.13145056948E+03  0.12509000000E+03 0.  0.
         25    1    3    3    0    0 -0.28181105128E+02 -0.82948502949E+02 -0.95343036929E+02  0.18003452896E+03  0.12509000000E+03 0.  0.
<mgrwt>
<rscale>  2 0.45083352E+03</rscale>
<asrwt>0</asrwt>
<pdfrwt beam="1">  1       21 0.27844828E-01 0.45083352E+03</pdfrwt>
<pdfrwt beam="2">  1       21 0.39464812E-01 0.45083352E+03</pdfrwt>
<totfact> 0.70666735E+04</totfact>
</mgrwt>
</event>
<event>
 7    0  0.4784406E-002  0.4528510E+03  0.7546771E-02  0.1026875E+00
         21   -1    0    0  502  501  0.00000000000E+00  0.00000000000E+00  0.13228785183E+03  0.13228785183E+03  0.00000000000E+00 0. -1.
         21   -1    0    0  501  502 -0.00000000000E+00 -0.00000000000E+00 -0.38755259448E+03  0.38755259448E+03  0.00000000000E+00 0. -1.
      99926    2    1    2    0    0  0.00000000000E+00 -0.14210854715E-13 -0.25526474266E+03  0.51984044631E+03  0.45285096972E+03 0.  0.
      99925    2    3    3    0    0  0.42812586640E+02 -0.98159665155E+02 -0.19427429093E+03  0.34423981778E+03  0.26323053507E+03 0.  0.
         25    1    4    4    0    0  0.30974316292E+02 -0.15390743390E+02 -0.11864066469E+03  0.17583912724E+03  0.12509000000E+03 0.  0.
         25    1    3    3    0    0 -0.42812586640E+02  0.98159665155E+02 -0.60990451730E+02  0.17560062853E+03  0.12509000000E+03 0.  0.
         25    1    4    4    0    0  0.11838270348E+02 -0.82768921765E+02 -0.75633626240E+02  0.16840069054E+03  0.12509000000E+03 0.  0.
<mgrwt>
<rscale>  2 0.45285097E+03</rscale>
<asrwt>0</asrwt>
<pdfrwt beam="1">  1       21 0.19454096E-01 0.45285097E+03</pdfrwt>
<pdfrwt beam="2">  1       21 0.56993027E-01 0.45285097E+03</pdfrwt>
<totfact> 0.64999272E+04</totfact>
</mgrwt>
</event>
<event>
 7    0  0.4784406E-002  0.4505481E+03  0.7546771E-02  0.1027559E+00
         21   -1    0    0  502  501  0.00000000000E+00  0.00000000000E+00  0.17735048363E+03  0.17735048363E+03  0.00000000000E+00 0.  1.
         21   -1    0    0  501  502 -0.00000000000E+00 -0.00000000000E+00 -0.28614753695E+03  0.28614753695E+03  0.00000000000E+00 0.  1.
      99926    2    1    2    0    0  0.14210854715E-13  0.00000000000E+00 -0.10879705332E+03  0.46349802058E+03  0.45054812869E+03 0.  0.
      99925    2    3    3    0    0  0.96387925330E+02  0.36630188038E+02 -0.10476453303E+03  0.30133707539E+03  0.26305136912E+03 0.  0.
         25    1    4    4    0    0  0.79501600313E+02 -0.57675143484E+01 -0.68181072350E+02  0.16324807932E+03  0.12509000000E+03 0.  0.
         25    1    4    4    0    0  0.16886325017E+02  0.42397702386E+02 -0.36583460683E+02  0.13808899607E+03  0.12509000000E+03 0.  0.
         25    1    3    3    0    0 -0.96387925330E+02 -0.36630188038E+02 -0.40325202852E+01  0.16216094519E+03  0.12509000000E+03 0.  0.
<mgrwt>
<rscale>  2 0.45054813E+03</rscale>
<asrwt>0</asrwt>
<pdfrwt beam="1">  1       21 0.26080954E-01 0.45054813E+03</pdfrwt>
<pdfrwt beam="2">  1       21 0.42080519E-01 0.45054813E+03</pdfrwt>
<totfact> 0.70375070E+04</totfact>
</mgrwt>
</event>
<event>
 7    0  0.4784406E-002  0.4571030E+03  0.7546771E-02  0.1025625E+00
         21   -1    0    0  502  501  0.00000000000E+00  0.00000000000E+00  0.10053156868E+03  0.10053156868E+03  0.00000000000E+00 0.  1.
         21   -1    0    0  501  502 -0.00000000000E+00 -0.00000000000E+00 -0.51959580306E+03  0.51959580306E+03  0.00000000000E+00 0.  1.
      99926    2    1    2    0    0  0.14210854715E-13  0.00000000000E+00 -0.41906423438E+03  0.62012737173E+03  0.45710296940E+03 0.  0.
      99925    2    3    3    0    0 -0.91786849358E+02  0.62494797195E+02 -0.22200469357E+03  0.36165030096E+03  0.26301032456E+03 0.  0.
         25    1    4    4    0    0 -0.35151844377E+02 -0.97686382762E+01 -0.10351356259E+03  0.16641407451E+03  0.12509000000E+03 0.  0.
         25    1    4    4    0    0 -0.56635004981E+02  0.72263435472E+02 -0.11849113098E+03  0.19523622645E+03  0.12509000000E+03 0.  0.
         25    1    3    3    0    0  0.91786849358E+02 -0.62494797195E+02 -0.19705954081E+03  0.25847707078E+03  0.12509000000E+03 0.  0.
<mgrwt>
<rscale>  2 0.45710297E+03</rscale>
<asrwt>0</asrwt>
<pdfrwt beam="1">  1       21 0.14784054E-01 0.45710297E+03</pdfrwt>
<pdfrwt beam="2">  1       21 0.76411149E-01 0.45710297E+03</pdfrwt>
<totfact> 0.56511853E+04</totfact>
</mgrwt>
</event>
<event>
 7    0  0.4784406E-002  0.4489057E+03  0.7546771E-02  0.1028049E+00
         21   -1    0    0  502  501  0.00000000000E+00  0.00000000000E+00  0.47654685740E+02  0.47654685740E+02  0.00000000000E+00 0.  1.
         21   -1    0    0  501  502 -0.00000000000E+00 -0.00000000000E+00 -0.10571696876E+04  0.10571696876E+04  0.00000000000E+00 0.  1.
      99926    2    1    2    0    0  0.00000000000E+00  0.00000000000E+00 -0.10095150018E+04  0.11048243733E+04  0.44890573280E+03 0.  0.
      99925    2    3    3    0    0 -0.36762695027E+02  0.82059225170E+02 -0.78351479502E+03  0.83131237401E+03  0.26286806004E+03 0.  0.
         25    1    3    3    0    0  0.36762695027E+02 -0.82059225170E+02 -0.22600020680E+03  0.27351199928E+03  0.12509000000E+03 0.  0.
         25    1    4    4    0    0 -0.30911617639E+01  0.96233223247E+01 -0.42909673636E+03  0.44707234411E+03  0.12509000000E+03 0.  0.
         25    1    4    4    0    0 -0.33671533263E+02  0.72435902845E+02 -0.35441805866E+03  0.38424002990E+03  0.12509000000E+03 0.  0.
<mgrwt>
<rscale>  2 0.44890573E+03</rscale>
<asrwt>0</asrwt>
<pdfrwt beam="1">  1       21 0.70080416E-02 0.44890573E+03</pdfrwt>
<pdfrwt beam="2">  1       21 0.15546614E+00 0.44890573E+03</pdfrwt>
<totfact> 0.37056700E+04</totfact>
</mgrwt>
</event>
<event>
 7    0  0.4784406E-002  0.4331669E+03  0.7546771E-02  0.1032864E+00
         21   -1    0    0  502  501  0.00000000000E+00  0.00000000000E+00  0.65269412495E+02  0.65269412495E+02  0.00000000000E+00 0. -1.
         21   -1    0    0  501  502 -0.00000000000E+00 -0.00000000000E+00 -0.71868876244E+03  0.71868876244E+03  0.00000000000E+00 0. -1.
      99926    2    1    2    0    0  0.71054273576E-14 -0.71054273576E-14 -0.65341934994E+03  0.78395817493E+03  0.43316691144E+03 0.  0.
      99925    2    3    3    0    0  0.51450546768E+02 -0.55665742692E+02 -0.32789371033E+03  0.42708244892E+03  0.26294352859E+03 0.  0.
         25    1    4    4    0    0  0.49444730749E+02 -0.62664755337E+01 -0.20256717083E+03  0.24323860078E+03  0.12509000000E+03 0.  0.
         25    1    3    3    0    0 -0.51450546768E+02  0.55665742692E+02 -0.32552563961E+03  0.35687572601E+03  0.12509000000E+03 0.  0.
         25    1    4    4    0    0  0.20058160183E+01 -0.49399267158E+02 -0.12532653950E+03  0.18384384814E+03  0.12509000000E+03 0.  0.
<mgrwt>
<rscale>  2 0.43316691E+03</rscale>
<asrwt>0</asrwt>
<pdfrwt beam="1">  1       21 0.95984434E-02 0.43316691E+03</pdfrwt>
<pdfrwt beam="2">  1       21 0.10568952E+00 0.43316691E+03</pdfrwt>
<totfact> 0.57844579E+04</totfact>
</mgrwt>
</event>
<event>
 7    0  0.4784406E-002  0.4478135E+03  0.7546771E-02  0.1028376E+00
         21   -1    0    0  502  501  0.00000000000E+00  0.00000000000E+00  0.42282607585E+02  0.42282607585E+02  0.00000000000E+00 0.  1.
         21   -1    0    0  501  502 -0.00000000000E+00 -0.00000000000E+00 -0.11856942153E+04  0.11856942153E+04  0.00000000000E+00 0.  1.
      99926    2    1    2    0    0 -0.77715611724E-15 -0.35527136788E-14 -0.11434116078E+04  0.12279768229E+04  0.44781354702E+03 0.  0.
      99925    2    3    3    0    0 -0.16479694742E-01  0.27620176707E+02 -0.44308338106E+03  0.51602878575E+03  0.26305883509E+03 0.  0.
         25    1    4    4    0    0 -0.16802984236E+02  0.44324528274E+02 -0.26824089343E+03  0.29974604100E+03  0.12509000000E+03 0.  0.
         25    1    3    3    0    0  0.16479694742E-01 -0.27620176707E+02 -0.70032822669E+03  0.71194803718E+03  0.12509000000E+03 0.  0.
         25    1    4    4    0    0  0.16786504541E+02 -0.16704351567E+02 -0.17484248763E+03  0.21628274475E+03  0.12509000000E+03 0.  0.
<mgrwt>
<rscale>  2 0.44781355E+03</rscale>
<asrwt>0</asrwt>
<pdfrwt beam="1">  1       21 0.62180318E-02 0.44781355E+03</pdfrwt>
<pdfrwt beam="2">  1       21 0.17436676E+00 0.44781355E+03</pdfrwt>
<totfact> 0.33093514E+04</totfact>
</mgrwt>
</event>
<event>
 7    0  0.4784406E-002  0.4384498E+03  0.7546771E-02  0.1031223E+00
         21   -1    0    0  502  501  0.00000000000E+00  0.00000000000E+00  0.36948059000E+03  0.36948059000E+03  0.00000000000E+00 0. -1.
         21   -1    0    0  501  502 -0.00000000000E+00 -0.00000000000E+00 -0.13007330305E+03  0.13007330305E+03  0.00000000000E+00 0. -1.
      99926    2    1    2    0    0  0.00000000000E+00 -0.71054273576E-14  0.23940728695E+03  0.49955389305E+03  0.43844981812E+03 0.  0.
      99925    2    3    3    0    0  0.65495578713E+02  0.59303436469E+02  0.10782715392E+03  0.29764448783E+03  0.26298094532E+03 0.  0.
         25    1    4    4    0    0  0.41348674248E+02  0.70507350962E+02  0.53950210427E+02  0.15886828729E+03  0.12509000000E+03 0.  0.
         25    1    4    4    0    0  0.24146904465E+02 -0.11203914493E+02  0.53876943498E+02  0.13877620054E+03  0.12509000000E+03 0.  0.
         25    1    3    3    0    0 -0.65495578713E+02 -0.59303436469E+02  0.13158013303E+03  0.20190940522E+03  0.12509000000E+03 0.  0.
<mgrwt>
<rscale>  2 0.43844982E+03</rscale>
<asrwt>0</asrwt>
<pdfrwt beam="1">  1       21 0.54335381E-01 0.43844982E+03</pdfrwt>
<pdfrwt beam="2">  1       21 0.19128427E-01 0.43844982E+03</pdfrwt>
<totfact> 0.74633743E+04</totfact>
</mgrwt>
</event>
<event>
 7    0  0.4784406E-002  0.4779228E+03  0.7546771E-02  0.1019708E+00
         21   -1    0    0  502  501  0.00000000000E+00  0.00000000000E+00  0.56579142936E+03  0.56579142936E+03  0.00000000000E+00 0. -1.
         21   -1    0    0  501  502 -0.00000000000E+00 -0.00000000000E+00 -0.10092509825E+03  0.10092509825E+03  0.00000000000E+00 0. -1.
      99926    2    1    2    0    0 -0.14210854715E-13 -0.14210854715E-13  0.46486633111E+03  0.66671652761E+03  0.47792282052E+03 0.  0.
      99925    2    3    3    0    0  0.99565208691E+02  0.87403088615E+02  0.26462074904E+03  0.39597988080E+03  0.26310339127E+03 0.  0.
         25    1    3    3    0    0 -0.99565208691E+02 -0.87403088615E+02  0.20024558208E+03  0.27073664680E+03  0.12509000000E+03 0.  0.
         25    1    4    4    0    0  0.43240283285E+02  0.25971376840E+02  0.17511651285E+03  0.22103740789E+03  0.12509000000E+03 0.  0.
         25    1    4    4    0    0  0.56324925406E+02  0.61431711776E+02  0.89504236190E+02  0.17494247292E+03  0.12509000000E+03 0.  0.
<mgrwt>
<rscale>  2 0.47792282E+03</rscale>
<asrwt>0</asrwt>
<pdfrwt beam="1">  1       21 0.83204621E-01 0.47792282E+03</pdfrwt>
<pdfrwt beam="2">  1       21 0.14841926E-01 0.47792282E+03</pdfrwt>
<totfact> 0.45875562E+04</totfact>
</mgrwt>
</event>
<event>
 7    0  0.4784406E-002  0.4539321E+03  0.7546771E-02  0.1026556E+00
         21   -1    0    0  502  501  0.00000000000E+00  0.00000000000E+00  0.51338811458E+03  0.51338811458E+03  0.00000000000E+00 0.  1.
         21   -1    0    0  501  502 -0.00000000000E+00 -0.00000000000E+00 -0.10034043733E+03  0.10034043733E+03  0.00000000000E+00 0.  1.
      99926    2    1    2    0    0  0.00000000000E+00 -0.14210854715E-13  0.41304767725E+03  0.61372855191E+03  0.45393210037E+03 0.  0.
      99925    2    3    3    0    0 -0.48700099229E+02 -0.78922721281E+02  0.17500144761E+03  0.32927466963E+03  0.26305095665E+03 0.  0.
         25    1    4    4    0    0 -0.55536159126E+02 -0.13423558755E+02  0.83762959045E+02  0.16102235344E+03  0.12509000000E+03 0.  0.
         25    1    3    3    0    0  0.48700099229E+02  0.78922721281E+02  0.23804622964E+03  0.28445388228E+03  0.12509000000E+03 0.  0.
         25    1    4    4    0    0  0.68360598967E+01 -0.65499162527E+02  0.91238488566E+02  0.16825231619E+03  0.12509000000E+03 0.  0.
<mgrwt>
<rscale>  2 0.45393210E+03</rscale>
<asrwt>0</asrwt>
<pdfrwt beam="1">  1       21 0.75498251E-01 0.45393210E+03</pdfrwt>
<pdfrwt beam="2">  1       21 0.14755947E-01 0.45393210E+03</pdfrwt>
<totfact> 0.58331529E+04</totfact>
</mgrwt>
</event>
<event>
 7    0  0.4784406E-002  0.4528425E+03  0.7546771E-02  0.1026878E+00
         21   -1    0    0  502  501  0.00000000000E+00  0.00000000000E+00  0.40007375875E+03  0.40007375875E+03  0.00000000000E+00 0. -1.
         21   -1    0    0  501  502 -0.00000000000E+00 -0.00000000000E+00 -0.12814285096E+03  0.12814285096E+03  0.00000000000E+00 0. -1.
      99926    2    1    2    0    0  0.35527136788E-14  0.00000000000E+00  0.27193090779E+03  0.52821660971E+03  0.45284254235E+03 0.  0.
      99925    2    3    3    0    0 -0.28031520673E+02  0.84531685078E+02  0.24820132458E+03  0.37283973513E+03  0.26357958691E+03 0.  0.
         25    1    3    3    0    0  0.28031520673E+02 -0.84531685078E+02  0.23729583206E+02  0.15537687457E+03  0.12509000000E+03 0.  0.
         25    1    4    4    0    0 -0.18434063438E+02  0.81468444488E+02  0.11125076504E+03  0.18708597747E+03  0.12509000000E+03 0.  0.
         25    1    4    4    0    0 -0.95974572359E+01  0.30632405904E+01  0.13695055954E+03  0.18575375766E+03  0.12509000000E+03 0.  0.
<mgrwt>
<rscale>  2 0.45284254E+03</rscale>
<asrwt>0</asrwt>
<pdfrwt beam="1">  1       21 0.58834376E-01 0.45284254E+03</pdfrwt>
<pdfrwt beam="2">  1       21 0.18844537E-01 0.45284254E+03</pdfrwt>
<totfact> 0.64422024E+04</totfact>
</mgrwt>
</event>
<event>
 7    0  0.4784406E-002  0.4586260E+03  0.7546771E-02  0.1025180E+00
         21   -1    0    0  502  501  0.00000000000E+00  0.00000000000E+00  0.45173567626E+03  0.45173567626E+03  0.00000000000E+00 0. -1.
         21   -1    0    0  501  502 -0.00000000000E+00 -0.00000000000E+00 -0.11640533746E+03  0.11640533746E+03  0.00000000000E+00 0. -1.
      99926    2    1    2    0    0  0.00000000000E+00  0.00000000000E+00  0.33533033880E+03  0.56814101373E+03  0.45862596455E+03 0.  0.
      99925    2    3    3    0    0 -0.85709635380E+02  0.48785523821E+02  0.28721458991E+03  0.40174148752E+03  0.26301679263E+03 0.  0.
         25    1    4    4    0    0 -0.66971580251E+02  0.57594376304E+02  0.14039456354E+03  0.20775092374E+03  0.12509000000E+03 0.  0.
         25    1    3    3    0    0  0.85709635380E+02 -0.48785523821E+02  0.48115748895E+02  0.16639952621E+03  0.12509000000E+03 0.  0.
         25    1    4    4    0    0 -0.18738055129E+02 -0.88088524829E+01  0.14682002637E+03  0.19399056378E+03  0.12509000000E+03 0.  0.
<mgrwt>
<rscale>  2 0.45862596E+03</rscale>
<asrwt>0</asrwt>
<pdfrwt beam="1">  1       21 0.66431716E-01 0.45862596E+03</pdfrwt>
<pdfrwt beam="2">  1       21 0.17118432E-01 0.45862596E+03</pdfrwt>
<totfact> 0.58974046E+04</totfact>
</mgrwt>
</event>
<event>
 7    0  0.4784406E-002  0.4568739E+03  0.7546771E-02  0.1025692E+00
         21   -1    0    0  502  501  0.00000000000E+00  0.00000000000E+00  0.84050800150E+03  0.84050800150E+03  0.00000000000E+00 0. -1.
         21   -1    0    0  501  502 -0.00000000000E+00 -0.00000000000E+00 -0.62085601007E+02  0.62085601007E+02  0.00000000000E+00 0. -1.
      99926    2    1    2    0    0 -0.14210854715E-13  0.71054273576E-14  0.77842240049E+03  0.90259360251E+03  0.45687391882E+03 0.  0.
      99925    2    3    3    0    0 -0.96445896528E+02  0.57359101538E+02  0.53846642799E+03  0.60964607422E+03  0.26292653776E+03 0.  0.
         25    1    4    4    0    0 -0.68837720991E+02  0.28634743732E+02  0.20666641795E+03  0.25281830786E+03  0.12509000000E+03 0.  0.
         25    1    3    3    0    0  0.96445896528E+02 -0.57359101538E+02  0.23995597250E+03  0.29294752828E+03  0.12509000000E+03 0.  0.
         25    1    4    4    0    0 -0.27608175537E+02  0.28724357807E+02  0.33180001004E+03  0.35682776637E+03  0.12509000000E+03 0.  0.
<mgrwt>
<rscale>  2 0.45687392E+03</rscale>
<asrwt>0</asrwt>
<pdfrwt beam="1">  1       21 0.12360411E+00 0.45687392E+03</pdfrwt>
<pdfrwt beam="2">  1       21 0.91302360E-02 0.45687392E+03</pdfrwt>
<totfact> 0.42494854E+04</totfact>
</mgrwt>
</event>
<event>
 7    0  0.4784406E-002  0.4550383E+03  0.7546771E-02  0.1026230E+00
         21   -1    0    0  502  501  0.00000000000E+00  0.00000000000E+00  0.94379216968E+03  0.94379216968E+03  0.00000000000E+00 0. -1.
         21   -1    0    0  501  502 -0.00000000000E+00 -0.00000000000E+00 -0.54847830784E+02  0.54847830784E+02  0.00000000000E+00 0. -1.
      99926    2    1    2    0    0  0.00000000000E+00  0.14210854715E-13  0.88894433890E+03  0.99864000047E+03  0.45503825429E+03 0.  0.
      99925    2    3    3    0    0  0.26395250630E+02  0.10356420624E+03  0.64271566151E+03  0.70250097275E+03  0.26268220550E+03 0.  0.
         25    1    3    3    0    0 -0.26395250630E+02 -0.10356420624E+03  0.24622867739E+03  0.29613902772E+03  0.12509000000E+03 0.  0.
         25    1    4    4    0    0 -0.17601402806E+01  0.11675827061E+02  0.29810829503E+03  0.32350500258E+03  0.12509000000E+03 0.  0.
         25    1    4    4    0    0  0.28155390910E+02  0.91888379182E+02  0.34460736648E+03  0.37899597016E+03  0.12509000000E+03 0.  0.
<mgrwt>
<rscale>  2 0.45503825E+03</rscale>
<asrwt>0</asrwt>
<pdfrwt beam="1">  1       21 0.13879296E+00 0.45503825E+03</pdfrwt>
<pdfrwt beam="2">  1       21 0.80658580E-02 0.45503825E+03</pdfrwt>
<totfact> 0.39208023E+04</totfact>
</mgrwt>
</event>
<event>
 7    0  0.4784406E-002  0.4469933E+03  0.7546771E-02  0.1028622E+00
         21   -1    0    0  502  501  0.00000000000E+00  0.00000000000E+00  0.14852911458E+03  0.14852911458E+03  0.00000000000E+00 0. -1.
         21   -1    0    0  501  502 -0.00000000000E+00 -0.00000000000E+00 -0.33630275598E+03  0.33630275598E+03  0.00000000000E+00 0. -1.
      99926    2    1    2    0    0  0.14210854715E-13  0.00000000000E+00 -0.18777364139E+03  0.48483187056E+03  0.44699329112E+03 0.  0.
      99925    2    3    3    0    0  0.89195642840E+02 -0.54558707677E+02 -0.13487136564E+03  0.31342978724E+03  0.26289813802E+03 0.  0.
         25    1    3    3    0    0 -0.89195642840E+02  0.54558707677E+02 -0.52902275755E+02  0.17140208332E+03  0.12509000000E+03 0.  0.
         25    1    4    4    0    0  0.13383183799E+02 -0.48938319519E+01 -0.39775377243E+02  0.13203275326E+03  0.12509000000E+03 0.  0.
         25    1    4    4    0    0  0.75812459042E+02 -0.49664875725E+02 -0.95095988396E+02  0.18139703398E+03  0.12509000000E+03 0.  0.
<mgrwt>
<rscale>  2 0.44699329E+03</rscale>
<asrwt>0</asrwt>
<pdfrwt beam="1">  1       21 0.21842517E-01 0.44699329E+03</pdfrwt>
<pdfrwt beam="2">  1       21 0.49456287E-01 0.44699329E+03</pdfrwt>
<totfact> 0.70740671E+04</totfact>
</mgrwt>
</event>
<event>
 7    0  0.4784406E-002  0.4466241E+03  0.7546771E-02  0.1028734E+00
         21   -1    0    0  502  501  0.00000000000E+00  0.00000000000E+00  0.12296919978E+04  0.12296919978E+04  0.00000000000E+00 0.  1.
         21   -1    0    0  501  502 -0.00000000000E+00 -0.00000000000E+00 -0.40553471691E+02  0.40553471691E+02  0.00000000000E+00 0.  1.
      99926    2    1    2    0    0 -0.35527136788E-14  0.00000000000E+00  0.11891385261E+04  0.12702454695E+04  0.44662413558E+03 0.  0.
      99925    2    3    3    0    0 -0.21006227143E+02 -0.98853464630E+02  0.67182858656E+03  0.72851643140E+03  0.26300051722E+03 0.  0.
         25    1    4    4    0    0 -0.12754758834E+02 -0.46627408560E+02  0.22949764412E+03  0.26580721559E+03  0.12509000000E+03 0.  0.
         25    1    4    4    0    0 -0.82514683098E+01 -0.52226056070E+02  0.44233094244E+03  0.46270921582E+03  0.12509000000E+03 0.  0.
         25    1    3    3    0    0  0.21006227143E+02  0.98853464630E+02  0.51730993952E+03  0.54172903806E+03  0.12509000000E+03 0.  0.
<mgrwt>
<rscale>  2 0.44662414E+03</rscale>
<asrwt>0</asrwt>
<pdfrwt beam="1">  1       21 0.18083703E+00 0.44662414E+03</pdfrwt>
<pdfrwt beam="2">  1       21 0.59637467E-02 0.44662414E+03</pdfrwt>
<totfact> 0.32027972E+04</totfact>
</mgrwt>
</event>
<event>
 6    0  0.4784406E-002  0.4663951E+03  0.7546771E-02  0.1022943E+00
         21   -1    0    0  502  501  0.00000000000E+00  0.00000000000E+00  0.36159860967E+02  0.36159860967E+02  0.00000000000E+00 0.  1.
         21   -1    0    0  501  502 -0.00000000000E+00 -0.00000000000E+00 -0.15039078639E+04  0.15039078639E+04  0.00000000000E+00 0.  1.
      99926    2    1    2    0    0  0.00000000000E+00  0.00000000000E+00 -0.14677480029E+04  0.15400677248E+04  0.46639510831E+03 0.  0.
         25    1    3    3    0    0  0.15221107816E+02 -0.12712761556E+03 -0.58916064691E+03  0.61575229494E+03  0.12509000000E+03 0.  0.
         25    1    3    3    0    0 -0.18922821210E+02  0.89237108946E+02 -0.42803830309E+03  0.45517648422E+03  0.12509000000E+03 0.  0.
         25    1    3    3    0    0  0.37017133946E+01  0.37890506619E+02 -0.45054905290E+03  0.46913894567E+03  0.12509000000E+03 0.  0.
<mgrwt>
<rscale>  2 0.46639511E+03</rscale>
<asrwt>0</asrwt>
<pdfrwt beam="1">  1       21 0.53176267E-02 0.46639511E+03</pdfrwt>
<pdfrwt beam="2">  1       21 0.22116292E+00 0.46639511E+03</pdfrwt>
<totfact> 0.20902099E+04</totfact>
</mgrwt>
</event>
<event>
 7    0  0.4784406E-002  0.4564571E+03  0.7546771E-02  0.1025814E+00
         21   -1    0    0  502  501  0.00000000000E+00  0.00000000000E+00  0.53015173707E+02  0.53015173707E+02  0.00000000000E+00 0. -1.
         21   -1    0    0  501  502 -0.00000000000E+00 -0.00000000000E+00 -0.98251611421E+03  0.98251611421E+03  0.00000000000E+00 0. -1.
      99926    2    1    2    0    0 -0.35527136788E-14  0.00000000000E+00 -0.92950094051E+03  0.10355312879E+04  0.45645706245E+03 0.  0.
      99925    2    3    3    0    0  0.30985241794E+02 -0.50867660525E+02 -0.80609716186E+03  0.84999529470E+03  0.26296722715E+03 0.  0.
         25    1    4    4    0    0  0.17736728912E+02 -0.68647098116E+00 -0.49164386385E+03  0.50761822244E+03  0.12509000000E+03 0.  0.
         25    1    4    4    0    0  0.13248512882E+02 -0.50181189544E+02 -0.31445329801E+03  0.34237707226E+03  0.12509000000E+03 0.  0.
         25    1    3    3    0    0 -0.30985241794E+02  0.50867660525E+02 -0.12340377865E+03  0.18553599322E+03  0.12509000000E+03 0.  0.
<mgrwt>
<rscale>  2 0.45645706E+03</rscale>
<asrwt>0</asrwt>
<pdfrwt beam="1">  1       21 0.77963491E-02 0.45645706E+03</pdfrwt>
<pdfrwt beam="2">  1       21 0.14448766E+00 0.45645706E+03</pdfrwt>
<totfact> 0.37385758E+04</totfact>
</mgrwt>
</event>
<event>
 7    0  0.4784406E-002  0.4588619E+03  0.7546771E-02  0.1025112E+00
         21   -1    0    0  502  501  0.00000000000E+00  0.00000000000E+00  0.77353765170E+03  0.77353765170E+03  0.00000000000E+00 0.  1.
         21   -1    0    0  501  502 -0.00000000000E+00 -0.00000000000E+00 -0.68049136559E+02  0.68049136559E+02  0.00000000000E+00 0.  1.
      99926    2    1    2    0    0  0.35527136788E-14  0.00000000000E+00  0.70548851514E+03  0.84158678826E+03  0.45886193694E+03 0.  0.
      99925    2    3    3    0    0 -0.30050627910E+02  0.89237514249E+02  0.31548192481E+03  0.42132612773E+03  0.26290775348E+03 0.  0.
         25    1    4    4    0    0  0.14654578684E+02  0.34786087893E+02  0.19036258485E+03  0.23089012625E+03  0.12509000000E+03 0.  0.
         25    1    4    4    0    0 -0.44705206594E+02  0.54451426355E+02  0.12511933996E+03  0.19043600148E+03  0.12509000000E+03 0.  0.
         25    1    3    3    0    0  0.30050627910E+02 -0.89237514249E+02  0.39000659033E+03  0.42026066053E+03  0.12509000000E+03 0.  0.
<mgrwt>
<rscale>  2 0.45886194E+03</rscale>
<asrwt>0</asrwt>
<pdfrwt beam="1">  1       21 0.11375553E+00 0.45886194E+03</pdfrwt>
<pdfrwt beam="2">  1       21 0.10007226E-01 0.45886194E+03</pdfrwt>
<totfact> 0.44455798E+04</totfact>
</mgrwt>
</event>
<event>
 7    0  0.4784406E-002  0.4524341E+03  0.7546771E-02  0.1026999E+00
         21   -1    0    0  502  501  0.00000000000E+00  0.00000000000E+00  0.12369145579E+03  0.12369145579E+03  0.00000000000E+00 0.  1.
         21   -1    0    0  501  502 -0.00000000000E+00 -0.00000000000E+00 -0.41372421471E+03  0.41372421471E+03  0.00000000000E+00 0.  1.
      99926    2    1    2    0    0  0.00000000000E+00  0.00000000000E+00 -0.29003275892E+03  0.53741567050E+03  0.45243408543E+03 0.  0.
      99925    2    3    3    0    0 -0.45909091994E+01  0.23344370562E+02 -0.31137365726E+03  0.40830727369E+03  0.26304987974E+03 0.  0.
         25    1    4    4    0    0 -0.21908029067E+01  0.51175369694E+02 -0.17548733136E+03  0.22151078901E+03  0.12509000000E+03 0.  0.
         25    1    4    4    0    0 -0.24001062927E+01 -0.27830999132E+02 -0.13588632591E+03  0.18679648469E+03  0.12509000000E+03 0.  0.
         25    1    3    3    0    0  0.45909091994E+01 -0.23344370562E+02  0.21340898346E+02  0.12910839681E+03  0.12509000000E+03 0.  0.
<mgrwt>
<rscale>  2 0.45243409E+03</rscale>
<asrwt>0</asrwt>
<pdfrwt beam="1">  1       21 0.18189920E-01 0.45243409E+03</pdfrwt>
<pdfrwt beam="2">  1       21 0.60841795E-01 0.45243409E+03</pdfrwt>
<totfact> 0.63995567E+04</totfact>
</mgrwt>
</event>
<event>
 7    0  0.4784406E-002  0.4571724E+03  0.7546771E-02  0.1025604E+00
         21   -1    0    0  502  501  0.00000000000E+00  0.00000000000E+00  0.36128195985E+03  0.36128195985E+03  0.00000000000E+00 0. -1.
         21   -1    0    0  501  502 -0.00000000000E+00 -0.00000000000E+00 -0.14462847474E+03  0.14462847474E+03  0.00000000000E+00 0. -1.
      99926    2    1    2    0    0  0.00000000000E+00  0.00000000000E+00  0.21665348510E+03  0.50591043459E+03  0.45717243489E+03 0.  0.
      99925    2    3    3    0    0 -0.67529186928E+02  0.83577303032E+02  0.90228371254E+02  0.29812166160E+03  0.26303993892E+03 0.  0.
         25    1    4    4    0    0 -0.56602689407E+02  0.69152054819E+02  0.24536587757E+02  0.15567730526E+03  0.12509000000E+03 0.  0.
         25    1    4    4    0    0 -0.10926497521E+02  0.14425248213E+02  0.65691783496E+02  0.14244435634E+03  0.12509000000E+03 0.  0.
         25    1    3    3    0    0  0.67529186928E+02 -0.83577303032E+02  0.12642511385E+03  0.20778877299E+03  0.12509000000E+03 0.  0.
<mgrwt>
<rscale>  2 0.45717243E+03</rscale>
<asrwt>0</asrwt>
<pdfrwt beam="1">  1       21 0.53129700E-01 0.45717243E+03</pdfrwt>
<pdfrwt beam="2">  1       21 0.21268893E-01 0.45717243E+03</pdfrwt>
<totfact> 0.63751005E+04</totfact>
</mgrwt>
</event>
<event>
 7    0  0.4784406E-002  0.4599793E+03  0.7546771E-02  0.1024787E+00
         21   -1    0    0  502  501  0.00000000000E+00  0.00000000000E+00  0.13411591278E+03  0.13411591278E+03  0.00000000000E+00 0. -1.
         21   -1    0    0  501  502 -0.00000000000E+00 -0.00000000000E+00 -0.39439938476E+03  0.39439938476E+03  0.00000000000E+00 0. -1.
      99926    2    1    2    0    0  0.00000000000E+00  0.00000000000E+00 -0.26028347198E+03  0.52851529754E+03  0.45997927557E+03 0.  0.
      99925    2    3    3    0    0 -0.72933231343E+02 -0.17931069108E+02 -0.58859784916E+02  0.27979901484E+03  0.26302516030E+03 0.  0.
         25    1    3    3    0    0  0.72933231343E+02  0.17931069108E+02 -0.20142368706E+03  0.24871628270E+03  0.12509000000E+03 0.  0.
         25    1    4    4    0    0 -0.37216201224E+02 -0.36532206163E+02 -0.60404792536E+02  0.14837754137E+03  0.12509000000E+03 0.  0.
         25    1    4    4    0    0 -0.35717030119E+02  0.18601137055E+02  0.15450076195E+01  0.13142147347E+03  0.12509000000E+03 0.  0.
<mgrwt>
<rscale>  2 0.45997928E+03</rscale>
<asrwt>0</asrwt>
<pdfrwt beam="1">  1       21 0.19722928E-01 0.45997928E+03</pdfrwt>
<pdfrwt beam="2">  1       21 0.57999909E-01 0.45997928E+03</pdfrwt>
<totfact> 0.60868863E+04</totfact>
</mgrwt>
</event>
<event>
 7    0  0.4784406E-002  0.4620859E+03  0.7546771E-02  0.1024178E+00
         21   -1    0    0  502  501  0.00000000000E+00  0.00000000000E+00  0.69399470261E+03  0.69399470261E+03  0.00000000000E+00 0. -1.
         21   -1    0    0  501  502 -0.00000000000E+00 -0.00000000000E+00 -0.76918244086E+02  0.76918244086E+02  0.00000000000E+00 0. -1.
      99926    2    1    2    0    0  0.00000000000E+00  0.00000000000E+00  0.61707645853E+03  0.77091294670E+03  0.46208593976E+03 0.  0.
      99925    2    3    3    0    0  0.27204931613E+02 -0.68948661105E+02  0.22903582530E+03  0.35652536568E+03  0.26298079954E+03 0.  0.
         25    1    3    3    0    0 -0.27204931613E+02  0.68948661105E+02  0.38804063322E+03  0.41438758102E+03  0.12509000000E+03 0.  0.
         25    1    4    4    0    0  0.48749095089E+02 -0.18710035948E+02  0.97681188690E+02  0.16707980860E+03  0.12509000000E+03 0.  0.
         25    1    4    4    0    0 -0.21544163476E+02 -0.50238625157E+02  0.13135463661E+03  0.18944555708E+03  0.12509000000E+03 0.  0.
<mgrwt>
<rscale>  2 0.46208594E+03</rscale>
<asrwt>0</asrwt>
<pdfrwt beam="1">  1       21 0.10205804E+00 0.46208594E+03</pdfrwt>
<pdfrwt beam="2">  1       21 0.11311507E-01 0.46208594E+03</pdfrwt>
<totfact> 0.46559488E+04</totfact>
</mgrwt>
</event>
<event>
 7    0  0.4784406E-002  0.4555111E+03  0.7546771E-02  0.1026091E+00
         21   -1    0    0  502  501  0.00000000000E+00  0.00000000000E+00  0.14888576521E+03  0.14888576521E+03  0.00000000000E+00 0. -1.
         21   -1    0    0  501  502 -0.00000000000E+00 -0.00000000000E+00 -0.34840532349E+03  0.34840532349E+03  0.00000000000E+00 0. -1.
      99926    2    1    2    0    0  0.00000000000E+00  0.00000000000E+00 -0.19951955827E+03  0.49729108870E+03  0.45551111157E+03 0.  0.
      99925    2    3    3    0    0  0.39318043820E+02 -0.27334826301E+02 -0.23803443766E+03  0.35792105844E+03  0.26297146094E+03 0.  0.
         25    1    3    3    0    0 -0.39318043820E+02  0.27334826301E+02  0.38514879385E+02  0.13937003025E+03  0.12509000000E+03 0.  0.
         25    1    4    4    0    0  0.15440243192E+02  0.10023053269E+02 -0.16013325127E+03  0.20403193125E+03  0.12509000000E+03 0.  0.
         25    1    4    4    0    0  0.23877800628E+02 -0.37357879570E+02 -0.77901186393E+02  0.15388912720E+03  0.12509000000E+03 0.  0.
<mgrwt>
<rscale>  2 0.45551111E+03</rscale>
<asrwt>0</asrwt>
<pdfrwt beam="1">  1       21 0.21894965E-01 0.45551111E+03</pdfrwt>
<pdfrwt beam="2">  1       21 0.51236077E-01 0.45551111E+03</pdfrwt>
<totfact> 0.65196459E+04</totfact>
</mgrwt>
</event>
<event>
 7    0  0.4784406E-002  0.4459076E+03  0.7546771E-02  0.1028950E+00
         21   -1    0    0  502  501  0.00000000000E+00  0.00000000000E+00  0.78029311583E+03  0.78029311583E+03  0.00000000000E+00 0. -1.
         21   -1    0    0  501  502 -0.00000000000E+00 -0.00000000000E+00 -0.63704765952E+02  0.63704765952E+02  0.00000000000E+00 0. -1.
      99926    2    1    2    0    0  0.00000000000E+00  0.00000000000E+00  0.71658834988E+03  0.84399788179E+03  0.44590757032E+03 0.  0.
      99925    2    3    3    0    0 -0.89938233942E+02  0.35865442126E+02  0.38050066267E+03  0.47254444263E+03  0.26294919682E+03 0.  0.
         25    1    3    3    0    0  0.89938233942E+02 -0.35865442126E+02  0.33608768721E+03  0.37145343915E+03  0.12509000000E+03 0.  0.
         25    1    4    4    0    0 -0.78183272243E+02 -0.40048505735E+01  0.21902113326E+03  0.26409548993E+03  0.12509000000E+03 0.  0.
         25    1    4    4    0    0 -0.11754961699E+02  0.39870292700E+02  0.16147952941E+03  0.20844895271E+03  0.12509000000E+03 0.  0.
<mgrwt>
<rscale>  2 0.44590757E+03</rscale>
<asrwt>0</asrwt>
<pdfrwt beam="1">  1       21 0.11474898E+00 0.44590757E+03</pdfrwt>
<pdfrwt beam="2">  1       21 0.93683484E-02 0.44590757E+03</pdfrwt>
<totfact> 0.49120170E+04</totfact>
</mgrwt>
</event>
<event>
 7    0  0.4784406E-002  0.4525395E+03  0.7546771E-02  0.1026967E+00
         21   -1    0    0  502  501  0.00000000000E+00  0.00000000000E+00  0.11434737851E+04  0.11434737851E+04  0.00000000000E+00 0. -1.
         21   -1    0    0  501  502 -0.00000000000E+00 -0.00000000000E+00 -0.44774091639E+02  0.44774091639E+02  0.00000000000E+00 0. -1.
      99926    2    1    2    0    0  0.00000000000E+00  0.00000000000E+00  0.10986996934E+04  0.11882478767E+04  0.45253950121E+03 0.  0.
      99925    2    3    3    0    0  0.72974782288E+02 -0.82295031598E+02  0.71373102988E+03  0.76878849716E+03  0.26367779443E+03 0.  0.
         25    1    4    4    0    0  0.27370327983E+02 -0.40258709896E+02  0.45993700591E+03  0.47912363340E+03  0.12509000000E+03 0.  0.
         25    1    3    3    0    0 -0.72974782288E+02  0.82295031598E+02  0.38496866356E+03  0.41945937956E+03  0.12509000000E+03 0.  0.
         25    1    4    4    0    0  0.45604454305E+02 -0.42036321702E+02  0.25379402397E+03  0.28966486376E+03  0.12509000000E+03 0.  0.
<mgrwt>
<rscale>  2 0.45253950E+03</rscale>
<asrwt>0</asrwt>
<pdfrwt beam="1">  1       21 0.16815789E+00 0.45253950E+03</pdfrwt>
<pdfrwt beam="2">  1       21 0.65844260E-02 0.45253950E+03</pdfrwt>
<totfact> 0.33161799E+04</totfact>
</mgrwt>
</event>
<event>
 7    0  0.4784406E-002  0.4833270E+03  0.7546771E-02  0.1018225E+00
         21   -1    0    0  502  501  0.00000000000E+00  0.00000000000E+00  0.55303021075E+03  0.55303021075E+03  0.00000000000E+00 0. -1.
         21   -1    0    0  501  502 -0.00000000000E+00 -0.00000000000E+00 -0.10560226370E+03  0.10560226370E+03  0.00000000000E+00 0. -1.
      99926    2    1    2    0    0 -0.71054273576E-14  0.00000000000E+00  0.44742794705E+03  0.65863247445E+03  0.48332697896E+03 0.  0.
      99925    2    3    3    0    0 -0.40110572065E+02  0.44266018490E+02  0.44453700864E+03  0.51998109865E+03  0.26305674772E+03 0.  0.
         25    1    4    4    0    0  0.37874113723E+01  0.19378970608E+02  0.15197903802E+03  0.19782574424E+03  0.12509000000E+03 0.  0.
         25    1    3    3    0    0  0.40110572065E+02 -0.44266018490E+02  0.28909384073E+01  0.13865137579E+03  0.12509000000E+03 0.  0.
         25    1    4    4    0    0 -0.43897983438E+02  0.24887047883E+02  0.29255797062E+03  0.32215535441E+03  0.12509000000E+03 0.  0.
<mgrwt>
<rscale>  2 0.48332698E+03</rscale>
<asrwt>0</asrwt>
<pdfrwt beam="1">  1       21 0.81327971E-01 0.48332698E+03</pdfrwt>
<pdfrwt beam="2">  1       21 0.15529745E-01 0.48332698E+03</pdfrwt>
<totfact> 0.44417426E+04</totfact>
</mgrwt>
</event>
<event>
 7    0  0.4784406E-002  0.4504892E+03  0.7546771E-02  0.1027576E+00
         21   -1    0    0  502  501  0.00000000000E+00  0.00000000000E+00  0.35406598294E+03  0.35406598294E+03  0.00000000000E+00 0.  1.
         21   -1    0    0  501  502 -0.00000000000E+00 -0.00000000000E+00 -0.14329286732E+03  0.14329286732E+03  0.00000000000E+00 0.  1.
      99926    2    1    2    0    0  0.00000000000E+00 -0.17763568394E-14  0.21077311562E+03  0.49735885025E+03  0.45048920038E+03 0.  0.
      99925    2    3    3    0    0 -0.88219129886E+02  0.97200465561E+01  0.63543437969E+02  0.28475315827E+03  0.26300094762E+03 0.  0.
         25    1    4    4    0    0 -0.65954563093E+02 -0.32441258684E+01  0.68029473379E+02  0.15695874010E+03  0.12509000000E+03 0.  0.
         25    1    4    4    0    0 -0.22264566792E+02  0.12964172425E+02 -0.44860354098E+01  0.12779441817E+03  0.12509000000E+03 0.  0.
         25    1    3    3    0    0  0.88219129886E+02 -0.97200465561E+01  0.14722967765E+03  0.21260569199E+03  0.12509000000E+03 0.  0.
<mgrwt>
<rscale>  2 0.45048920E+03</rscale>
<asrwt>0</asrwt>
<pdfrwt beam="1">  1       21 0.52068527E-01 0.45048920E+03</pdfrwt>
<pdfrwt beam="2">  1       21 0.21072480E-01 0.45048920E+03</pdfrwt>
<totfact> 0.67853896E+04</totfact>
</mgrwt>
</event>
<event>
 6    0  0.4784406E-002  0.4525896E+03  0.7546771E-02  0.1026953E+00
         21   -1    0    0  502  501  0.00000000000E+00  0.00000000000E+00  0.44734743184E+02  0.44734743184E+02  0.00000000000E+00 0. -1.
         21   -1    0    0  501  502 -0.00000000000E+00 -0.00000000000E+00 -0.11447329739E+04  0.11447329739E+04  0.00000000000E+00 0. -1.
      99926    2    1    2    0    0 -0.71054273576E-14  0.00000000000E+00 -0.10999982307E+04  0.11894677171E+04  0.45258959601E+03 0.  0.
         25    1    3    3    0    0 -0.62165900712E+02  0.12046042518E+02 -0.33067880329E+03  0.35917361456E+03  0.12509000000E+03 0.  0.
         25    1    3    3    0    0  0.10126261903E+02  0.15012709281E+02 -0.59285805567E+03  0.60618157749E+03  0.12509000000E+03 0.  0.
         25    1    3    3    0    0  0.52039638808E+02 -0.27058751799E+02 -0.17646137179E+03  0.22411252506E+03  0.12509000000E+03 0.  0.
<mgrwt>
<rscale>  2 0.45258960E+03</rscale>
<asrwt>0</asrwt>
<pdfrwt beam="1">  1       21 0.65786380E-02 0.45258960E+03</pdfrwt>
<pdfrwt beam="2">  1       21 0.16834310E+00 0.45258960E+03</pdfrwt>
<totfact> 0.33108934E+04</totfact>
</mgrwt>
</event>
<event>
 7    0  0.4784406E-002  0.4371423E+03  0.7546771E-02  0.1031627E+00
         21   -1    0    0  502  501  0.00000000000E+00  0.00000000000E+00  0.23193782601E+03  0.23193782601E+03  0.00000000000E+00 0. -1.
         21   -1    0    0  501  502 -0.00000000000E+00 -0.00000000000E+00 -0.20597480264E+03  0.20597480264E+03  0.00000000000E+00 0. -1.
      99926    2    1    2    0    0  0.14210854715E-13  0.00000000000E+00  0.25963023370E+02  0.43791262865E+03  0.43714230149E+03 0.  0.
      99925    2    3    3    0    0 -0.66121971192E+02 -0.50383663383E+02 -0.30377394442E+02  0.27749947648E+03  0.26300673897E+03 0.  0.
         25    1    4    4    0    0 -0.15192503456E+02 -0.31733826918E+02  0.21328353431E+02  0.13168240084E+03  0.12509000000E+03 0.  0.
         25    1    4    4    0    0 -0.50929467736E+02 -0.18649836465E+02 -0.51705747872E+02  0.14581707564E+03  0.12509000000E+03 0.  0.
         25    1    3    3    0    0  0.66121971192E+02  0.50383663383E+02  0.56340417811E+02  0.16041315217E+03  0.12509000000E+03 0.  0.
<mgrwt>
<rscale>  2 0.43714230E+03</rscale>
<asrwt>0</asrwt>
<pdfrwt beam="1">  1       21 0.34108504E-01 0.43714230E+03</pdfrwt>
<pdfrwt beam="2">  1       21 0.30290412E-01 0.43714230E+03</pdfrwt>
<totfact> 0.80718602E+04</totfact>
</mgrwt>
</event>
<event>
 7    0  0.4784406E-002  0.4549328E+03  0.7546771E-02  0.1026261E+00
         21   -1    0    0  502  501  0.00000000000E+00  0.00000000000E+00  0.11561857564E+03  0.11561857564E+03  0.00000000000E+00 0. -1.
         21   -1    0    0  501  502 -0.00000000000E+00 -0.00000000000E+00 -0.44751434272E+03  0.44751434272E+03  0.00000000000E+00 0. -1.
      99926    2    1    2    0    0  0.00000000000E+00  0.00000000000E+00 -0.33189576708E+03  0.56313291836E+03  0.45493283410E+03 0.  0.
      99925    2    3    3    0    0  0.61221710654E+02 -0.92200640994E+02 -0.17996871955E+03  0.33734896870E+03  0.26299530530E+03 0.  0.
         25    1    4    4    0    0  0.53097348062E+02 -0.26036347017E+02 -0.56805274921E+02  0.14957127764E+03  0.12509000000E+03 0.  0.
         25    1    4    4    0    0  0.81243625920E+01 -0.66164293977E+02 -0.12316344463E+03  0.18777769106E+03  0.12509000000E+03 0.  0.
         25    1    3    3    0    0 -0.61221710654E+02  0.92200640994E+02 -0.15192704752E+03  0.22578394966E+03  0.12509000000E+03 0.  0.
<mgrwt>
<rscale>  2 0.45493283E+03</rscale>
<asrwt>0</asrwt>
<pdfrwt beam="1">  1       21 0.17002732E-01 0.45493283E+03</pdfrwt>
<pdfrwt beam="2">  1       21 0.65810932E-01 0.45493283E+03</pdfrwt>
<totfact> 0.61039350E+04</totfact>
</mgrwt>
</event>
<event>
 7    0  0.4784406E-002  0.4650816E+03  0.7546771E-02  0.1023318E+00
         21   -1    0    0  502  501  0.00000000000E+00  0.00000000000E+00  0.53294500396E+02  0.53294500396E+02  0.00000000000E+00 0. -1.
         21   -1    0    0  501  502 -0.00000000000E+00 -0.00000000000E+00 -0.10146491332E+04  0.10146491332E+04  0.00000000000E+00 0. -1.
      99926    2    1    2    0    0  0.00000000000E+00  0.00000000000E+00 -0.96135463276E+03  0.10679436336E+04  0.46508157835E+03 0.  0.
      99925    2    3    3    0    0 -0.96131772771E+02  0.64511596208E+02 -0.69040812681E+03  0.74784586573E+03  0.26307222114E+03 0.  0.
         25    1    4    4    0    0 -0.51937974294E+02  0.58513555311E+02 -0.28013180548E+03  0.31661131672E+03  0.12509000000E+03 0.  0.
         25    1    4    4    0    0 -0.44193798477E+02  0.59980408976E+01 -0.41027632133E+03  0.43123454901E+03  0.12509000000E+03 0.  0.
         25    1    3    3    0    0  0.96131772771E+02 -0.64511596208E+02 -0.27094650595E+03  0.32009776783E+03  0.12509000000E+03 0.  0.
<mgrwt>
<rscale>  2 0.46508158E+03</rscale>
<asrwt>0</asrwt>
<pdfrwt beam="1">  1       21 0.78374271E-02 0.46508158E+03</pdfrwt>
<pdfrwt beam="2">  1       21 0.14921310E+00 0.46508158E+03</pdfrwt>
<totfact> 0.33880693E+04</totfact>
</mgrwt>
</event>
<event>
 7    0  0.4784406E-002  0.4628932E+03  0.7546771E-02  0.1023945E+00
         21   -1    0    0  502  501  0.00000000000E+00  0.00000000000E+00  0.12499276329E+03  0.12499276329E+03  0.00000000000E+00 0.  1.
         21   -1    0    0  501  502 -0.00000000000E+00 -0.00000000000E+00 -0.42856502722E+03  0.42856502722E+03  0.00000000000E+00 0.  1.
      99926    2    1    2    0    0  0.00000000000E+00  0.00000000000E+00 -0.30357226393E+03  0.55355779051E+03  0.46289319287E+03 0.  0.
      99925    2    3    3    0    0 -0.96399194246E+02 -0.16293426812E+02 -0.10565052135E+03  0.29982800374E+03  0.26301429382E+03 0.  0.
         25    1    4    4    0    0 -0.29438908045E+02  0.10991151888E+02 -0.83524277455E+02  0.15365958399E+03  0.12509000000E+03 0.  0.
         25    1    4    4    0    0 -0.66960286201E+02 -0.27284578700E+02 -0.22126243898E+02  0.14616841975E+03  0.12509000000E+03 0.  0.
         25    1    3    3    0    0  0.96399194246E+02  0.16293426812E+02 -0.19792174258E+03  0.25372978677E+03  0.12509000000E+03 0.  0.
<mgrwt>
<rscale>  2 0.46289319E+03</rscale>
<asrwt>0</asrwt>
<pdfrwt beam="1">  1       21 0.18381289E-01 0.46289319E+03</pdfrwt>
<pdfrwt beam="2">  1       21 0.63024269E-01 0.46289319E+03</pdfrwt>
<totfact> 0.57928955E+04</totfact>
</mgrwt>
</event>
<event>
 7    0  0.4784406E-002  0.4800959E+03  0.7546771E-02  0.1019109E+00
         21   -1    0    0  502  501  0.00000000000E+00  0.00000000000E+00  0.68501203247E+03  0.68501203247E+03  0.00000000000E+00 0. -1.
         21   -1    0    0  501  502 -0.00000000000E+00 -0.00000000000E+00 -0.84119708664E+02  0.84119708664E+02  0.00000000000E+00 0. -1.
      99926    2    1    2    0    0  0.00000000000E+00  0.00000000000E+00  0.60089232380E+03  0.76913174113E+03  0.48009587627E+03 0.  0.
      99925    2    3    3    0    0  0.10501099859E+03  0.25214780635E+02  0.23906430277E+03  0.37135024346E+03  0.26284247654E+03 0.  0.
         25    1    4    4    0    0  0.90267921540E+02  0.32452299765E+02  0.12340303712E+03  0.20019307453E+03  0.12509000000E+03 0.  0.
         25    1    4    4    0    0  0.14743077047E+02 -0.72375191300E+01  0.11566126566E+03  0.17115716893E+03  0.12509000000E+03 0.  0.
         25    1    3    3    0    0 -0.10501099859E+03 -0.25214780635E+02  0.36182802103E+03  0.39778149767E+03  0.12509000000E+03 0.  0.
<mgrwt>
<rscale>  2 0.48009588E+03</rscale>
<asrwt>0</asrwt>
<pdfrwt beam="1">  1       21 0.10073706E+00 0.48009588E+03</pdfrwt>
<pdfrwt beam="2">  1       21 0.12370546E-01 0.48009588E+03</pdfrwt>
<totfact> 0.40670047E+04</totfact>
</mgrwt>
</event>
<event>
 7    0  0.4784406E-002  0.4544019E+03  0.7546771E-02  0.1026417E+00
         21   -1    0    0  502  501  0.00000000000E+00  0.00000000000E+00  0.49278128328E+03  0.49278128328E+03  0.00000000000E+00 0. -1.
         21   -1    0    0  501  502 -0.00000000000E+00 -0.00000000000E+00 -0.10475290583E+03  0.10475290583E+03  0.00000000000E+00 0. -1.
      99926    2    1    2    0    0  0.88817841970E-15  0.00000000000E+00  0.38802837746E+03  0.59753418911E+03  0.45440189859E+03 0.  0.
      99925    2    3    3    0    0  0.31566085211E+01 -0.89399978370E+02  0.15408619622E+03  0.31757209779E+03  0.26288240930E+03 0.  0.
         25    1    4    4    0    0 -0.15916146471E+02 -0.36866911352E+02  0.11627759038E+03  0.17544366331E+03  0.12509000000E+03 0.  0.
         25    1    3    3    0    0 -0.31566085211E+01  0.89399978370E+02  0.23394218124E+03  0.27996209132E+03  0.12509000000E+03 0.  0.
         25    1    4    4    0    0  0.19072754992E+02 -0.52533067018E+02  0.37808605840E+02  0.14212843448E+03  0.12509000000E+03 0.  0.
<mgrwt>
<rscale>  2 0.45440190E+03</rscale>
<asrwt>0</asrwt>
<pdfrwt beam="1">  1       21 0.72467835E-01 0.45440190E+03</pdfrwt>
<pdfrwt beam="2">  1       21 0.15404839E-01 0.45440190E+03</pdfrwt>
<totfact> 0.59109161E+04</totfact>
</mgrwt>
</event>
<event>
 7    0  0.4784406E-002  0.4451153E+03  0.7546771E-02  0.1029189E+00
         21   -1    0    0  502  501  0.00000000000E+00  0.00000000000E+00  0.53727976438E+03  0.53727976438E+03  0.00000000000E+00 0.  1.
         21   -1    0    0  501  502 -0.00000000000E+00 -0.00000000000E+00 -0.92190174463E+02  0.92190174463E+02  0.00000000000E+00 0.  1.
      99926    2    1    2    0    0  0.44408920985E-15  0.00000000000E+00  0.44508958992E+03  0.62946993884E+03  0.44511533433E+03 0.  0.
      99925    2    3    3    0    0  0.21199530413E+01 -0.26152495700E+02  0.42444860745E+03  0.50000177484E+03  0.26297662872E+03 0.  0.
         25    1    4    4    0    0  0.23426133296E+02 -0.12609224580E+02  0.27635115323E+03  0.30450820064E+03  0.12509000000E+03 0.  0.
         25    1    3    3    0    0 -0.21199530413E+01  0.26152495700E+02  0.20640982473E+02  0.12946816400E+03  0.12509000000E+03 0.  0.
         25    1    4    4    0    0 -0.21306180254E+02 -0.13543271121E+02  0.14809745422E+03  0.19549357421E+03  0.12509000000E+03 0.  0.
<mgrwt>
<rscale>  2 0.44511533E+03</rscale>
<asrwt>0</asrwt>
<pdfrwt beam="1">  1       21 0.79011729E-01 0.44511533E+03</pdfrwt>
<pdfrwt beam="2">  1       21 0.13557379E-01 0.44511533E+03</pdfrwt>
<totfact> 0.61564873E+04</totfact>
</mgrwt>
</event>
<event>
 7    0  0.4784406E-002  0.4558628E+03  0.7546771E-02  0.1025988E+00
         21   -1    0    0  502  501  0.00000000000E+00  0.00000000000E+00  0.22337156811E+04  0.22337156811E+04  0.00000000000E+00 0.  1.
         21   -1    0    0  501  502 -0.00000000000E+00 -0.00000000000E+00 -0.23258434426E+02  0.23258434426E+02  0.00000000000E+00 0.  1.
      99926    2    1    2    0    0 -0.71054273576E-14  0.00000000000E+00  0.22104572467E+04  0.22569741156E+04  0.45586282892E+03 0.  0.
      99925    2    3    3    0    0  0.29198546107E+02 -0.10791058925E+03  0.14797614426E+04  0.15072667615E+04  0.26393543378E+03 0.  0.
         25    1    3    3    0    0 -0.29198546107E+02  0.10791058925E+03  0.73069580415E+03  0.74970735402E+03  0.12509000000E+03 0.  0.
         25    1    4    4    0    0 -0.12309901490E+02 -0.58056105142E+02  0.90233966042E+03  0.91290000322E+03  0.12509000000E+03 0.  0.
         25    1    4    4    0    0  0.41508447597E+02 -0.49854484105E+02  0.57742178214E+03  0.59436675832E+03  0.12509000000E+03 0.  0.
<mgrwt>
<rscale>  2 0.45586283E+03</rscale>
<asrwt>0</asrwt>
<pdfrwt beam="1">  1       21 0.32848745E+00 0.45586283E+03</pdfrwt>
<pdfrwt beam="2">  1       21 0.34203595E-02 0.45586283E+03</pdfrwt>
<totfact> 0.98831657E+03</totfact>
</mgrwt>
</event>
<event>
 7    0  0.4784406E-002  0.4558184E+03  0.7546771E-02  0.1026001E+00
         21   -1    0    0  502  501  0.00000000000E+00  0.00000000000E+00  0.57878073425E+02  0.57878073425E+02  0.00000000000E+00 0.  1.
         21   -1    0    0  501  502 -0.00000000000E+00 -0.00000000000E+00 -0.89744856267E+03  0.89744856267E+03  0.00000000000E+00 0.  1.
      99926    2    1    2    0    0  0.00000000000E+00  0.00000000000E+00 -0.83957048924E+03  0.95532663609E+03  0.45581835770E+03 0.  0.
      99925    2    3    3    0    0 -0.82554231757E+02 -0.71478269539E+02 -0.59591027538E+03  0.66046708967E+03  0.26302732944E+03 0.  0.
         25    1    3    3    0    0  0.82554231757E+02  0.71478269539E+02 -0.24366021386E+03  0.29485954643E+03  0.12509000000E+03 0.  0.
         25    1    4    4    0    0 -0.49049744762E+02 -0.48665534066E+02 -0.22111714337E+03  0.26327649128E+03  0.12509000000E+03 0.  0.
         25    1    4    4    0    0 -0.33504486995E+02 -0.22812735474E+02 -0.37479313201E+03  0.39719059839E+03  0.12509000000E+03 0.  0.
<mgrwt>
<rscale>  2 0.45581836E+03</rscale>
<asrwt>0</asrwt>
<pdfrwt beam="1">  1       21 0.85114811E-02 0.45581836E+03</pdfrwt>
<pdfrwt beam="2">  1       21 0.13197773E+00 0.45581836E+03</pdfrwt>
<totfact> 0.40665038E+04</totfact>
</mgrwt>
</event>
<event>
 7    0  0.4784406E-002  0.4504812E+03  0.7546771E-02  0.1027579E+00
         21   -1    0    0  502  501  0.00000000000E+00  0.00000000000E+00  0.36790626660E+02  0.36790626660E+02  0.00000000000E+00 0.  1.
         21   -1    0    0  501  502 -0.00000000000E+00 -0.00000000000E+00 -0.13789740753E+04  0.13789740753E+04  0.00000000000E+00 0.  1.
      99926    2    1    2    0    0 -0.71054273576E-14  0.14210854715E-13 -0.13421834486E+04  0.14157647019E+04  0.45048116665E+03 0.  0.
      99925    2    3    3    0    0  0.27446903193E+02 -0.10386410799E+03 -0.90422719892E+03  0.94779646565E+03  0.26296430862E+03 0.  0.
         25    1    4    4    0    0 -0.11090482499E+02 -0.52226366863E+02 -0.55187977030E+03  0.56839192566E+03  0.12509000000E+03 0.  0.
         25    1    4    4    0    0  0.38537385692E+02 -0.51637741123E+02 -0.35234742862E+03  0.37940453998E+03  0.12509000000E+03 0.  0.
         25    1    3    3    0    0 -0.27446903193E+02  0.10386410799E+03 -0.43795624968E+03  0.46796823627E+03  0.12509000000E+03 0.  0.
<mgrwt>
<rscale>  2 0.45048117E+03</rscale>
<asrwt>0</asrwt>
<pdfrwt beam="1">  1       21 0.54103840E-02 0.45048117E+03</pdfrwt>
<pdfrwt beam="2">  1       21 0.20279039E+00 0.45048117E+03</pdfrwt>
<totfact> 0.26845263E+04</totfact>
</mgrwt>
</event>
<event>
 7    0  0.4784406E-002  0.4518866E+03  0.7546771E-02  0.1027161E+00
         21   -1    0    0  502  501  0.00000000000E+00  0.00000000000E+00  0.42158879162E+03  0.42158879162E+03  0.00000000000E+00 0.  1.
         21   -1    0    0  501  502 -0.00000000000E+00 -0.00000000000E+00 -0.12109046548E+03  0.12109046548E+03  0.00000000000E+00 0.  1.
      99926    2    1    2    0    0  0.00000000000E+00  0.00000000000E+00  0.30049832614E+03  0.54267925710E+03  0.45188663631E+03 0.  0.
      99925    2    3    3    0    0  0.22827221274E+02  0.91688905667E+02  0.12157606278E+03  0.30479562614E+03  0.26304314707E+03 0.  0.
         25    1    4    4    0    0  0.94415702980E+00  0.33463332403E+02  0.99622413829E+02  0.16337937289E+03  0.12509000000E+03 0.  0.
         25    1    4    4    0    0  0.21883064245E+02  0.58225573264E+02  0.21953648948E+02  0.14141625326E+03  0.12509000000E+03 0.  0.
         25    1    3    3    0    0 -0.22827221274E+02 -0.91688905667E+02  0.17892226336E+03  0.23788363096E+03  0.12509000000E+03 0.  0.
<mgrwt>
<rscale>  2 0.45188664E+03</rscale>
<asrwt>0</asrwt>
<pdfrwt beam="1">  1       21 0.61998351E-01 0.45188664E+03</pdfrwt>
<pdfrwt beam="2">  1       21 0.17807421E-01 0.45188664E+03</pdfrwt>
<totfact> 0.63913015E+04</totfact>
</mgrwt>
</event>
<event>
 7    0  0.4784406E-002  0.4550016E+03  0.7546771E-02  0.1026241E+00
         21   -1    0    0  502  501  0.00000000000E+00  0.00000000000E+00  0.41913853530E+02  0.41913853530E+02  0.00000000000E+00 0.  1.
         21   -1    0    0  501  502 -0.00000000000E+00 -0.00000000000E+00 -0.12348328889E+04  0.12348328889E+04  0.00000000000E+00 0.  1.
      99926    2    1    2    0    0  0.35527136788E-14  0.00000000000E+00 -0.11929190353E+04  0.12767467424E+04  0.45500155973E+03 0.  0.
      99925    2    3    3    0    0  0.18682695284E+02 -0.69925854383E+02 -0.50639852337E+03  0.57517950423E+03  0.26297020631E+03 0.  0.
         25    1    4    4    0    0 -0.21424743628E+02 -0.72413837429E+01 -0.24298770497E+03  0.27422981265E+03  0.12509000000E+03 0.  0.
         25    1    4    4    0    0  0.40107438912E+02 -0.62684470640E+02 -0.26341081840E+03  0.30094969158E+03  0.12509000000E+03 0.  0.
         25    1    3    3    0    0 -0.18682695284E+02  0.69925854383E+02 -0.68652051196E+03  0.70156723815E+03  0.12509000000E+03 0.  0.
<mgrwt>
<rscale>  2 0.45500156E+03</rscale>
<asrwt>0</asrwt>
<pdfrwt beam="1">  1       21 0.61638025E-02 0.45500156E+03</pdfrwt>
<pdfrwt beam="2">  1       21 0.18159306E+00 0.45500156E+03</pdfrwt>
<totfact> 0.29797271E+04</totfact>
</mgrwt>
</event>
<event>
 7    0  0.4784406E-002  0.4525181E+03  0.7546771E-02  0.1026974E+00
         21   -1    0    0  502  501  0.00000000000E+00  0.00000000000E+00  0.20615241740E+02  0.20615241740E+02  0.00000000000E+00 0. -1.
         21   -1    0    0  501  502 -0.00000000000E+00 -0.00000000000E+00 -0.24832677180E+04  0.24832677180E+04  0.00000000000E+00 0. -1.
      99926    2    1    2    0    0  0.00000000000E+00  0.00000000000E+00 -0.24626524762E+04  0.25038829597E+04  0.45251812919E+03 0.  0.
      99925    2    3    3    0    0  0.19949061340E+02  0.10795447598E+03 -0.14681577528E+04  0.14955579144E+04  0.26297177480E+03 0.  0.
         25    1    3    3    0    0 -0.19949061340E+02 -0.10795447598E+03 -0.99449472342E+03  0.10083250453E+04  0.12509000000E+03 0.  0.
         25    1    4    4    0    0 -0.31093021559E+01  0.29675510063E+02 -0.84636785619E+03  0.85608198191E+03  0.12509000000E+03 0.  0.
         25    1    4    4    0    0  0.23058363496E+02  0.78278965920E+02 -0.62178989663E+03  0.63947593253E+03  0.12509000000E+03 0.  0.
<mgrwt>
<rscale>  2 0.45251813E+03</rscale>
<asrwt>0</asrwt>
<pdfrwt beam="1">  1       21 0.30316551E-02 0.45251813E+03</pdfrwt>
<pdfrwt beam="2">  1       21 0.36518620E+00 0.45251813E+03</pdfrwt>
<totfact> 0.72306554E+03</totfact>
</mgrwt>
</event>
<event>
 7    0  0.4784406E-002  0.4536391E+03  0.7546771E-02  0.1026642E+00
         21   -1    0    0  502  501  0.00000000000E+00  0.00000000000E+00  0.13735867401E+03  0.13735867401E+03  0.00000000000E+00 0. -1.
         21   -1    0    0  501  502 -0.00000000000E+00 -0.00000000000E+00 -0.37454571068E+03  0.37454571068E+03  0.00000000000E+00 0. -1.
      99926    2    1    2    0    0  0.00000000000E+00  0.00000000000E+00 -0.23718703667E+03  0.51190438469E+03  0.45363907317E+03 0.  0.
      99925    2    3    3    0    0 -0.21942496120E+02  0.49999539253E+02 -0.25969002018E+03  0.37357391289E+03  0.26293941270E+03 0.  0.
         25    1    4    4    0    0  0.10023614065E+02  0.12119088046E+02 -0.17087891777E+03  0.21235455675E+03  0.12509000000E+03 0.  0.
         25    1    3    3    0    0  0.21942496120E+02 -0.49999539253E+02  0.22502983509E+02  0.13833047180E+03  0.12509000000E+03 0.  0.
         25    1    4    4    0    0 -0.31966110185E+02  0.37880451207E+02 -0.88811102409E+02  0.16121935614E+03  0.12509000000E+03 0.  0.
<mgrwt>
<rscale>  2 0.45363907E+03</rscale>
<asrwt>0</asrwt>
<pdfrwt beam="1">  1       21 0.20199805E-01 0.45363907E+03</pdfrwt>
<pdfrwt beam="2">  1       21 0.55080251E-01 0.45363907E+03</pdfrwt>
<totfact> 0.65142871E+04</totfact>
</mgrwt>
</event>
<event>
 7    0  0.4784406E-002  0.4545788E+03  0.7546771E-02  0.1026365E+00
         21   -1    0    0  502  501  0.00000000000E+00  0.00000000000E+00  0.14027962064E+03  0.14027962064E+03  0.00000000000E+00 0.  1.
         21   -1    0    0  501  502 -0.00000000000E+00 -0.00000000000E+00 -0.36826788617E+03  0.36826788617E+03  0.00000000000E+00 0.  1.
      99926    2    1    2    0    0  0.00000000000E+00  0.00000000000E+00 -0.22798826553E+03  0.50854750682E+03  0.45457883526E+03 0.  0.
      99925    2    3    3    0    0 -0.56654131204E+02 -0.93985057530E+02 -0.17242079185E+03  0.33311052710E+03  0.26304146476E+03 0.  0.
         25    1    4    4    0    0  0.11370719867E+02 -0.41383885270E+02 -0.66603166405E+02  0.14807231039E+03  0.12509000000E+03 0.  0.
         25    1    4    4    0    0 -0.68024851071E+02 -0.52601172260E+02 -0.10581762545E+03  0.18503821671E+03  0.12509000000E+03 0.  0.
         25    1    3    3    0    0  0.56654131204E+02  0.93985057530E+02 -0.55567473678E+02  0.17543697972E+03  0.12509000000E+03 0.  0.
<mgrwt>
<rscale>  2 0.45457884E+03</rscale>
<asrwt>0</asrwt>
<pdfrwt beam="1">  1       21 0.20629356E-01 0.45457884E+03</pdfrwt>
<pdfrwt beam="2">  1       21 0.54157041E-01 0.45457884E+03</pdfrwt>
<totfact> 0.64890881E+04</totfact>
</mgrwt>
</event>
<event>
 7    0  0.4784406E-002  0.4603567E+03  0.7546771E-02  0.1024678E+00
         21   -1    0    0  502  501  0.00000000000E+00  0.00000000000E+00  0.19034465895E+03  0.19034465895E+03  0.00000000000E+00 0. -1.
         21   -1    0    0  501  502 -0.00000000000E+00 -0.00000000000E+00 -0.27834813707E+03  0.27834813707E+03  0.00000000000E+00 0. -1.
      99926    2    1    2    0    0  0.00000000000E+00  0.00000000000E+00 -0.88003478120E+02  0.46869279603E+03  0.46035673655E+03 0.  0.
      99925    2    3    3    0    0 -0.60879688453E+02  0.39850508937E+02 -0.14989514797E+03  0.31130001848E+03  0.26295388681E+03 0.  0.
         25    1    3    3    0    0  0.60879688453E+02 -0.39850508937E+02  0.61891669849E+02  0.15739277755E+03  0.12509000000E+03 0.  0.
         25    1    4    4    0    0  0.90864303738E+01  0.15722580252E+02 -0.55899005516E+02  0.13820987542E+03  0.12509000000E+03 0.  0.
         25    1    4    4    0    0 -0.69966118826E+02  0.24127928684E+02 -0.93996142453E+02  0.17309014305E+03  0.12509000000E+03 0.  0.
<mgrwt>
<rscale>  2 0.46035674E+03</rscale>
<asrwt>0</asrwt>
<pdfrwt beam="1">  1       21 0.27991862E-01 0.46035674E+03</pdfrwt>
<pdfrwt beam="2">  1       21 0.40933549E-01 0.46035674E+03</pdfrwt>
<totfact> 0.64736118E+04</totfact>
</mgrwt>
</event>
<event>
 7    0  0.4784406E-002  0.4620699E+03  0.7546771E-02  0.1024183E+00
         21   -1    0    0  502  501  0.00000000000E+00  0.00000000000E+00  0.41846608595E+03  0.41846608595E+03  0.00000000000E+00 0.  1.
         21   -1    0    0  501  502 -0.00000000000E+00 -0.00000000000E+00 -0.12755428595E+03  0.12755428595E+03  0.00000000000E+00 0.  1.
      99926    2    1    2    0    0  0.00000000000E+00  0.00000000000E+00  0.29091180000E+03  0.54602037190E+03  0.46206987692E+03 0.  0.
      99925    2    3    3    0    0  0.10067790276E+03 -0.30883254956E+02  0.11536117440E+03  0.30611341954E+03  0.26326300448E+03 0.  0.
         25    1    4    4    0    0  0.90007042558E+02 -0.13323283180E+01  0.54137550876E+02  0.16334449891E+03  0.12509000000E+03 0.  0.
         25    1    3    3    0    0 -0.10067790276E+03  0.30883254956E+02  0.17555062560E+03  0.23990695236E+03  0.12509000000E+03 0.  0.
         25    1    4    4    0    0  0.10670860205E+02 -0.29550926638E+02  0.61223623521E+02  0.14276892064E+03  0.12509000000E+03 0.  0.
<mgrwt>
<rscale>  2 0.46206988E+03</rscale>
<asrwt>0</asrwt>
<pdfrwt beam="1">  1       21 0.61539130E-01 0.46206988E+03</pdfrwt>
<pdfrwt beam="2">  1       21 0.18757983E-01 0.46206988E+03</pdfrwt>
<totfact> 0.58772585E+04</totfact>
</mgrwt>
</event>
<event>
 7    0  0.4784406E-002  0.4587018E+03  0.7546771E-02  0.1025158E+00
         21   -1    0    0  502  501  0.00000000000E+00  0.00000000000E+00  0.48139884158E+02  0.48139884158E+02  0.00000000000E+00 0. -1.
         21   -1    0    0  501  502 -0.00000000000E+00 -0.00000000000E+00 -0.10926869695E+04  0.10926869695E+04  0.00000000000E+00 0. -1.
      99926    2    1    2    0    0  0.00000000000E+00  0.00000000000E+00 -0.10445470853E+04  0.11408268537E+04  0.45870175117E+03 0.  0.
      99925    2    3    3    0    0 -0.18660406945E+02  0.69386898574E+02 -0.42676475164E+03  0.50642534640E+03  0.26301278628E+03 0.  0.
         25    1    4    4    0    0 -0.18155926282E+02  0.23584804097E+02 -0.13917294192E+03  0.18947954113E+03  0.12509000000E+03 0.  0.
         25    1    3    3    0    0  0.18660406945E+02 -0.69386898574E+02 -0.61778233370E+03  0.63440150726E+03  0.12509000000E+03 0.  0.
         25    1    4    4    0    0 -0.50448066340E+00  0.45802094477E+02 -0.28759180972E+03  0.31694580526E+03  0.12509000000E+03 0.  0.
<mgrwt>
<rscale>  2 0.45870175E+03</rscale>
<asrwt>0</asrwt>
<pdfrwt beam="1">  1       21 0.70793951E-02 0.45870175E+03</pdfrwt>
<pdfrwt beam="2">  1       21 0.16068925E+00 0.45870175E+03</pdfrwt>
<totfact> 0.33124024E+04</totfact>
</mgrwt>
</event>
<event>
 7    0  0.4784406E-002  0.4514339E+03  0.7546771E-02  0.1027295E+00
         21   -1    0    0  502  501  0.00000000000E+00  0.00000000000E+00  0.52560770047E+03  0.52560770047E+03  0.00000000000E+00 0.  1.
         21   -1    0    0  501  502 -0.00000000000E+00 -0.00000000000E+00 -0.96931895082E+02  0.96931895082E+02  0.00000000000E+00 0.  1.
      99926    2    1    2    0    0  0.00000000000E+00  0.00000000000E+00  0.42867580538E+03  0.62253959555E+03  0.45143393969E+03 0.  0.
      99925    2    3    3    0    0  0.24664768665E+02 -0.34476934923E+02  0.13091343517E+03  0.29679898238E+03  0.26297204904E+03 0.  0.
         25    1    4    4    0    0 -0.16241160172E+02 -0.37943395009E+02  0.87644683373E+02  0.15821686109E+03  0.12509000000E+03 0.  0.
         25    1    4    4    0    0  0.40905928837E+02  0.34664600858E+01  0.43268751802E+02  0.13858212129E+03  0.12509000000E+03 0.  0.
         25    1    3    3    0    0 -0.24664768665E+02  0.34476934923E+02  0.29776237021E+03  0.32574061317E+03  0.12509000000E+03 0.  0.
<mgrwt>
<rscale>  2 0.45143394E+03</rscale>
<asrwt>0</asrwt>
<pdfrwt beam="1">  1       21 0.77295248E-01 0.45143394E+03</pdfrwt>
<pdfrwt beam="2">  1       21 0.14254691E-01 0.45143394E+03</pdfrwt>
<totfact> 0.58954416E+04</totfact>
</mgrwt>
</event>
<event>
 7    0  0.4784406E-002  0.4540090E+03  0.7546771E-02  0.1026533E+00
         21   -1    0    0  502  501  0.00000000000E+00  0.00000000000E+00  0.22414795030E+03  0.22414795030E+03  0.00000000000E+00 0.  1.
         21   -1    0    0  501  502 -0.00000000000E+00 -0.00000000000E+00 -0.22989748548E+03  0.22989748548E+03  0.00000000000E+00 0.  1.
      99926    2    1    2    0    0  0.00000000000E+00  0.17763568394E-14 -0.57495351724E+01  0.45404543578E+03  0.45400903141E+03 0.  0.
      99925    2    3    3    0    0 -0.11176368395E+03  0.53864444743E+01 -0.13980416671E+02  0.28601153937E+03  0.26284408642E+03 0.  0.
         25    1    4    4    0    0 -0.61591663186E+02 -0.29630024644E+02  0.16399545564E+02  0.14348492788E+03  0.12509000000E+03 0.  0.
         25    1    3    3    0    0  0.11176368395E+03 -0.53864444743E+01  0.82308814986E+01  0.16803389641E+03  0.12509000000E+03 0.  0.
         25    1    4    4    0    0 -0.50172020759E+02  0.35016469118E+02 -0.30379962236E+02  0.14252661149E+03  0.12509000000E+03 0.  0.
<mgrwt>
<rscale>  2 0.45400903E+03</rscale>
<asrwt>0</asrwt>
<pdfrwt beam="1">  1       21 0.32962934E-01 0.45400903E+03</pdfrwt>
<pdfrwt beam="2">  1       21 0.33808454E-01 0.45400903E+03</pdfrwt>
<totfact> 0.69161012E+04</totfact>
</mgrwt>
</event>
<event>
 7    0  0.4784406E-002  0.4557799E+03  0.7546771E-02  0.1026012E+00
         21   -1    0    0  502  501  0.00000000000E+00  0.00000000000E+00  0.11106703927E+03  0.11106703927E+03  0.00000000000E+00 0. -1.
         21   -1    0    0  501  502 -0.00000000000E+00 -0.00000000000E+00 -0.46758990700E+03  0.46758990700E+03  0.00000000000E+00 0. -1.
      99926    2    1    2    0    0  0.35527136788E-14  0.14210854715E-13 -0.35652286773E+03  0.57865694627E+03  0.45577988794E+03 0.  0.
      99925    2    3    3    0    0 -0.21299316172E+02 -0.10470756634E+03 -0.17382208808E+03  0.33280248057E+03  0.26291830947E+03 0.  0.
         25    1    4    4    0    0 -0.29130404217E+02 -0.81227982093E+02 -0.65472554462E+02  0.16547123319E+03  0.12509000000E+03 0.  0.
         25    1    4    4    0    0  0.78310880445E+01 -0.23479584248E+02 -0.10834953362E+03  0.16733124738E+03  0.12509000000E+03 0.  0.
         25    1    3    3    0    0  0.21299316172E+02  0.10470756634E+03 -0.18270077965E+03  0.24585446570E+03  0.12509000000E+03 0.  0.
<mgrwt>
<rscale>  2 0.45577989E+03</rscale>
<asrwt>0</asrwt>
<pdfrwt beam="1">  1       21 0.16333388E-01 0.45577989E+03</pdfrwt>
<pdfrwt beam="2">  1       21 0.68763222E-01 0.45577989E+03</pdfrwt>
<totfact> 0.59643004E+04</totfact>
</mgrwt>
</event>
<event>
 7    0  0.4784406E-002  0.4521369E+03  0.7546771E-02  0.1027087E+00
         21   -1    0    0  502  501  0.00000000000E+00  0.00000000000E+00  0.22690509977E+02  0.22690509977E+02  0.00000000000E+00 0. -1.
         21   -1    0    0  501  502 -0.00000000000E+00 -0.00000000000E+00 -0.22523488014E+04  0.22523488014E+04  0.00000000000E+00 0. -1.
      99926    2    1    2    0    0 -0.14210854715E-13  0.14210854715E-13 -0.22296582915E+04  0.22750393114E+04  0.45213689498E+03 0.  0.
      99925    2    3    3    0    0 -0.63411947248E+02  0.70604221307E+02 -0.16947609937E+04  0.17175730269E+04  0.26236662486E+03 0.  0.
         25    1    4    4    0    0 -0.70462170857E+02  0.26058370662E+02 -0.91123741473E+03  0.92284618995E+03  0.12509000000E+03 0.  0.
         25    1    4    4    0    0  0.70502236091E+01  0.44545850645E+02 -0.78352357895E+03  0.79472683692E+03  0.12509000000E+03 0.  0.
         25    1    3    3    0    0  0.63411947248E+02 -0.70604221307E+02 -0.53489729778E+03  0.55746628453E+03  0.12509000000E+03 0.  0.
<mgrwt>
<rscale>  2 0.45213689E+03</rscale>
<asrwt>0</asrwt>
<pdfrwt beam="1">  1       21 0.33368404E-02 0.45213689E+03</pdfrwt>
<pdfrwt beam="2">  1       21 0.33122770E+00 0.45213689E+03</pdfrwt>
<totfact> 0.99356677E+03</totfact>
</mgrwt>
</event>
<event>
 6    0  0.4784406E-002  0.4571063E+03  0.7546771E-02  0.1025624E+00
         21   -1    0    0  502  501  0.00000000000E+00  0.00000000000E+00  0.22892375202E+03  0.22892375202E+03  0.00000000000E+00 0. -1.
         21   -1    0    0  501  502 -0.00000000000E+00 -0.00000000000E+00 -0.22818315416E+03  0.22818315416E+03  0.00000000000E+00 0. -1.
      99926    2    1    2    0    0  0.00000000000E+00  0.00000000000E+00  0.74059785505E+00  0.45710690618E+03  0.45710630623E+03 0.  0.
         25    1    3    3    0    0 -0.15494018909E+02 -0.32147342276E+02 -0.30533331209E+02  0.13361627390E+03  0.12509000000E+03 0.  0.
         25    1    3    3    0    0 -0.83186892009E+02  0.56913721051E+02  0.19414003632E+02  0.16181360352E+03  0.12509000000E+03 0.  0.
         25    1    3    3    0    0  0.98680910918E+02 -0.24766378776E+02  0.11859925432E+02  0.16167702876E+03  0.12509000000E+03 0.  0.
<mgrwt>
<rscale>  2 0.45710631E+03</rscale>
<asrwt>0</asrwt>
<pdfrwt beam="1">  1       21 0.33665258E-01 0.45710631E+03</pdfrwt>
<pdfrwt beam="2">  1       21 0.33556346E-01 0.45710631E+03</pdfrwt>
<totfact> 0.67254302E+04</totfact>
</mgrwt>
</event>
<event>
 7    0  0.4784406E-002  0.4623918E+03  0.7546771E-02  0.1024090E+00
         21   -1    0    0  502  501  0.00000000000E+00  0.00000000000E+00  0.84749693032E+02  0.84749693032E+02  0.00000000000E+00 0. -1.
         21   -1    0    0  501  502 -0.00000000000E+00 -0.00000000000E+00 -0.63069900617E+03  0.63069900617E+03  0.00000000000E+00 0. -1.
      99926    2    1    2    0    0 -0.71054273576E-14 -0.14210854715E-13 -0.54594931314E+03  0.71544869920E+03  0.46239181294E+03 0.  0.
      99925    2    3    3    0    0  0.36656614791E+02 -0.11398730838E+03 -0.35319225298E+03  0.45633558449E+03  0.26298399994E+03 0.  0.
         25    1    4    4    0    0 -0.18156760876E+02 -0.37182329776E+02 -0.14781710085E+03  0.19801413338E+03  0.12509000000E+03 0.  0.
         25    1    3    3    0    0 -0.36656614791E+02  0.11398730838E+03 -0.19275706016E+03  0.25911311472E+03  0.12509000000E+03 0.  0.
         25    1    4    4    0    0  0.54813375667E+02 -0.76804978600E+02 -0.20537515213E+03  0.25832145111E+03  0.12509000000E+03 0.  0.
<mgrwt>
<rscale>  2 0.46239181E+03</rscale>
<asrwt>0</asrwt>
<pdfrwt beam="1">  1       21 0.12463191E-01 0.46239181E+03</pdfrwt>
<pdfrwt beam="2">  1       21 0.92749849E-01 0.46239181E+03</pdfrwt>
<totfact> 0.49151174E+04</totfact>
</mgrwt>
</event>
<event>
 7    0  0.4784406E-002  0.4459107E+03  0.7546771E-02  0.1028949E+00
         21   -1    0    0  502  501  0.00000000000E+00  0.00000000000E+00  0.24683531354E+03  0.24683531354E+03  0.00000000000E+00 0. -1.
         21   -1    0    0  501  502 -0.00000000000E+00 -0.00000000000E+00 -0.20138567948E+03  0.20138567948E+03  0.00000000000E+00 0. -1.
      99926    2    1    2    0    0  0.71054273576E-14  0.00000000000E+00  0.45449634055E+02  0.44822099302E+03  0.44591074146E+03 0.  0.
      99925    2    3    3    0    0  0.36634845792E+02 -0.83398777796E+02 -0.22491308357E+02  0.27922114740E+03  0.26298502265E+03 0.  0.
         25    1    4    4    0    0 -0.51649187587E+01 -0.19319623691E+02 -0.36740179387E+02  0.13189872299E+03  0.12509000000E+03 0.  0.
         25    1    3    3    0    0 -0.36634845792E+02  0.83398777796E+02  0.67940942412E+02  0.16899984562E+03  0.12509000000E+03 0.  0.
         25    1    4    4    0    0  0.41799764551E+02 -0.64079154105E+02  0.14248871030E+02  0.14732242441E+03  0.12509000000E+03 0.  0.
<mgrwt>
<rscale>  2 0.44591074E+03</rscale>
<asrwt>0</asrwt>
<pdfrwt beam="1">  1       21 0.36299311E-01 0.44591074E+03</pdfrwt>
<pdfrwt beam="2">  1       21 0.29615541E-01 0.44591074E+03</pdfrwt>
<totfact> 0.74288172E+04</totfact>
</mgrwt>
</event>
<event>
 7    0  0.4784406E-002  0.4568518E+03  0.7546771E-02  0.1025698E+00
         21   -1    0    0  502  501  0.00000000000E+00  0.00000000000E+00  0.25184766771E+02  0.25184766771E+02  0.00000000000E+00 0. -1.
         21   -1    0    0  501  502 -0.00000000000E+00 -0.00000000000E+00 -0.20718232468E+04  0.20718232468E+04  0.00000000000E+00 0. -1.
      99926    2    1    2    0    0  0.00000000000E+00  0.00000000000E+00 -0.20466384801E+04  0.20970080136E+04  0.45685177142E+03 0.  0.
      99925    2    3    3    0    0  0.74883656006E+02 -0.40170704204E+02 -0.93101377089E+03  0.97118065241E+03  0.26302845968E+03 0.  0.
         25    1    4    4    0    0  0.57597661040E+02 -0.18049320801E+02 -0.60785344451E+03  0.62351951585E+03  0.12509000000E+03 0.  0.
         25    1    3    3    0    0 -0.74883656006E+02  0.40170704204E+02 -0.11156247092E+04  0.11258273612E+04  0.12509000000E+03 0.  0.
         25    1    4    4    0    0  0.17285994967E+02 -0.22121383403E+02 -0.32316032638E+03  0.34766113656E+03  0.12509000000E+03 0.  0.
<mgrwt>
<rscale>  2 0.45685177E+03</rscale>
<asrwt>0</asrwt>
<pdfrwt beam="1">  1       21 0.37036410E-02 0.45685177E+03</pdfrwt>
<pdfrwt beam="2">  1       21 0.30467998E+00 0.45685177E+03</pdfrwt>
<totfact> 0.12016158E+04</totfact>
</mgrwt>
</event>
<event>
 7    0  0.4784406E-002  0.4450786E+03  0.7546771E-02  0.1029200E+00
         21   -1    0    0  502  501  0.00000000000E+00  0.00000000000E+00  0.67054481057E+03  0.67054481057E+03  0.00000000000E+00 0.  1.
         21   -1    0    0  501  502 -0.00000000000E+00 -0.00000000000E+00 -0.73855962243E+02  0.73855962243E+02  0.00000000000E+00 0.  1.
      99926    2    1    2    0    0  0.00000000000E+00  0.00000000000E+00  0.59668884832E+03  0.74440077281E+03  0.44507856480E+03 0.  0.
      99925    2    3    3    0    0 -0.38009683620E+02  0.94730440127E+02  0.40796221616E+03  0.49603845255E+03  0.26306346052E+03 0.  0.
         25    1    4    4    0    0  0.48931191142E+01  0.67822911677E+02  0.25498893240E+03  0.29204580755E+03  0.12509000000E+03 0.  0.
         25    1    3    3    0    0  0.38009683620E+02 -0.94730440127E+02  0.18872663216E+03  0.24836232026E+03  0.12509000000E+03 0.  0.
         25    1    4    4    0    0 -0.42902802735E+02  0.26907528450E+02  0.15297328376E+03  0.20399264500E+03  0.12509000000E+03 0.  0.
<mgrwt>
<rscale>  2 0.44507856E+03</rscale>
<asrwt>0</asrwt>
<pdfrwt beam="1">  1       21 0.98609527E-01 0.44507856E+03</pdfrwt>
<pdfrwt beam="2">  1       21 0.10861171E-01 0.44507856E+03</pdfrwt>
<totfact> 0.54700452E+04</totfact>
</mgrwt>
</event>
<event>
 7    0  0.4784406E-002  0.4474302E+03  0.7546771E-02  0.1028491E+00
         21   -1    0    0  502  501  0.00000000000E+00  0.00000000000E+00  0.26302332573E+03  0.26302332573E+03  0.00000000000E+00 0.  1.
         21   -1    0    0  501  502 -0.00000000000E+00 -0.00000000000E+00 -0.19028136243E+03  0.19028136243E+03  0.00000000000E+00 0.  1.
      99926    2    1    2    0    0  0.00000000000E+00 -0.71054273576E-14  0.72741963302E+02  0.45330468816E+03  0.44743015889E+03 0.  0.
      99925    2    3    3    0    0 -0.53242979356E+02 -0.63471695403E+02  0.11302125954E+03  0.29795540180E+03  0.26294513760E+03 0.  0.
         25    1    3    3    0    0  0.53242979356E+02  0.63471695403E+02 -0.40279296242E+02  0.15534928636E+03  0.12509000000E+03 0.  0.
         25    1    4    4    0    0 -0.53719668371E+02 -0.36775629407E+02  0.26373587058E+02  0.14346192485E+03  0.12509000000E+03 0.  0.
         25    1    4    4    0    0  0.47668901499E+00 -0.26696065996E+02  0.86647672487E+02  0.15449347695E+03  0.12509000000E+03 0.  0.
<mgrwt>
<rscale>  2 0.44743016E+03</rscale>
<asrwt>0</asrwt>
<pdfrwt beam="1">  1       21 0.38679901E-01 0.44743016E+03</pdfrwt>
<pdfrwt beam="2">  1       21 0.27982553E-01 0.44743016E+03</pdfrwt>
<totfact> 0.72978102E+04</totfact>
</mgrwt>
</event>
<event>
 7    0  0.4784406E-002  0.4597486E+03  0.7546771E-02  0.1024854E+00
         21   -1    0    0  502  501  0.00000000000E+00  0.00000000000E+00  0.55193921293E+03  0.55193921293E+03  0.00000000000E+00 0.  1.
         21   -1    0    0  501  502 -0.00000000000E+00 -0.00000000000E+00 -0.95739136367E+02  0.95739136367E+02  0.00000000000E+00 0.  1.
      99926    2    1    2    0    0  0.00000000000E+00  0.00000000000E+00  0.45620007657E+03  0.64767834930E+03  0.45974855551E+03 0.  0.
      99925    2    3    3    0    0 -0.11109866173E+03  0.36798605401E+02  0.29835309514E+03  0.41474010074E+03  0.26324462347E+03 0.  0.
         25    1    3    3    0    0  0.11109866173E+03 -0.36798605401E+02  0.15784698143E+03  0.23293824856E+03  0.12509000000E+03 0.  0.
         25    1    4    4    0    0 -0.88090594379E+02  0.13171954821E+02  0.12253589952E+03  0.19645866737E+03  0.12509000000E+03 0.  0.
         25    1    4    4    0    0 -0.23008067347E+02  0.23626650580E+02  0.17581719562E+03  0.21828143337E+03  0.12509000000E+03 0.  0.
<mgrwt>
<rscale>  2 0.45974856E+03</rscale>
<asrwt>0</asrwt>
<pdfrwt beam="1">  1       21 0.81167530E-01 0.45974856E+03</pdfrwt>
<pdfrwt beam="2">  1       21 0.14079285E-01 0.45974856E+03</pdfrwt>
<totfact> 0.53791600E+04</totfact>
</mgrwt>
</event>
<event>
 7    0  0.4784406E-002  0.4556076E+03  0.7546771E-02  0.1026063E+00
         21   -1    0    0  502  501  0.00000000000E+00  0.00000000000E+00  0.42211843672E+03  0.42211843672E+03  0.00000000000E+00 0.  1.
         21   -1    0    0  501  502 -0.00000000000E+00 -0.00000000000E+00 -0.12293839039E+03  0.12293839039E+03  0.00000000000E+00 0.  1.
      99926    2    1    2    0    0  0.00000000000E+00  0.00000000000E+00  0.29918004633E+03  0.54505682711E+03  0.45560755554E+03 0.  0.
      99925    2    3    3    0    0  0.11005606465E+03  0.22085909626E+02  0.20987526290E+03  0.35473347801E+03  0.26303628966E+03 0.  0.
         25    1    3    3    0    0 -0.11005606465E+03 -0.22085909626E+02  0.89304783427E+02  0.19032334910E+03  0.12509000000E+03 0.  0.
         25    1    4    4    0    0  0.63780204766E+02 -0.90663876985E-01  0.59460487117E+02  0.15248272154E+03  0.12509000000E+03 0.  0.
         25    1    4    4    0    0  0.46275859882E+02  0.22176573503E+02  0.15041477578E+03  0.20225075647E+03  0.12509000000E+03 0.  0.
<mgrwt>
<rscale>  2 0.45560756E+03</rscale>
<asrwt>0</asrwt>
<pdfrwt beam="1">  1       21 0.62076240E-01 0.45560756E+03</pdfrwt>
<pdfrwt beam="2">  1       21 0.18079175E-01 0.45560756E+03</pdfrwt>
<totfact> 0.61896243E+04</totfact>
</mgrwt>
</event>
<event>
 7    0  0.4784406E-002  0.4442024E+03  0.7546771E-02  0.1029465E+00
         21   -1    0    0  502  501  0.00000000000E+00  0.00000000000E+00  0.64625038368E+02  0.64625038368E+02  0.00000000000E+00 0.  1.
         21   -1    0    0  501  502 -0.00000000000E+00 -0.00000000000E+00 -0.76330999662E+03  0.76330999662E+03  0.00000000000E+00 0.  1.
      99926    2    1    2    0    0  0.35527136788E-14  0.14210854715E-13 -0.69868495825E+03  0.82793503499E+03  0.44420237648E+03 0.  0.
      99925    2    3    3    0    0 -0.19946214116E+02  0.92343021363E+02 -0.51906551358E+03  0.58953256424E+03  0.26304857320E+03 0.  0.
         25    1    4    4    0    0  0.24763009808E+02  0.25826319478E+02 -0.26509040757E+03  0.29529754100E+03  0.12509000000E+03 0.  0.
         25    1    4    4    0    0 -0.44709223924E+02  0.66516701885E+02 -0.25397510601E+03  0.29423502325E+03  0.12509000000E+03 0.  0.
         25    1    3    3    0    0  0.19946214116E+02 -0.92343021363E+02 -0.17961944467E+03  0.23840247074E+03  0.12509000000E+03 0.  0.
<mgrwt>
<rscale>  2 0.44420238E+03</rscale>
<asrwt>0</asrwt>
<pdfrwt beam="1">  1       21 0.95036822E-02 0.44420238E+03</pdfrwt>
<pdfrwt beam="2">  1       21 0.11225147E+00 0.44420238E+03</pdfrwt>
<totfact> 0.50595265E+04</totfact>
</mgrwt>
</event>
<event>
 7    0  0.4784406E-002  0.4587153E+03  0.7546771E-02  0.1025154E+00
         21   -1    0    0  502  501  0.00000000000E+00  0.00000000000E+00  0.32860767182E+04  0.32860767182E+04  0.00000000000E+00 0. -1.
         21   -1    0    0  501  502 -0.00000000000E+00 -0.00000000000E+00 -0.16008427754E+02  0.16008427754E+02  0.00000000000E+00 0. -1.
      99926    2    1    2    0    0 -0.35527136788E-14  0.00000000000E+00  0.32700682904E+04  0.33020851459E+04  0.45871525694E+03 0.  0.
      99925    2    3    3    0    0 -0.17667581160E+02 -0.11431969323E+03  0.19466797675E+04  0.19677741528E+04  0.26304346324E+03 0.  0.
         25    1    3    3    0    0  0.17667581160E+02  0.11431969323E+03  0.13233885229E+04  0.13343109931E+04  0.12509000000E+03 0.  0.
         25    1    4    4    0    0  0.13135027517E+02 -0.71337371728E+02  0.78745601483E+03  0.80062227857E+03  0.12509000000E+03 0.  0.
         25    1    4    4    0    0 -0.30802608677E+02 -0.42982321501E+02  0.11592237527E+04  0.11671518743E+04  0.12509000000E+03 0.  0.
<mgrwt>
<rscale>  2 0.45871526E+03</rscale>
<asrwt>0</asrwt>
<pdfrwt beam="1">  1       21 0.48324611E+00 0.45871526E+03</pdfrwt>
<pdfrwt beam="2">  1       21 0.23541828E-02 0.45871526E+03</pdfrwt>
<totfact> 0.18336543E+03</totfact>
</mgrwt>
</event>
<event>
 7    0  0.4784406E-002  0.4444443E+03  0.7546771E-02  0.1029392E+00
         21   -1    0    0  502  501  0.00000000000E+00  0.00000000000E+00  0.29038975098E+03  0.29038975098E+03  0.00000000000E+00 0. -1.
         21   -1    0    0  501  502 -0.00000000000E+00 -0.00000000000E+00 -0.17005660148E+03  0.17005660148E+03  0.00000000000E+00 0. -1.
      99926    2    1    2    0    0  0.00000000000E+00  0.00000000000E+00  0.12033314950E+03  0.46044635247E+03  0.44444434593E+03 0.  0.
      99925    2    3    3    0    0  0.95181954857E+02 -0.97162909691E+01  0.37059419224E+02  0.28230025204E+03  0.26299433627E+03 0.  0.
         25    1    4    4    0    0  0.85798408007E+02 -0.64768156378E+01  0.39180569239E+02  0.15679904675E+03  0.12509000000E+03 0.  0.
         25    1    4    4    0    0  0.93835468500E+01 -0.32394753313E+01 -0.21211500149E+01  0.12550120529E+03  0.12509000000E+03 0.  0.
         25    1    3    3    0    0 -0.95181954857E+02  0.97162909691E+01  0.83273730278E+02  0.17814610042E+03  0.12509000000E+03 0.  0.
<mgrwt>
<rscale>  2 0.44444435E+03</rscale>
<asrwt>0</asrwt>
<pdfrwt beam="1">  1       21 0.42704375E-01 0.44444435E+03</pdfrwt>
<pdfrwt beam="2">  1       21 0.25008324E-01 0.44444435E+03</pdfrwt>
<totfact> 0.74171782E+04</totfact>
</mgrwt>
</event>
<event>
 7    0  0.4784406E-002  0.4567838E+03  0.7546771E-02  0.1025718E+00
         21   -1    0    0  502  501  0.00000000000E+00  0.00000000000E+00  0.33583676287E+03  0.33583676287E+03  0.00000000000E+00 0.  1.
         21   -1    0    0  501  502 -0.00000000000E+00 -0.00000000000E+00 -0.15532208596E+03  0.15532208596E+03  0.00000000000E+00 0.  1.
      99926    2    1    2    0    0  0.00000000000E+00  0.00000000000E+00  0.18051467691E+03  0.49115884882E+03  0.45678382874E+03 0.  0.
      99925    2    3    3    0    0 -0.10363450623E+03 -0.47002852207E+02  0.12970167875E+03  0.31458351680E+03  0.26304160237E+03 0.  0.
         25    1    4    4    0    0 -0.76160537163E+02 -0.35622430187E+01  0.96200735415E+02  0.17525754361E+03  0.12509000000E+03 0.  0.
         25    1    4    4    0    0 -0.27473969062E+02 -0.43440609189E+02  0.33500943331E+02  0.13932597320E+03  0.12509000000E+03 0.  0.
         25    1    3    3    0    0  0.10363450623E+03  0.47002852207E+02  0.50812998167E+02  0.17657533202E+03  0.12509000000E+03 0.  0.
<mgrwt>
<rscale>  2 0.45678383E+03</rscale>
<asrwt>0</asrwt>
<pdfrwt beam="1">  1       21 0.49387759E-01 0.45678383E+03</pdfrwt>
<pdfrwt beam="2">  1       21 0.22841483E-01 0.45678383E+03</pdfrwt>
<totfact> 0.64971388E+04</totfact>
</mgrwt>
</event>
<event>
 7    0  0.4784406E-002  0.4517049E+03  0.7546771E-02  0.1027215E+00
         21   -1    0    0  502  501  0.00000000000E+00  0.00000000000E+00  0.15492678103E+03  0.15492678103E+03  0.00000000000E+00 0.  1.
         21   -1    0    0  501  502 -0.00000000000E+00 -0.00000000000E+00 -0.32924804703E+03  0.32924804703E+03  0.00000000000E+00 0.  1.
      99926    2    1    2    0    0  0.00000000000E+00  0.00000000000E+00 -0.17432126600E+03  0.48417482807E+03  0.45170494834E+03 0.  0.
      99925    2    3    3    0    0 -0.94051935905E+02  0.57109516438E+02 -0.10907402206E+03  0.30525592338E+03  0.26301477706E+03 0.  0.
         25    1    3    3    0    0  0.94051935905E+02 -0.57109516438E+02 -0.65247243940E+02  0.17891890469E+03  0.12509000000E+03 0.  0.
         25    1    4    4    0    0 -0.28014092957E+02  0.29511241517E+02 -0.13292016389E+02  0.13221152968E+03  0.12509000000E+03 0.  0.
         25    1    4    4    0    0 -0.66037842948E+02  0.27598274922E+02 -0.95782005671E+02  0.17304439370E+03  0.12509000000E+03 0.  0.
<mgrwt>
<rscale>  2 0.45170495E+03</rscale>
<asrwt>0</asrwt>
<pdfrwt beam="1">  1       21 0.22783350E-01 0.45170495E+03</pdfrwt>
<pdfrwt beam="2">  1       21 0.48418831E-01 0.45170495E+03</pdfrwt>
<totfact> 0.68163053E+04</totfact>
</mgrwt>
</event>
<event>
 7    0  0.4784406E-002  0.4509833E+03  0.7546771E-02  0.1027429E+00
         21   -1    0    0  502  501  0.00000000000E+00  0.00000000000E+00  0.16223659720E+04  0.16223659720E+04  0.00000000000E+00 0. -1.
         21   -1    0    0  501  502 -0.00000000000E+00 -0.00000000000E+00 -0.31340946828E+02  0.31340946828E+02  0.00000000000E+00 0. -1.
      99926    2    1    2    0    0  0.00000000000E+00  0.00000000000E+00  0.15910250251E+04  0.16537069188E+04  0.45098330640E+03 0.  0.
      99925    2    3    3    0    0  0.29654595743E+02  0.90335986533E+02  0.81648858553E+03  0.86339420228E+03  0.26411352239E+03 0.  0.
         25    1    3    3    0    0 -0.29654595743E+02 -0.90335986533E+02  0.77453643959E+03  0.79031271650E+03  0.12509000000E+03 0.  0.
         25    1    4    4    0    0  0.16579436593E+02  0.21550215529E+02  0.27639145315E+03  0.30459650848E+03  0.12509000000E+03 0.  0.
         25    1    4    4    0    0  0.13075159150E+02  0.68785771004E+02  0.54009713239E+03  0.55879769380E+03  0.12509000000E+03 0.  0.
<mgrwt>
<rscale>  2 0.45098331E+03</rscale>
<asrwt>0</asrwt>
<pdfrwt beam="1">  1       21 0.23858317E+00 0.45098331E+03</pdfrwt>
<pdfrwt beam="2">  1       21 0.46089639E-02 0.45098331E+03</pdfrwt>
<totfact> 0.20886759E+04</totfact>
</mgrwt>
</event>
<event>
 7    0  0.4784406E-002  0.4444300E+03  0.7546771E-02  0.1029396E+00
         21   -1    0    0  502  501  0.00000000000E+00  0.00000000000E+00  0.86064419565E+02  0.86064419565E+02  0.00000000000E+00 0.  1.
         21   -1    0    0  501  502 -0.00000000000E+00 -0.00000000000E+00 -0.57375051817E+03  0.57375051817E+03  0.00000000000E+00 0.  1.
      99926    2    1    2    0    0  0.00000000000E+00  0.00000000000E+00 -0.48768609861E+03  0.65981493774E+03  0.44442999594E+03 0.  0.
      99925    2    3    3    0    0  0.51037528383E+01 -0.22647585860E+02 -0.16109972725E+03  0.30932224524E+03  0.26303643824E+03 0.  0.
         25    1    3    3    0    0 -0.51037528383E+01  0.22647585860E+02 -0.32658637136E+03  0.35049269250E+03  0.12509000000E+03 0.  0.
         25    1    4    4    0    0 -0.23299764174E+02 -0.20044842876E+02 -0.11594575662E+03  0.17330782243E+03  0.12509000000E+03 0.  0.
         25    1    4    4    0    0  0.28403517012E+02 -0.26027429843E+01 -0.45153970635E+02  0.13601442282E+03  0.12509000000E+03 0.  0.
<mgrwt>
<rscale>  2 0.44443000E+03</rscale>
<asrwt>0</asrwt>
<pdfrwt beam="1">  1       21 0.12656532E-01 0.44443000E+03</pdfrwt>
<pdfrwt beam="2">  1       21 0.84375078E-01 0.44443000E+03</pdfrwt>
<totfact> 0.59982824E+04</totfact>
</mgrwt>
</event>
<event>
 7    0  0.4784406E-002  0.4600405E+03  0.7546771E-02  0.1024769E+00
         21   -1    0    0  502  501  0.00000000000E+00  0.00000000000E+00  0.95174378621E+03  0.95174378621E+03  0.00000000000E+00 0. -1.
         21   -1    0    0  501  502 -0.00000000000E+00 -0.00000000000E+00 -0.55591977005E+02  0.55591977005E+02  0.00000000000E+00 0. -1.
      99926    2    1    2    0    0  0.71054273576E-14 -0.14210854715E-13  0.89615180920E+03  0.10073357632E+04  0.46004051420E+03 0.  0.
      99925    2    3    3    0    0 -0.62126926914E+02  0.94864480098E+02  0.49172376297E+03  0.56907947140E+03  0.26305923491E+03 0.  0.
         25    1    3    3    0    0  0.62126926914E+02 -0.94864480098E+02  0.40442804624E+03  0.43825629182E+03  0.12509000000E+03 0.  0.
         25    1    4    4    0    0 -0.27804586267E+01  0.61442624885E+02  0.29427717468E+03  0.32562169882E+03  0.12509000000E+03 0.  0.
         25    1    4    4    0    0 -0.59346468288E+02  0.33421855213E+02  0.19744658828E+03  0.24345777258E+03  0.12509000000E+03 0.  0.
<mgrwt>
<rscale>  2 0.46004051E+03</rscale>
<asrwt>0</asrwt>
<pdfrwt beam="1">  1       21 0.13996231E+00 0.46004051E+03</pdfrwt>
<pdfrwt beam="2">  1       21 0.81752913E-02 0.46004051E+03</pdfrwt>
<totfact> 0.37389140E+04</totfact>
</mgrwt>
</event>
<event>
 7    0  0.4784406E-002  0.4490427E+03  0.7546771E-02  0.1028008E+00
         21   -1    0    0  502  501  0.00000000000E+00  0.00000000000E+00  0.20839137985E+03  0.20839137985E+03  0.00000000000E+00 0.  1.
         21   -1    0    0  501  502 -0.00000000000E+00 -0.00000000000E+00 -0.24189981977E+03  0.24189981977E+03  0.00000000000E+00 0.  1.
      99926    2    1    2    0    0  0.17763568394E-14  0.35527136788E-14 -0.33508439918E+02  0.45029119961E+03  0.44904270276E+03 0.  0.
      99925    2    3    3    0    0 -0.11764069641E+02 -0.27527606405E+02  0.82425281821E+02  0.27713145145E+03  0.26289114068E+03 0.  0.
         25    1    4    4    0    0 -0.41204811016E+02 -0.32073473871E+02  0.34211593003E+02  0.13980159288E+03  0.12509000000E+03 0.  0.
         25    1    3    3    0    0  0.11764069641E+02  0.27527606405E+02 -0.11593372174E+03  0.17315974817E+03  0.12509000000E+03 0.  0.
         25    1    4    4    0    0  0.29440741375E+02  0.45458674664E+01  0.48213688818E+02  0.13732985856E+03  0.12509000000E+03 0.  0.
<mgrwt>
<rscale>  2 0.44904270E+03</rscale>
<asrwt>0</asrwt>
<pdfrwt beam="1">  1       21 0.30645791E-01 0.44904270E+03</pdfrwt>
<pdfrwt beam="2">  1       21 0.35573503E-01 0.44904270E+03</pdfrwt>
<totfact> 0.72266524E+04</totfact>
</mgrwt>
</event>
<event>
 7    0  0.4784406E-002  0.4549229E+03  0.7546771E-02  0.1026264E+00
         21   -1    0    0  502  501  0.00000000000E+00  0.00000000000E+00  0.16474549727E+03  0.16474549727E+03  0.00000000000E+00 0.  1.
         21   -1    0    0  501  502 -0.00000000000E+00 -0.00000000000E+00 -0.31405232814E+03  0.31405232814E+03  0.00000000000E+00 0.  1.
      99926    2    1    2    0    0  0.14210854715E-13  0.00000000000E+00 -0.14930683086E+03  0.47879782541E+03  0.45492288123E+03 0.  0.
      99925    2    3    3    0    0 -0.89500910739E+02 -0.66086572382E+02 -0.71948654107E+02  0.29438078801E+03  0.26287942378E+03 0.  0.
         25    1    3    3    0    0  0.89500910739E+02  0.66086572382E+02 -0.77358176757E+02  0.18441703740E+03  0.12509000000E+03 0.  0.
         25    1    4    4    0    0 -0.36992781016E+02  0.13107258257E+01 -0.10380299335E+02  0.13086421422E+03  0.12509000000E+03 0.  0.
         25    1    4    4    0    0 -0.52508129723E+02 -0.67397298208E+02 -0.61568354772E+02  0.16351657378E+03  0.12509000000E+03 0.  0.
<mgrwt>
<rscale>  2 0.45492288E+03</rscale>
<asrwt>0</asrwt>
<pdfrwt beam="1">  1       21 0.24227279E-01 0.45492288E+03</pdfrwt>
<pdfrwt beam="2">  1       21 0.46184166E-01 0.45492288E+03</pdfrwt>
<totfact> 0.66828605E+04</totfact>
</mgrwt>
</event>
<event>
 7    0  0.4784406E-002  0.4550173E+03  0.7546771E-02  0.1026236E+00
         21   -1    0    0  502  501  0.00000000000E+00  0.00000000000E+00  0.57954983613E+02  0.57954983613E+02  0.00000000000E+00 0. -1.
         21   -1    0    0  501  502 -0.00000000000E+00 -0.00000000000E+00 -0.89311024161E+03  0.89311024161E+03  0.00000000000E+00 0. -1.
      99926    2    1    2    0    0  0.00000000000E+00  0.00000000000E+00 -0.83515525799E+03  0.95106522522E+03  0.45501731579E+03 0.  0.
      99925    2    3    3    0    0 -0.70901401981E+02  0.79752595633E+02 -0.45711868796E+03  0.53881937418E+03  0.26453986051E+03 0.  0.
         25    1    3    3    0    0  0.70901401981E+02 -0.79752595633E+02 -0.37803657004E+03  0.41224585104E+03  0.12509000000E+03 0.  0.
         25    1    4    4    0    0 -0.43724479087E+02  0.21444133893E+02 -0.15168797158E+03  0.20255475746E+03  0.12509000000E+03 0.  0.
         25    1    4    4    0    0 -0.27176922894E+02  0.58308461740E+02 -0.30543071638E+03  0.33626461672E+03  0.12509000000E+03 0.  0.
<mgrwt>
<rscale>  2 0.45501732E+03</rscale>
<asrwt>0</asrwt>
<pdfrwt beam="1">  1       21 0.85227926E-02 0.45501732E+03</pdfrwt>
<pdfrwt beam="2">  1       21 0.13133973E+00 0.45501732E+03</pdfrwt>
<totfact> 0.41092145E+04</totfact>
</mgrwt>
</event>
<event>
 7    0  0.4784406E-002  0.4507551E+03  0.7546771E-02  0.1027497E+00
         21   -1    0    0  502  501  0.00000000000E+00  0.00000000000E+00  0.35231993287E+03  0.35231993287E+03  0.00000000000E+00 0.  1.
         21   -1    0    0  501  502 -0.00000000000E+00 -0.00000000000E+00 -0.14417305734E+03  0.14417305734E+03  0.00000000000E+00 0.  1.
      99926    2    1    2    0    0  0.00000000000E+00 -0.13322676296E-14  0.20814687554E+03  0.49649299021E+03  0.45075510816E+03 0.  0.
      99925    2    3    3    0    0  0.73719287719E+02 -0.29461319307E+01  0.42806928640E+02  0.27642931939E+03  0.26294014985E+03 0.  0.
         25    1    4    4    0    0  0.42883420005E+02  0.13039449909E+02  0.59400686494E+02  0.14555055693E+03  0.12509000000E+03 0.  0.
         25    1    4    4    0    0  0.30835867714E+02 -0.15985581840E+02 -0.16593757854E+02  0.13087876246E+03  0.12509000000E+03 0.  0.
         25    1    3    3    0    0 -0.73719287719E+02  0.29461319307E+01  0.16533994690E+03  0.22006367082E+03  0.12509000000E+03 0.  0.
<mgrwt>
<rscale>  2 0.45075511E+03</rscale>
<asrwt>0</asrwt>
<pdfrwt beam="1">  1       21 0.51811755E-01 0.45075511E+03</pdfrwt>
<pdfrwt beam="2">  1       21 0.21201920E-01 0.45075511E+03</pdfrwt>
<totfact> 0.67772836E+04</totfact>
</mgrwt>
</event>
<event>
 7    0  0.4784406E-002  0.4623755E+03  0.7546771E-02  0.1024095E+00
         21   -1    0    0  502  501  0.00000000000E+00  0.00000000000E+00  0.42647397444E+03  0.42647397444E+03  0.00000000000E+00 0.  1.
         21   -1    0    0  501  502 -0.00000000000E+00 -0.00000000000E+00 -0.12532480705E+03  0.12532480705E+03  0.00000000000E+00 0.  1.
      99926    2    1    2    0    0  0.00000000000E+00  0.00000000000E+00  0.30114916739E+03  0.55179878149E+03  0.46237546889E+03 0.  0.
      99925    2    3    3    0    0 -0.33087658121E+02 -0.84288883526E+02  0.28213990567E+03  0.39620871388E+03  0.26301902893E+03 0.  0.
         25    1    4    4    0    0  0.45175733226E+01 -0.64143779501E+02  0.10662245501E+03  0.17649557765E+03  0.12509000000E+03 0.  0.
         25    1    4    4    0    0 -0.37605231444E+02 -0.20145104025E+02  0.17551745065E+03  0.21971313623E+03  0.12509000000E+03 0.  0.
         25    1    3    3    0    0  0.33087658121E+02  0.84288883526E+02  0.19009261726E+02  0.15559006760E+03  0.12509000000E+03 0.  0.
<mgrwt>
<rscale>  2 0.46237547E+03</rscale>
<asrwt>0</asrwt>
<pdfrwt beam="1">  1       21 0.62716761E-01 0.46237547E+03</pdfrwt>
<pdfrwt beam="2">  1       21 0.18430119E-01 0.46237547E+03</pdfrwt>
<totfact> 0.58272296E+04</totfact>
</mgrwt>
</event>
<event>
 7    0  0.4784406E-002  0.4501140E+03  0.7546771E-02  0.1027688E+00
         21   -1    0    0  502  501  0.00000000000E+00  0.00000000000E+00  0.60810054605E+02  0.60810054605E+02  0.00000000000E+00 0. -1.
         21   -1    0    0  501  502 -0.00000000000E+00 -0.00000000000E+00 -0.83293232020E+03  0.83293232020E+03  0.00000000000E+00 0. -1.
      99926    2    1    2    0    0  0.00000000000E+00  0.00000000000E+00 -0.77212226559E+03  0.89374237480E+03  0.45011402943E+03 0.  0.
      99925    2    3    3    0    0  0.76104861548E+02 -0.57014076081E+02 -0.38427196906E+03  0.47527144936E+03  0.26301226121E+03 0.  0.
         25    1    3    3    0    0 -0.76104861548E+02  0.57014076081E+02 -0.38785029653E+03  0.41847092544E+03  0.12509000000E+03 0.  0.
         25    1    4    4    0    0 -0.15577113303E+01 -0.16780268032E+02 -0.19213027955E+03  0.22988161362E+03  0.12509000000E+03 0.  0.
         25    1    4    4    0    0  0.77662572878E+02 -0.40233808050E+02 -0.19214168951E+03  0.24538983574E+03  0.12509000000E+03 0.  0.
<mgrwt>
<rscale>  2 0.45011403E+03</rscale>
<asrwt>0</asrwt>
<pdfrwt beam="1">  1       21 0.89426555E-02 0.45011403E+03</pdfrwt>
<pdfrwt beam="2">  1       21 0.12249004E+00 0.45011403E+03</pdfrwt>
<totfact> 0.45210342E+04</totfact>
</mgrwt>
</event>
<event>
 7    0  0.4784406E-002  0.4580695E+03  0.7546771E-02  0.1025343E+00
         21   -1    0    0  502  501  0.00000000000E+00  0.00000000000E+00  0.11687759405E+04  0.11687759405E+04  0.00000000000E+00 0.  1.
         21   -1    0    0  501  502 -0.00000000000E+00 -0.00000000000E+00 -0.44881928835E+02  0.44881928835E+02  0.00000000000E+00 0.  1.
      99926    2    1    2    0    0  0.00000000000E+00 -0.35527136788E-14  0.11238940116E+04  0.12136578693E+04  0.45806950819E+03 0.  0.
      99925    2    3    3    0    0  0.74071582550E+02  0.30958343936E+02  0.92711936831E+03  0.96705538198E+03  0.26306039291E+03 0.  0.
         25    1    3    3    0    0 -0.74071582550E+02 -0.30958343936E+02  0.19677464333E+03  0.24660248733E+03  0.12509000000E+03 0.  0.
         25    1    4    4    0    0  0.42501923368E+02  0.72227884808E+01  0.60403764769E+03  0.61835877134E+03  0.12509000000E+03 0.  0.
         25    1    4    4    0    0  0.31569659182E+02  0.23735555455E+02  0.32308172063E+03  0.34869661065E+03  0.12509000000E+03 0.  0.
<mgrwt>
<rscale>  2 0.45806951E+03</rscale>
<asrwt>0</asrwt>
<pdfrwt beam="1">  1       21 0.17187880E+00 0.45806951E+03</pdfrwt>
<pdfrwt beam="2">  1       21 0.66002844E-02 0.45806951E+03</pdfrwt>
<totfact> 0.30978748E+04</totfact>
</mgrwt>
</event>
<event>
 7    0  0.4784406E-002  0.4431589E+03  0.7546771E-02  0.1029782E+00
         21   -1    0    0  502  501  0.00000000000E+00  0.00000000000E+00  0.20145684119E+03  0.20145684119E+03  0.00000000000E+00 0.  1.
         21   -1    0    0  501  502 -0.00000000000E+00 -0.00000000000E+00 -0.24371203336E+03  0.24371203336E+03  0.00000000000E+00 0.  1.
      99926    2    1    2    0    0  0.00000000000E+00  0.00000000000E+00 -0.42255192163E+02  0.44516887455E+03  0.44315891687E+03 0.  0.
      99925    2    3    3    0    0 -0.80066509866E+02 -0.56761247320E+02 -0.16624275414E+00  0.28069555464E+03  0.26297810091E+03 0.  0.
         25    1    4    4    0    0 -0.29955344148E+02 -0.25075133228E+02  0.39186338798E+02  0.13678143952E+03  0.12509000000E+03 0.  0.
         25    1    3    3    0    0  0.80066509866E+02  0.56761247320E+02 -0.42088949409E+02  0.16447331991E+03  0.12509000000E+03 0.  0.
         25    1    4    4    0    0 -0.50111165718E+02 -0.31686114092E+02 -0.39352581552E+02  0.14391411512E+03  0.12509000000E+03 0.  0.
<mgrwt>
<rscale>  2 0.44315892E+03</rscale>
<asrwt>0</asrwt>
<pdfrwt beam="1">  1       21 0.29626006E-01 0.44315892E+03</pdfrwt>
<pdfrwt beam="2">  1       21 0.35840005E-01 0.44315892E+03</pdfrwt>
<totfact> 0.76222697E+04</totfact>
</mgrwt>
</event>
<event>
 7    0  0.4784406E-002  0.4577629E+03  0.7546771E-02  0.1025432E+00
         21   -1    0    0  502  501  0.00000000000E+00  0.00000000000E+00  0.11252561955E+04  0.11252561955E+04  0.00000000000E+00 0.  1.
         21   -1    0    0  501  502 -0.00000000000E+00 -0.00000000000E+00 -0.46555367279E+02  0.46555367279E+02  0.00000000000E+00 0.  1.
      99926    2    1    2    0    0  0.88817841970E-15  0.00000000000E+00  0.10787008282E+04  0.11718115627E+04  0.45776288824E+03 0.  0.
      99925    2    3    3    0    0  0.52083601607E+01  0.34711698129E+02  0.95941842396E+03  0.99543744598E+03  0.26302085020E+03 0.  0.
         25    1    3    3    0    0 -0.52083601607E+01 -0.34711698129E+02  0.11928240422E+03  0.17637411675E+03  0.12509000000E+03 0.  0.
         25    1    4    4    0    0  0.65723131648E+01  0.28712482258E+02  0.63090445703E+03  0.64385987912E+03  0.12509000000E+03 0.  0.
         25    1    4    4    0    0 -0.13639530040E+01  0.59992158706E+01  0.32851396693E+03  0.35157756687E+03  0.12509000000E+03 0.  0.
<mgrwt>
<rscale>  2 0.45776289E+03</rscale>
<asrwt>0</asrwt>
<pdfrwt beam="1">  1       21 0.16547883E+00 0.45776289E+03</pdfrwt>
<pdfrwt beam="2">  1       21 0.68463783E-02 0.45776289E+03</pdfrwt>
<totfact> 0.32360119E+04</totfact>
</mgrwt>
</event>
<event>
 7    0  0.4784406E-002  0.4666899E+03  0.7546771E-02  0.1022859E+00
         21   -1    0    0  502  501  0.00000000000E+00  0.00000000000E+00  0.36520211949E+02  0.36520211949E+02  0.00000000000E+00 0.  1.
         21   -1    0    0  501  502 -0.00000000000E+00 -0.00000000000E+00 -0.14909512341E+04  0.14909512341E+04  0.00000000000E+00 0.  1.
      99926    2    1    2    0    0 -0.17763568394E-14 -0.14210854715E-13 -0.14544310222E+04  0.15274714461E+04  0.46668985451E+03 0.  0.
      99925    2    3    3    0    0 -0.15526949488E+02 -0.79231043676E+02 -0.12132231137E+04  0.12440152632E+04  0.26295438162E+03 0.  0.
         25    1    4    4    0    0  0.71732572597E+01 -0.98630855079E-01 -0.56117118919E+03  0.57498876252E+03  0.12509000000E+03 0.  0.
         25    1    4    4    0    0 -0.22700206747E+02 -0.79132412821E+02 -0.65205192456E+03  0.66902650065E+03  0.12509000000E+03 0.  0.
         25    1    3    3    0    0  0.15526949488E+02  0.79231043676E+02 -0.24120790844E+03  0.28345618292E+03  0.12509000000E+03 0.  0.
<mgrwt>
<rscale>  2 0.46668985E+03</rscale>
<asrwt>0</asrwt>
<pdfrwt beam="1">  1       21 0.53706197E-02 0.46668985E+03</pdfrwt>
<pdfrwt beam="2">  1       21 0.21925752E+00 0.46668985E+03</pdfrwt>
<totfact> 0.21129367E+04</totfact>
</mgrwt>
</event>
<event>
 7    0  0.4784406E-002  0.4405841E+03  0.7546771E-02  0.1030568E+00
         21   -1    0    0  502  501  0.00000000000E+00  0.00000000000E+00  0.91171790734E+02  0.91171790734E+02  0.00000000000E+00 0. -1.
         21   -1    0    0  501  502 -0.00000000000E+00 -0.00000000000E+00 -0.53227636710E+03  0.53227636710E+03  0.00000000000E+00 0. -1.
      99926    2    1    2    0    0  0.14210854715E-13  0.71054273576E-14 -0.44110457637E+03  0.62344815784E+03  0.44058411026E+03 0.  0.
      99925    2    3    3    0    0  0.86908324979E+02  0.44196248589E+02 -0.26628048788E+03  0.38740296014E+03  0.26394959738E+03 0.  0.
         25    1    4    4    0    0  0.28980685989E+02 -0.71038861172E+01 -0.85881070876E+02  0.15463961909E+03  0.12509000000E+03 0.  0.
         25    1    4    4    0    0  0.57927638990E+02  0.51300134707E+02 -0.18039941700E+03  0.23276334105E+03  0.12509000000E+03 0.  0.
         25    1    3    3    0    0 -0.86908324979E+02 -0.44196248589E+02 -0.17482408849E+03  0.23604519770E+03  0.12509000000E+03 0.  0.
<mgrwt>
<rscale>  2 0.44058411E+03</rscale>
<asrwt>0</asrwt>
<pdfrwt beam="1">  1       21 0.13407616E-01 0.44058411E+03</pdfrwt>
<pdfrwt beam="2">  1       21 0.78275936E-01 0.44058411E+03</pdfrwt>
<totfact> 0.64265485E+04</totfact>
</mgrwt>
</event>
<event>
 7    0  0.4784406E-002  0.4571232E+03  0.7546771E-02  0.1025619E+00
         21   -1    0    0  502  501  0.00000000000E+00  0.00000000000E+00  0.13583887968E+03  0.13583887968E+03  0.00000000000E+00 0. -1.
         21   -1    0    0  501  502 -0.00000000000E+00 -0.00000000000E+00 -0.38457631863E+03  0.38457631863E+03  0.00000000000E+00 0. -1.
      99926    2    1    2    0    0  0.71054273576E-14  0.14210854715E-13 -0.24873743894E+03  0.52041519831E+03  0.45712324936E+03 0.  0.
      99925    2    3    3    0    0  0.61247762159E+02  0.81350073985E+02 -0.21759874624E+03  0.35614027877E+03  0.26290218883E+03 0.  0.
         25    1    4    4    0    0  0.71679143999E+02  0.42778075586E+02 -0.12337095862E+03  0.19451417678E+03  0.12509000000E+03 0.  0.
         25    1    4    4    0    0 -0.10431381840E+02  0.38571998399E+02 -0.94227787613E+02  0.16162610199E+03  0.12509000000E+03 0.  0.
         25    1    3    3    0    0 -0.61247762159E+02 -0.81350073985E+02 -0.31138692708E+02  0.16427491954E+03  0.12509000000E+03 0.  0.
<mgrwt>
<rscale>  2 0.45712325E+03</rscale>
<asrwt>0</asrwt>
<pdfrwt beam="1">  1       21 0.19976306E-01 0.45712325E+03</pdfrwt>
<pdfrwt beam="2">  1       21 0.56555339E-01 0.45712325E+03</pdfrwt>
<totfact> 0.62794475E+04</totfact>
</mgrwt>
</event>
<event>
 7    0  0.4784406E-002  0.4353144E+03  0.7546771E-02  0.1032194E+00
         21   -1    0    0  502  501  0.00000000000E+00  0.00000000000E+00  0.86026850763E+03  0.86026850763E+03  0.00000000000E+00 0.  1.
         21   -1    0    0  501  502 -0.00000000000E+00 -0.00000000000E+00 -0.55069623489E+02  0.55069623489E+02  0.00000000000E+00 0.  1.
      99926    2    1    2    0    0  0.00000000000E+00  0.66613381478E-14  0.80519888414E+03  0.91533813112E+03  0.43531442804E+03 0.  0.
      99925    2    3    3    0    0  0.47267037712E+02 -0.35413736060E+01  0.34739009483E+03  0.43838623642E+03  0.26316515750E+03 0.  0.
         25    1    4    4    0    0  0.27402769116E+02  0.38829300589E+02  0.17710687289E+03  0.22197517624E+03  0.12509000000E+03 0.  0.
         25    1    4    4    0    0  0.19864268596E+02 -0.42370674195E+02  0.17028322194E+03  0.21641106019E+03  0.12509000000E+03 0.  0.
         25    1    3    3    0    0 -0.47267037712E+02  0.35413736060E+01  0.45780878932E+03  0.47695189470E+03  0.12509000000E+03 0.  0.
<mgrwt>
<rscale>  2 0.43531443E+03</rscale>
<asrwt>0</asrwt>
<pdfrwt beam="1">  1       21 0.12651007E+00 0.43531443E+03</pdfrwt>
<pdfrwt beam="2">  1       21 0.80984746E-02 0.43531443E+03</pdfrwt>
<totfact> 0.49817726E+04</totfact>
</mgrwt>
</event>
<event>
 7    0  0.4784406E-002  0.4538920E+03  0.7546771E-02  0.1026568E+00
         21   -1    0    0  502  501  0.00000000000E+00  0.00000000000E+00  0.48751608609E+02  0.48751608609E+02  0.00000000000E+00 0. -1.
         21   -1    0    0  501  502 -0.00000000000E+00 -0.00000000000E+00 -0.10564672033E+04  0.10564672033E+04  0.00000000000E+00 0. -1.
      99926    2    1    2    0    0  0.00000000000E+00  0.00000000000E+00 -0.10077155947E+04  0.11052188119E+04  0.45389195016E+03 0.  0.
      99925    2    3    3    0    0 -0.29274874223E+01  0.68892491717E+02 -0.85014816116E+03  0.89254594151E+03  0.26292891849E+03 0.  0.
         25    1    4    4    0    0 -0.33019064986E+01  0.85545626222E+01 -0.50867840261E+03  0.52391345517E+03  0.12509000000E+03 0.  0.
         25    1    4    4    0    0  0.37441907626E+00  0.60337929095E+02 -0.34146975856E+03  0.36863248634E+03  0.12509000000E+03 0.  0.
         25    1    3    3    0    0  0.29274874223E+01 -0.68892491717E+02 -0.15756743354E+03  0.21267287042E+03  0.12509000000E+03 0.  0.
<mgrwt>
<rscale>  2 0.45389195E+03</rscale>
<asrwt>0</asrwt>
<pdfrwt beam="1">  1       21 0.71693550E-02 0.45389195E+03</pdfrwt>
<pdfrwt beam="2">  1       21 0.15536281E+00 0.45389195E+03</pdfrwt>
<totfact> 0.35619786E+04</totfact>
</mgrwt>
</event>
<event>
 7    0  0.4784406E-002  0.4504434E+03  0.7546771E-02  0.1027590E+00
         21   -1    0    0  502  501  0.00000000000E+00  0.00000000000E+00  0.18965308198E+02  0.18965308198E+02  0.00000000000E+00 0.  1.
         21   -1    0    0  501  502 -0.00000000000E+00 -0.00000000000E+00 -0.26746107952E+04  0.26746107952E+04  0.00000000000E+00 0.  1.
      99926    2    1    2    0    0  0.00000000000E+00  0.00000000000E+00 -0.26556454870E+04  0.26935761034E+04  0.45044341726E+03 0.  0.
      99925    2    3    3    0    0 -0.58197204955E+02  0.42804809052E+02 -0.11911609064E+04  0.12219845292E+04  0.26298805736E+03 0.  0.
         25    1    3    3    0    0  0.58197204955E+02 -0.42804809052E+02 -0.14644845806E+04  0.14715915742E+04  0.12509000000E+03 0.  0.
         25    1    4    4    0    0 -0.59867702810E+02  0.47399112456E+02 -0.59022218453E+03  0.60814517421E+03  0.12509000000E+03 0.  0.
         25    1    4    4    0    0  0.16704978548E+01 -0.45943034048E+01 -0.60093872185E+03  0.61383935497E+03  0.12509000000E+03 0.  0.
<mgrwt>
<rscale>  2 0.45044342E+03</rscale>
<asrwt>0</asrwt>
<pdfrwt beam="1">  1       21 0.27890154E-02 0.45044342E+03</pdfrwt>
<pdfrwt beam="2">  1       21 0.39332519E+00 0.45044342E+03</pdfrwt>
<totfact> 0.55409474E+03</totfact>
</mgrwt>
</event>
<event>
 7    0  0.4784406E-002  0.4349166E+03  0.7546771E-02  0.1032318E+00
         21   -1    0    0  502  501  0.00000000000E+00  0.00000000000E+00  0.11369338044E+03  0.11369338044E+03  0.00000000000E+00 0. -1.
         21   -1    0    0  501  502 -0.00000000000E+00 -0.00000000000E+00 -0.41592665863E+03  0.41592665863E+03  0.00000000000E+00 0. -1.
      99926    2    1    2    0    0  0.00000000000E+00  0.00000000000E+00 -0.30223327819E+03  0.52962003907E+03  0.43491657975E+03 0.  0.
      99925    2    3    3    0    0  0.29296020135E+02  0.77274575028E+02 -0.14153434549E+03  0.30984453586E+03  0.26294875680E+03 0.  0.
         25    1    3    3    0    0 -0.29296020135E+02 -0.77274575028E+02 -0.16069893270E+03  0.21977550321E+03  0.12509000000E+03 0.  0.
         25    1    4    4    0    0  0.43882826148E+02  0.11220085828E+02 -0.76568341979E+02  0.15349857279E+03  0.12509000000E+03 0.  0.
         25    1    4    4    0    0 -0.14586806013E+02  0.66054489200E+02 -0.64966003512E+02  0.15634596306E+03  0.12509000000E+03 0.  0.
<mgrwt>
<rscale>  2 0.43491658E+03</rscale>
<asrwt>0</asrwt>
<pdfrwt beam="1">  1       21 0.16719615E-01 0.43491658E+03</pdfrwt>
<pdfrwt beam="2">  1       21 0.61165684E-01 0.43491658E+03</pdfrwt>
<totfact> 0.74370322E+04</totfact>
</mgrwt>
</event>
<event>
 7    0  0.4784406E-002  0.4464323E+03  0.7546771E-02  0.1028791E+00
         21   -1    0    0  502  501  0.00000000000E+00  0.00000000000E+00  0.17721413930E+03  0.17721413930E+03  0.00000000000E+00 0.  1.
         21   -1    0    0  501  502 -0.00000000000E+00 -0.00000000000E+00 -0.28115954225E+03  0.28115954225E+03  0.00000000000E+00 0.  1.
      99926    2    1    2    0    0 -0.14210854715E-13  0.71054273576E-14 -0.10394540294E+03  0.45837368155E+03  0.44643228506E+03 0.  0.
      99925    2    3    3    0    0  0.92185502032E+02 -0.44767363775E+02 -0.42968154790E+02  0.28555002421E+03  0.26304043483E+03 0.  0.
         25    1    4    4    0    0  0.80107218142E+02 -0.12510038909E+02 -0.45250208736E+02  0.15578432836E+03  0.12509000000E+03 0.  0.
         25    1    4    4    0    0  0.12078283889E+02 -0.32257324867E+02  0.22820539459E+01  0.12976569585E+03  0.12509000000E+03 0.  0.
         25    1    3    3    0    0 -0.92185502032E+02  0.44767363775E+02 -0.60977248154E+02  0.17282365734E+03  0.12509000000E+03 0.  0.
<mgrwt>
<rscale>  2 0.44643229E+03</rscale>
<asrwt>0</asrwt>
<pdfrwt beam="1">  1       21 0.26060903E-01 0.44643229E+03</pdfrwt>
<pdfrwt beam="2">  1       21 0.41346991E-01 0.44643229E+03</pdfrwt>
<totfact> 0.73157221E+04</totfact>
</mgrwt>
</event>
<event>
 7    0  0.4784406E-002  0.4375763E+03  0.7546771E-02  0.1031493E+00
         21   -1    0    0  502  501  0.00000000000E+00  0.00000000000E+00  0.11109754170E+03  0.11109754170E+03  0.00000000000E+00 0.  1.
         21   -1    0    0  501  502 -0.00000000000E+00 -0.00000000000E+00 -0.43086681360E+03  0.43086681360E+03  0.00000000000E+00 0.  1.
      99926    2    1    2    0    0  0.00000000000E+00  0.00000000000E+00 -0.31976927190E+03  0.54196435530E+03  0.43757625069E+03 0.  0.
      99925    2    3    3    0    0 -0.37513114611E+02  0.60622415355E+02 -0.12504362361E+03  0.29979107599E+03  0.26297617844E+03 0.  0.
         25    1    3    3    0    0  0.37513114611E+02 -0.60622415355E+02 -0.19472564829E+03  0.24217327931E+03  0.12509000000E+03 0.  0.
         25    1    4    4    0    0 -0.26976941152E+02 -0.67880946168E+01 -0.76594515311E+02  0.14929186668E+03  0.12509000000E+03 0.  0.
         25    1    4    4    0    0 -0.10536173459E+02  0.67410509972E+02 -0.48449108298E+02  0.15049920930E+03  0.12509000000E+03 0.  0.
<mgrwt>
<rscale>  2 0.43757625E+03</rscale>
<asrwt>0</asrwt>
<pdfrwt beam="1">  1       21 0.16337874E-01 0.43757625E+03</pdfrwt>
<pdfrwt beam="2">  1       21 0.63362767E-01 0.43757625E+03</pdfrwt>
<totfact> 0.71800142E+04</totfact>
</mgrwt>
</event>
<event>
 7    0  0.4784406E-002  0.4565880E+03  0.7546771E-02  0.1025775E+00
         21   -1    0    0  502  501  0.00000000000E+00  0.00000000000E+00  0.21680521388E+04  0.21680521388E+04  0.00000000000E+00 0. -1.
         21   -1    0    0  501  502 -0.00000000000E+00 -0.00000000000E+00 -0.24039158265E+02  0.24039158265E+02  0.00000000000E+00 0. -1.
      99926    2    1    2    0    0  0.00000000000E+00  0.00000000000E+00  0.21440129806E+04  0.21920912971E+04  0.45658799148E+03 0.  0.
      99925    2    3    3    0    0 -0.14728185427E+02 -0.17911013644E+02  0.80761200438E+03  0.84964844874E+03  0.26292130566E+03 0.  0.
         25    1    4    4    0    0  0.10519367537E+02  0.26331199535E+02  0.36446585415E+03  0.38637657292E+03  0.12509000000E+03 0.  0.
         25    1    3    3    0    0  0.14728185427E+02  0.17911013644E+02  0.13364009762E+04  0.13424428484E+04  0.12509000000E+03 0.  0.
         25    1    4    4    0    0 -0.25247552964E+02 -0.44242213179E+02  0.44314615023E+03  0.46327187581E+03  0.12509000000E+03 0.  0.
<mgrwt>
<rscale>  2 0.45658799E+03</rscale>
<asrwt>0</asrwt>
<pdfrwt beam="1">  1       21 0.31883106E+00 0.45658799E+03</pdfrwt>
<pdfrwt beam="2">  1       21 0.35351718E-02 0.45658799E+03</pdfrwt>
<totfact> 0.10687244E+04</totfact>
</mgrwt>
</event>
<event>
 7    0  0.4784406E-002  0.4541058E+03  0.7546771E-02  0.1026505E+00
         21   -1    0    0  502  501  0.00000000000E+00  0.00000000000E+00  0.31374259204E+03  0.31374259204E+03  0.00000000000E+00 0.  1.
         21   -1    0    0  501  502 -0.00000000000E+00 -0.00000000000E+00 -0.16431626412E+03  0.16431626412E+03  0.00000000000E+00 0.  1.
      99926    2    1    2    0    0  0.00000000000E+00  0.00000000000E+00  0.14942632792E+03  0.47805885617E+03  0.45410576134E+03 0.  0.
      99925    2    3    3    0    0 -0.45681227235E+02 -0.32504198050E+02 -0.83624824533E+01  0.26904183726E+03  0.26300243663E+03 0.  0.
         25    1    4    4    0    0 -0.39751006435E+02 -0.43288319065E+02 -0.30188753644E+02  0.14146692202E+03  0.12509000000E+03 0.  0.
         25    1    3    3    0    0  0.45681227235E+02  0.32504198050E+02  0.15778881037E+03  0.20901701890E+03  0.12509000000E+03 0.  0.
         25    1    4    4    0    0 -0.59302207997E+01  0.10784121015E+02  0.21826271190E+02  0.12757491524E+03  0.12509000000E+03 0.  0.
<mgrwt>
<rscale>  2 0.45410576E+03</rscale>
<asrwt>0</asrwt>
<pdfrwt beam="1">  1       21 0.46138616E-01 0.45410576E+03</pdfrwt>
<pdfrwt beam="2">  1       21 0.24164156E-01 0.45410576E+03</pdfrwt>
<totfact> 0.67318201E+04</totfact>
</mgrwt>
</event>
<event>
 7    0  0.4784406E-002  0.4444736E+03  0.7546771E-02  0.1029383E+00
         21   -1    0    0  502  501  0.00000000000E+00  0.00000000000E+00  0.50039600881E+03  0.50039600881E+03  0.00000000000E+00 0.  1.
         21   -1    0    0  501  502 -0.00000000000E+00 -0.00000000000E+00 -0.98700214475E+02  0.98700214475E+02  0.00000000000E+00 0.  1.
      99926    2    1    2    0    0  0.00000000000E+00  0.35527136788E-14  0.40169579434E+03  0.59909622329E+03  0.44447359153E+03 0.  0.
      99925    2    3    3    0    0  0.96751968904E+02 -0.26110816038E+02  0.28723512331E+03  0.40214071686E+03  0.26300270320E+03 0.  0.
         25    1    4    4    0    0  0.90357551441E+02 -0.23317553680E+02  0.16466310189E+03  0.22686921483E+03  0.12509000000E+03 0.  0.
         25    1    4    4    0    0  0.63944174630E+01 -0.27932623583E+01  0.12257202142E+03  0.17527150203E+03  0.12509000000E+03 0.  0.
         25    1    3    3    0    0 -0.96751968904E+02  0.26110816038E+02  0.11446067103E+03  0.19695550643E+03  0.12509000000E+03 0.  0.
<mgrwt>
<rscale>  2 0.44447359E+03</rscale>
<asrwt>0</asrwt>
<pdfrwt beam="1">  1       21 0.73587647E-01 0.44447359E+03</pdfrwt>
<pdfrwt beam="2">  1       21 0.14514738E-01 0.44447359E+03</pdfrwt>
<totfact> 0.63883635E+04</totfact>
</mgrwt>
</event>
<event>
 7    0  0.4784406E-002  0.4645958E+03  0.7546771E-02  0.1023457E+00
         21   -1    0    0  502  501  0.00000000000E+00  0.00000000000E+00  0.51980611354E+02  0.51980611354E+02  0.00000000000E+00 0. -1.
         21   -1    0    0  501  502 -0.00000000000E+00 -0.00000000000E+00 -0.10381240259E+04  0.10381240259E+04  0.00000000000E+00 0. -1.
      99926    2    1    2    0    0  0.00000000000E+00  0.00000000000E+00 -0.98614341457E+03  0.10901046373E+04  0.46459583093E+03 0.  0.
      99925    2    3    3    0    0 -0.80185439572E+02 -0.91886705079E+02 -0.62283717370E+03  0.68697710902E+03  0.26294206981E+03 0.  0.
         25    1    3    3    0    0  0.80185439572E+02  0.91886705079E+02 -0.36330624087E+03  0.40312752827E+03  0.12509000000E+03 0.  0.
         25    1    4    4    0    0 -0.25263657709E+02 -0.47183198658E+02 -0.21383761447E+03  0.25345323060E+03  0.12509000000E+03 0.  0.
         25    1    4    4    0    0 -0.54921781864E+02 -0.44703506421E+02 -0.40899955923E+03  0.43352387842E+03  0.12509000000E+03 0.  0.
<mgrwt>
<rscale>  2 0.46459583E+03</rscale>
<asrwt>0</asrwt>
<pdfrwt beam="1">  1       21 0.76442075E-02 0.46459583E+03</pdfrwt>
<pdfrwt beam="2">  1       21 0.15266530E+00 0.46459583E+03</pdfrwt>
<totfact> 0.33277231E+04</totfact>
</mgrwt>
</event>
<event>
 7    0  0.4784406E-002  0.4766602E+03  0.7546771E-02  0.1020057E+00
         21   -1    0    0  502  501  0.00000000000E+00  0.00000000000E+00  0.36565556353E+03  0.36565556353E+03  0.00000000000E+00 0.  1.
         21   -1    0    0  501  502 -0.00000000000E+00 -0.00000000000E+00 -0.15534084028E+03  0.15534084028E+03  0.00000000000E+00 0.  1.
      99926    2    1    2    0    0  0.00000000000E+00  0.00000000000E+00  0.21031472325E+03  0.52099640381E+03  0.47666022486E+03 0.  0.
      99925    2    3    3    0    0  0.72944292120E+02  0.11054039111E+03  0.13248222980E+03  0.32289175228E+03  0.26299713811E+03 0.  0.
         25    1    4    4    0    0  0.74757327560E+02  0.64876717400E+02  0.54528295104E+02  0.16857784419E+03  0.12509000000E+03 0.  0.
         25    1    3    3    0    0 -0.72944292120E+02 -0.11054039111E+03  0.77832493448E+02  0.19810465153E+03  0.12509000000E+03 0.  0.
         25    1    4    4    0    0 -0.18130354406E+01  0.45663673715E+02  0.77953934700E+02  0.15431390809E+03  0.12509000000E+03 0.  0.
<mgrwt>
<rscale>  2 0.47666022E+03</rscale>
<asrwt>0</asrwt>
<pdfrwt beam="1">  1       21 0.53772877E-01 0.47666022E+03</pdfrwt>
<pdfrwt beam="2">  1       21 0.22844241E-01 0.47666022E+03</pdfrwt>
<totfact> 0.53934220E+04</totfact>
</mgrwt>
</event>
<event>
 7    0  0.4784406E-002  0.4453799E+03  0.7546771E-02  0.1029109E+00
         21   -1    0    0  502  501  0.00000000000E+00  0.00000000000E+00  0.17768559553E+03  0.17768559553E+03  0.00000000000E+00 0. -1.
         21   -1    0    0  501  502 -0.00000000000E+00 -0.00000000000E+00 -0.27909305707E+03  0.27909305707E+03  0.00000000000E+00 0. -1.
      99926    2    1    2    0    0  0.00000000000E+00  0.00000000000E+00 -0.10140746154E+03  0.45677865261E+03  0.44537990999E+03 0.  0.
      99925    2    3    3    0    0  0.61111570291E+02  0.75633549853E+02 -0.26640436239E+02  0.28158540485E+03  0.26291741954E+03 0.  0.
         25    1    4    4    0    0  0.40636264008E+02  0.14328903220E+01  0.38032336261E+01  0.13158773428E+03  0.12509000000E+03 0.  0.
         25    1    3    3    0    0 -0.61111570291E+02 -0.75633549853E+02 -0.74767025298E+02  0.17519324775E+03  0.12509000000E+03 0.  0.
         25    1    4    4    0    0  0.20475306283E+02  0.74200659531E+02 -0.30443669865E+02  0.14999767057E+03  0.12509000000E+03 0.  0.
<mgrwt>
<rscale>  2 0.44537991E+03</rscale>
<asrwt>0</asrwt>
<pdfrwt beam="1">  1       21 0.26130235E-01 0.44537991E+03</pdfrwt>
<pdfrwt beam="2">  1       21 0.41043096E-01 0.44537991E+03</pdfrwt>
<totfact> 0.73913099E+04</totfact>
</mgrwt>
</event>
<event>
 7    0  0.4784406E-002  0.4439503E+03  0.7546771E-02  0.1029542E+00
         21   -1    0    0  502  501  0.00000000000E+00  0.00000000000E+00  0.29336428144E+03  0.29336428144E+03  0.00000000000E+00 0. -1.
         21   -1    0    0  501  502 -0.00000000000E+00 -0.00000000000E+00 -0.16795828249E+03  0.16795828249E+03  0.00000000000E+00 0. -1.
      99926    2    1    2    0    0  0.00000000000E+00  0.35527136788E-14  0.12540599895E+03  0.46132256393E+03  0.44395027134E+03 0.  0.
      99925    2    3    3    0    0  0.53866291331E+02 -0.17822078390E+02 -0.86651157251E+01  0.26938044842E+03  0.26319486685E+03 0.  0.
         25    1    4    4    0    0  0.45969716801E+02  0.18068210931E+02  0.19785022397E+02  0.13593612588E+03  0.12509000000E+03 0.  0.
         25    1    4    4    0    0  0.78965745295E+01 -0.35890289321E+02 -0.28450138122E+02  0.13344432253E+03  0.12509000000E+03 0.  0.
         25    1    3    3    0    0 -0.53866291331E+02  0.17822078390E+02  0.13407111467E+03  0.19194211552E+03  0.12509000000E+03 0.  0.
<mgrwt>
<rscale>  2 0.44395027E+03</rscale>
<asrwt>0</asrwt>
<pdfrwt beam="1">  1       21 0.43141806E-01 0.44395027E+03</pdfrwt>
<pdfrwt beam="2">  1       21 0.24699747E-01 0.44395027E+03</pdfrwt>
<totfact> 0.74397275E+04</totfact>
</mgrwt>
</event>
<event>
 7    0  0.4784406E-002  0.4578475E+03  0.7546771E-02  0.1025407E+00
         21   -1    0    0  502  501  0.00000000000E+00  0.00000000000E+00  0.12569185677E+04  0.12569185677E+04  0.00000000000E+00 0.  1.
         21   -1    0    0  501  502 -0.00000000000E+00 -0.00000000000E+00 -0.41694093822E+02  0.41694093822E+02  0.00000000000E+00 0.  1.
      99926    2    1    2    0    0  0.71054273576E-14  0.35527136788E-14  0.12152244738E+04  0.12986126615E+04  0.45784748853E+03 0.  0.
      99925    2    3    3    0    0  0.62931482172E+02  0.29223972584E+02  0.10255471613E+04  0.10610428759E+04  0.26315507307E+03 0.  0.
         25    1    3    3    0    0 -0.62931482172E+02 -0.29223972584E+02  0.18967731259E+03  0.23756978561E+03  0.12509000000E+03 0.  0.
         25    1    4    4    0    0  0.19641386469E+02  0.37993603109E+02  0.38996352029E+03  0.41176249610E+03  0.12509000000E+03 0.  0.
         25    1    4    4    0    0  0.43290095703E+02 -0.87696305251E+01  0.63558364096E+03  0.64928037978E+03  0.12509000000E+03 0.  0.
<mgrwt>
<rscale>  2 0.45784749E+03</rscale>
<asrwt>0</asrwt>
<pdfrwt beam="1">  1       21 0.18484094E+00 0.45784749E+03</pdfrwt>
<pdfrwt beam="2">  1       21 0.61314852E-02 0.45784749E+03</pdfrwt>
<totfact> 0.28518217E+04</totfact>
</mgrwt>
</event>
<event>
 7    0  0.4784406E-002  0.4709388E+03  0.7546771E-02  0.1021656E+00
         21   -1    0    0  502  501  0.00000000000E+00  0.00000000000E+00  0.36652554651E+03  0.36652554651E+03  0.00000000000E+00 0. -1.
         21   -1    0    0  501  502 -0.00000000000E+00 -0.00000000000E+00 -0.15127411538E+03  0.15127411538E+03  0.00000000000E+00 0. -1.
      99926    2    1    2    0    0 -0.71054273576E-14  0.00000000000E+00  0.21525143113E+03  0.51779966189E+03  0.47093875531E+03 0.  0.
      99925    2    3    3    0    0  0.41961747359E+02  0.41859786325E+02  0.25785826265E+03  0.37296913975E+03  0.26287271756E+03 0.  0.
         25    1    4    4    0    0 -0.15089469967E+02  0.38525131581E+02  0.13318112314E+03  0.18734085921E+03  0.12509000000E+03 0.  0.
         25    1    3    3    0    0 -0.41961747359E+02 -0.41859786325E+02 -0.42606831515E+02  0.14483052214E+03  0.12509000000E+03 0.  0.
         25    1    4    4    0    0  0.57051217327E+02  0.33346547441E+01  0.12467713951E+03  0.18562828054E+03  0.12509000000E+03 0.  0.
<mgrwt>
<rscale>  2 0.47093876E+03</rscale>
<asrwt>0</asrwt>
<pdfrwt beam="1">  1       21 0.53900815E-01 0.47093876E+03</pdfrwt>
<pdfrwt beam="2">  1       21 0.22246194E-01 0.47093876E+03</pdfrwt>
<totfact> 0.56539585E+04</totfact>
</mgrwt>
</event>
<event>
 7    0  0.4784406E-002  0.4512426E+03  0.7546771E-02  0.1027352E+00
         21   -1    0    0  502  501  0.00000000000E+00  0.00000000000E+00  0.25325559560E+03  0.25325559560E+03  0.00000000000E+00 0. -1.
         21   -1    0    0  501  502 -0.00000000000E+00 -0.00000000000E+00 -0.20100233170E+03  0.20100233170E+03  0.00000000000E+00 0. -1.
      99926    2    1    2    0    0 -0.14210854715E-13  0.00000000000E+00  0.52253263896E+02  0.45425792730E+03  0.45124257437E+03 0.  0.
      99925    2    3    3    0    0 -0.94273643741E+02 -0.53490321493E+02  0.16672053476E+02  0.28495859171E+03  0.26301085001E+03 0.  0.
         25    1    3    3    0    0  0.94273643741E+02  0.53490321493E+02  0.35581210420E+02  0.16929933559E+03  0.12509000000E+03 0.  0.
         25    1    4    4    0    0 -0.77495317598E+02  0.60530184756E+00  0.94437060345E+01  0.14745366161E+03  0.12509000000E+03 0.  0.
         25    1    4    4    0    0 -0.16778326143E+02 -0.54095623340E+02  0.72283474411E+01  0.13750493009E+03  0.12509000000E+03 0.  0.
<mgrwt>
<rscale>  2 0.45124257E+03</rscale>
<asrwt>0</asrwt>
<pdfrwt beam="1">  1       21 0.37243470E-01 0.45124257E+03</pdfrwt>
<pdfrwt beam="2">  1       21 0.29559166E-01 0.45124257E+03</pdfrwt>
<totfact> 0.70695791E+04</totfact>
</mgrwt>
</event>
<event>
 7    0  0.4784406E-002  0.4534496E+03  0.7546771E-02  0.1026698E+00
         21   -1    0    0  502  501  0.00000000000E+00  0.00000000000E+00  0.73911811212E+02  0.73911811212E+02  0.00000000000E+00 0.  1.
         21   -1    0    0  501  502 -0.00000000000E+00 -0.00000000000E+00 -0.69547942737E+03  0.69547942737E+03  0.00000000000E+00 0.  1.
      99926    2    1    2    0    0  0.71054273576E-14 -0.14210854715E-13 -0.62156761616E+03  0.76939123858E+03  0.45344964059E+03 0.  0.
      99925    2    3    3    0    0  0.61335611071E+02  0.85194564091E+02 -0.45681482921E+03  0.53741891298E+03  0.26290517095E+03 0.  0.
         25    1    3    3    0    0 -0.61335611071E+02 -0.85194564091E+02 -0.16475278694E+03  0.23197232560E+03  0.12509000000E+03 0.  0.
         25    1    4    4    0    0 -0.32948366008E+00  0.17038149993E+02 -0.23368193678E+03  0.26560339379E+03  0.12509000000E+03 0.  0.
         25    1    4    4    0    0  0.61665094731E+02  0.68156414098E+02 -0.22313289243E+03  0.27181551919E+03  0.12509000000E+03 0.  0.
<mgrwt>
<rscale>  2 0.45344964E+03</rscale>
<asrwt>0</asrwt>
<pdfrwt beam="1">  1       21 0.10869385E-01 0.45344964E+03</pdfrwt>
<pdfrwt beam="2">  1       21 0.10227638E+00 0.45344964E+03</pdfrwt>
<totfact> 0.49885258E+04</totfact>
</mgrwt>
</event>
<event>
 7    0  0.4784406E-002  0.4096868E+03  0.7546771E-02  0.1040476E+00
         21   -1    0    0  502  501  0.00000000000E+00  0.00000000000E+00  0.82694705810E+03  0.82694705810E+03  0.00000000000E+00 0. -1.
         21   -1    0    0  501  502 -0.00000000000E+00 -0.00000000000E+00 -0.50741855451E+02  0.50741855451E+02  0.00000000000E+00 0. -1.
      99926    2    1    2    0    0  0.00000000000E+00 -0.88817841970E-15  0.77620520265E+03  0.87768891355E+03  0.40968684669E+03 0.  0.
      99925    2    3    3    0    0 -0.41580300494E+02 -0.50183155269E+01  0.41466391361E+03  0.49283346451E+03  0.26302957554E+03 0.  0.
         25    1    4    4    0    0  0.94431198295E+01 -0.10524005933E+02  0.24886689754E+03  0.27889454639E+03  0.12509000000E+03 0.  0.
         25    1    4    4    0    0 -0.51023420323E+02  0.55056904060E+01  0.16579701607E+03  0.21393891812E+03  0.12509000000E+03 0.  0.
         25    1    3    3    0    0  0.41580300494E+02  0.50183155269E+01  0.36154128903E+03  0.38485544904E+03  0.12509000000E+03 0.  0.
<mgrwt>
<rscale>  2 0.40968685E+03</rscale>
<asrwt>0</asrwt>
<pdfrwt beam="1">  1       21 0.12160985E+00 0.40968685E+03</pdfrwt>
<pdfrwt beam="2">  1       21 0.74620381E-02 0.40968685E+03</pdfrwt>
<totfact> 0.64105743E+04</totfact>
</mgrwt>
</event>
<event>
 7    0  0.4784406E-002  0.4622391E+03  0.7546771E-02  0.1024134E+00
         21   -1    0    0  502  501  0.00000000000E+00  0.00000000000E+00  0.22959209283E+03  0.22959209283E+03  0.00000000000E+00 0.  1.
         21   -1    0    0  501  502 -0.00000000000E+00 -0.00000000000E+00 -0.23265716431E+03  0.23265716431E+03  0.00000000000E+00 0.  1.
      99926    2    1    2    0    0 -0.14210854715E-13 -0.71054273576E-14 -0.30650714856E+01  0.46224925714E+03  0.46223909512E+03 0.  0.
      99925    2    3    3    0    0  0.96760223581E+02  0.60227007778E+02 -0.38483871554E+02  0.28935671007E+03  0.26316622876E+03 0.  0.
         25    1    4    4    0    0  0.57745880589E+02  0.71439845975E+02 -0.17456926220E+02  0.15617455200E+03  0.12509000000E+03 0.  0.
         25    1    4    4    0    0  0.39014342992E+02 -0.11212838197E+02 -0.21026945334E+02  0.13318215808E+03  0.12509000000E+03 0.  0.
         25    1    3    3    0    0 -0.96760223581E+02 -0.60227007778E+02  0.35418800068E+02  0.17289254707E+03  0.12509000000E+03 0.  0.
<mgrwt>
<rscale>  2 0.46223910E+03</rscale>
<asrwt>0</asrwt>
<pdfrwt beam="1">  1       21 0.33763543E-01 0.46223910E+03</pdfrwt>
<pdfrwt beam="2">  1       21 0.34214289E-01 0.46223910E+03</pdfrwt>
<totfact> 0.64227210E+04</totfact>
</mgrwt>
</event>
<event>
 7    0  0.4784406E-002  0.4547556E+03  0.7546771E-02  0.1026313E+00
         21   -1    0    0  502  501  0.00000000000E+00  0.00000000000E+00  0.62281388140E+02  0.62281388140E+02  0.00000000000E+00 0. -1.
         21   -1    0    0  501  502 -0.00000000000E+00 -0.00000000000E+00 -0.83011405110E+03  0.83011405110E+03  0.00000000000E+00 0. -1.
      99926    2    1    2    0    0  0.14210854715E-13  0.00000000000E+00 -0.76783266296E+03  0.89239543924E+03  0.45475556255E+03 0.  0.
      99925    2    3    3    0    0  0.86863878533E+02 -0.57588107522E+02 -0.39809638561E+03  0.48839773329E+03  0.26303971207E+03 0.  0.
         25    1    4    4    0    0  0.40004575583E+02 -0.26156494652E+02 -0.12703949684E+03  0.18458350451E+03  0.12509000000E+03 0.  0.
         25    1    4    4    0    0  0.46859302950E+02 -0.31431612870E+02 -0.27105688877E+03  0.30381422878E+03  0.12509000000E+03 0.  0.
         25    1    3    3    0    0 -0.86863878533E+02  0.57588107522E+02 -0.36973627735E+03  0.40399770595E+03  0.12509000000E+03 0.  0.
<mgrwt>
<rscale>  2 0.45475556E+03</rscale>
<asrwt>0</asrwt>
<pdfrwt beam="1">  1       21 0.91590272E-02 0.45475556E+03</pdfrwt>
<pdfrwt beam="2">  1       21 0.12207560E+00 0.45475556E+03</pdfrwt>
<totfact> 0.43647594E+04</totfact>
</mgrwt>
</event>
<event>
 7    0  0.4784406E-002  0.4618412E+03  0.7546771E-02  0.1024249E+00
         21   -1    0    0  502  501  0.00000000000E+00  0.00000000000E+00  0.35827162811E+03  0.35827162811E+03  0.00000000000E+00 0.  1.
         21   -1    0    0  501  502 -0.00000000000E+00 -0.00000000000E+00 -0.14883767717E+03  0.14883767717E+03  0.00000000000E+00 0.  1.
      99926    2    1    2    0    0  0.00000000000E+00  0.00000000000E+00  0.20943395094E+03  0.50710930529E+03  0.46184117151E+03 0.  0.
      99925    2    3    3    0    0  0.22102622384E+02 -0.99594848239E+02  0.19925516110E+03  0.34537255753E+03  0.26300555993E+03 0.  0.
         25    1    3    3    0    0 -0.22102622384E+02  0.99594848239E+02  0.10178789835E+02  0.16173674776E+03  0.12509000000E+03 0.  0.
         25    1    4    4    0    0  0.89718814354E+00 -0.91494461738E+01  0.10231392149E+03  0.16186464698E+03  0.12509000000E+03 0.  0.
         25    1    4    4    0    0  0.21205434241E+02 -0.90445402065E+02  0.96941239618E+02  0.18350791055E+03  0.12509000000E+03 0.  0.
<mgrwt>
<rscale>  2 0.46184117E+03</rscale>
<asrwt>0</asrwt>
<pdfrwt beam="1">  1       21 0.52687004E-01 0.46184117E+03</pdfrwt>
<pdfrwt beam="2">  1       21 0.21887894E-01 0.46184117E+03</pdfrwt>
<totfact> 0.61373021E+04</totfact>
</mgrwt>
</event>
<event>
 7    0  0.4784406E-002  0.4542470E+03  0.7546771E-02  0.1026463E+00
         21   -1    0    0  502  501  0.00000000000E+00  0.00000000000E+00  0.19450722799E+03  0.19450722799E+03  0.00000000000E+00 0.  1.
         21   -1    0    0  501  502 -0.00000000000E+00 -0.00000000000E+00 -0.26520912516E+03  0.26520912516E+03  0.00000000000E+00 0.  1.
      99926    2    1    2    0    0  0.14210854715E-13  0.00000000000E+00 -0.70701897172E+02  0.45971635315E+03  0.45424703311E+03 0.  0.
      99925    2    3    3    0    0 -0.99252385943E+02  0.50048294923E+02 -0.62606131494E+02  0.29217854410E+03  0.26285529477E+03 0.  0.
         25    1    4    4    0    0 -0.52359499611E+02  0.60451648037E+02 -0.53716708577E+02  0.15788892244E+03  0.12509000000E+03 0.  0.
         25    1    4    4    0    0 -0.46892886333E+02 -0.10403353114E+02 -0.88894229165E+01  0.13428962166E+03  0.12509000000E+03 0.  0.
         25    1    3    3    0    0  0.99252385943E+02 -0.50048294923E+02 -0.80957656776E+01  0.16753780905E+03  0.12509000000E+03 0.  0.
<mgrwt>
<rscale>  2 0.45424703E+03</rscale>
<asrwt>0</asrwt>
<pdfrwt beam="1">  1       21 0.28604004E-01 0.45424703E+03</pdfrwt>
<pdfrwt beam="2">  1       21 0.39001342E-01 0.45424703E+03</pdfrwt>
<totfact> 0.68612293E+04</totfact>
</mgrwt>
</event>
<event>
 7    0  0.4784406E-002  0.4515861E+03  0.7546771E-02  0.1027250E+00
         21   -1    0    0  502  501  0.00000000000E+00  0.00000000000E+00  0.18411710138E+02  0.18411710138E+02  0.00000000000E+00 0.  1.
         21   -1    0    0  501  502 -0.00000000000E+00 -0.00000000000E+00 -0.27690263314E+04  0.27690263314E+04  0.00000000000E+00 0.  1.
      99926    2    1    2    0    0  0.00000000000E+00  0.00000000000E+00 -0.27506146213E+04  0.27874380415E+04  0.45158613875E+03 0.  0.
      99925    2    3    3    0    0 -0.76710558953E+02  0.28575228844E+02 -0.21890941323E+04  0.22063581665E+04  0.26302506575E+03 0.  0.
         25    1    3    3    0    0  0.76710558953E+02 -0.28575228844E+02 -0.56152048891E+03  0.58107987500E+03  0.12509000000E+03 0.  0.
         25    1    4    4    0    0 -0.55551360118E+02 -0.10170872652E+02 -0.89175210559E+03  0.90225203030E+03  0.12509000000E+03 0.  0.
         25    1    4    4    0    0 -0.21159198835E+02  0.38746101496E+02 -0.12973420268E+04  0.13041061362E+04  0.12509000000E+03 0.  0.
<mgrwt>
<rscale>  2 0.45158614E+03</rscale>
<asrwt>0</asrwt>
<pdfrwt beam="1">  1       21 0.27076013E-02 0.45158614E+03</pdfrwt>
<pdfrwt beam="2">  1       21 0.40721022E+00 0.45158614E+03</pdfrwt>
<totfact> 0.47400246E+03</totfact>
</mgrwt>
</event>
<event>
 7    0  0.4784406E-002  0.4611259E+03  0.7546771E-02  0.1024455E+00
         21   -1    0    0  502  501  0.00000000000E+00  0.00000000000E+00  0.58412779036E+03  0.58412779036E+03  0.00000000000E+00 0.  1.
         21   -1    0    0  501  502 -0.00000000000E+00 -0.00000000000E+00 -0.91006228352E+02  0.91006228352E+02  0.00000000000E+00 0.  1.
      99926    2    1    2    0    0  0.00000000000E+00  0.00000000000E+00  0.49312156201E+03  0.67513401872E+03  0.46112587035E+03 0.  0.
      99925    2    3    3    0    0 -0.79581959759E+02  0.87206825516E+02  0.28910805549E+03  0.40828698823E+03  0.26301421687E+03 0.  0.
         25    1    4    4    0    0 -0.15709875388E+02  0.54745626303E+02  0.97541631999E+02  0.16854008976E+03  0.12509000000E+03 0.  0.
         25    1    3    3    0    0  0.79581959759E+02 -0.87206825516E+02  0.20401350653E+03  0.26684703049E+03  0.12509000000E+03 0.  0.
         25    1    4    4    0    0 -0.63872084371E+02  0.32461199213E+02  0.19156642349E+03  0.23974689847E+03  0.12509000000E+03 0.  0.
<mgrwt>
<rscale>  2 0.46112587E+03</rscale>
<asrwt>0</asrwt>
<pdfrwt beam="1">  1       21 0.85901144E-01 0.46112587E+03</pdfrwt>
<pdfrwt beam="2">  1       21 0.13383269E-01 0.46112587E+03</pdfrwt>
<totfact> 0.51730891E+04</totfact>
</mgrwt>
</event>
<event>
 7    0  0.4784406E-002  0.4624185E+03  0.7546771E-02  0.1024082E+00
         21   -1    0    0  502  501  0.00000000000E+00  0.00000000000E+00  0.37222282867E+03  0.37222282867E+03  0.00000000000E+00 0. -1.
         21   -1    0    0  501  502 -0.00000000000E+00 -0.00000000000E+00 -0.14361750651E+03  0.14361750651E+03  0.00000000000E+00 0. -1.
      99926    2    1    2    0    0  0.14210854715E-13  0.35527136788E-14  0.22860532216E+03  0.51584033518E+03  0.46241848804E+03 0.  0.
      99925    2    3    3    0    0  0.11167530203E+03  0.15920390781E+02  0.97062204554E+02  0.30212105244E+03  0.26292817812E+03 0.  0.
         25    1    3    3    0    0 -0.11167530203E+03 -0.15920390781E+02  0.13154311760E+03  0.21371928274E+03  0.12509000000E+03 0.  0.
         25    1    4    4    0    0  0.89002667799E+02  0.18244127246E+02  0.26986122071E+02  0.15693973983E+03  0.12509000000E+03 0.  0.
         25    1    4    4    0    0  0.22672634227E+02 -0.23237364642E+01  0.70076082483E+02  0.14518131261E+03  0.12509000000E+03 0.  0.
<mgrwt>
<rscale>  2 0.46241849E+03</rscale>
<asrwt>0</asrwt>
<pdfrwt beam="1">  1       21 0.54738651E-01 0.46241849E+03</pdfrwt>
<pdfrwt beam="2">  1       21 0.21120222E-01 0.46241849E+03</pdfrwt>
<totfact> 0.60528806E+04</totfact>
</mgrwt>
</event>
<event>
 7    0  0.4784406E-002  0.4352020E+03  0.7546771E-02  0.1032229E+00
         21   -1    0    0  502  501  0.00000000000E+00  0.00000000000E+00  0.29988478014E+02  0.29988478014E+02  0.00000000000E+00 0.  1.
         21   -1    0    0  501  502 -0.00000000000E+00 -0.00000000000E+00 -0.15789461707E+04  0.15789461707E+04  0.00000000000E+00 0.  1.
      99926    2    1    2    0    0 -0.17763568394E-14 -0.14210854715E-13 -0.15489576927E+04  0.16089346487E+04  0.43520198770E+03 0.  0.
      99925    2    3    3    0    0 -0.11408810148E+02 -0.91525885664E+02 -0.10477936180E+04  0.10842251229E+04  0.26299335041E+03 0.  0.
         25    1    4    4    0    0 -0.42412445569E+02 -0.37556049607E+02 -0.46035535784E+03  0.48039966277E+03  0.12509000000E+03 0.  0.
         25    1    3    3    0    0  0.11408810148E+02  0.91525885664E+02 -0.50116407464E+03  0.52470952584E+03  0.12509000000E+03 0.  0.
         25    1    4    4    0    0  0.31003635421E+02 -0.53969836057E+02 -0.58743826020E+03  0.60382546010E+03  0.12509000000E+03 0.  0.
<mgrwt>
<rscale>  2 0.43520199E+03</rscale>
<asrwt>0</asrwt>
<pdfrwt beam="1">  1       21 0.44100689E-02 0.43520199E+03</pdfrwt>
<pdfrwt beam="2">  1       21 0.23219804E+00 0.43520199E+03</pdfrwt>
<totfact> 0.24832449E+04</totfact>
</mgrwt>
</event>
<event>
 7    0  0.4784406E-002  0.4571031E+03  0.7546771E-02  0.1025625E+00
         21   -1    0    0  502  501  0.00000000000E+00  0.00000000000E+00  0.14887479070E+04  0.14887479070E+04  0.00000000000E+00 0.  1.
         21   -1    0    0  501  502 -0.00000000000E+00 -0.00000000000E+00 -0.35087081505E+02  0.35087081505E+02  0.00000000000E+00 0.  1.
      99926    2    1    2    0    0  0.00000000000E+00  0.00000000000E+00  0.14536608255E+04  0.15238349885E+04  0.45710313564E+03 0.  0.
      99925    2    3    3    0    0 -0.65362734616E+02 -0.94292562016E+02  0.94478705273E+03  0.98739915913E+03  0.26300408764E+03 0.  0.
         25    1    4    4    0    0 -0.44051207402E+02 -0.86240629730E+02  0.47149724495E+03  0.49732797547E+03  0.12509000000E+03 0.  0.
         25    1    3    3    0    0  0.65362734616E+02  0.94292562016E+02  0.50887377274E+03  0.53643582935E+03  0.12509000000E+03 0.  0.
         25    1    4    4    0    0 -0.21311527214E+02 -0.80519322852E+01  0.47328980778E+03  0.49007118366E+03  0.12509000000E+03 0.  0.
<mgrwt>
<rscale>  2 0.45710314E+03</rscale>
<asrwt>0</asrwt>
<pdfrwt beam="1">  1       21 0.21893347E+00 0.45710314E+03</pdfrwt>
<pdfrwt beam="2">  1       21 0.51598659E-02 0.45710314E+03</pdfrwt>
<totfact> 0.22825834E+04</totfact>
</mgrwt>
</event>
<event>
 7    0  0.4784406E-002  0.4039935E+03  0.7546771E-02  0.1042406E+00
         21   -1    0    0  502  501  0.00000000000E+00  0.00000000000E+00  0.26063400112E+02  0.26063400112E+02  0.00000000000E+00 0. -1.
         21   -1    0    0  501  502 -0.00000000000E+00 -0.00000000000E+00 -0.15655167053E+04  0.15655167053E+04  0.00000000000E+00 0. -1.
      99926    2    1    2    0    0  0.00000000000E+00  0.00000000000E+00 -0.15394533052E+04  0.15915801054E+04  0.40399350625E+03 0.  0.
      99925    2    3    3    0    0 -0.29321282941E+02  0.43414675114E+02 -0.10067036584E+04  0.10418399251E+04  0.26312278874E+03 0.  0.
         25    1    4    4    0    0  0.23210444920E+02  0.34782956324E+02 -0.52578895260E+03  0.54207943106E+03  0.12509000000E+03 0.  0.
         25    1    3    3    0    0  0.29321282941E+02 -0.43414675114E+02 -0.53274964677E+03  0.54974018034E+03  0.12509000000E+03 0.  0.
         25    1    4    4    0    0 -0.52531727861E+02  0.86317187899E+01 -0.48091470584E+03  0.49976049403E+03  0.12509000000E+03 0.  0.
<mgrwt>
<rscale>  2 0.40399351E+03</rscale>
<asrwt>0</asrwt>
<pdfrwt beam="1">  1       21 0.38328534E-02 0.40399351E+03</pdfrwt>
<pdfrwt beam="2">  1       21 0.23022302E+00 0.40399351E+03</pdfrwt>
<totfact> 0.32822212E+04</totfact>
</mgrwt>
</event>
<event>
 7    0  0.4784406E-002  0.4561971E+03  0.7546771E-02  0.1025890E+00
         21   -1    0    0  502  501  0.00000000000E+00  0.00000000000E+00  0.18999833330E+03  0.18999833330E+03  0.00000000000E+00 0.  1.
         21   -1    0    0  501  502 -0.00000000000E+00 -0.00000000000E+00 -0.27383897906E+03  0.27383897906E+03  0.00000000000E+00 0.  1.
      99926    2    1    2    0    0  0.00000000000E+00  0.00000000000E+00 -0.83840645757E+02  0.46383731236E+03  0.45619710483E+03 0.  0.
      99925    2    3    3    0    0 -0.29735012066E+02  0.67077003943E+02 -0.14181605934E+03  0.30765744143E+03  0.26297872762E+03 0.  0.
         25    1    4    4    0    0 -0.18358007834E+02 -0.71551387029E+01 -0.56737879354E+02  0.13876205359E+03  0.12509000000E+03 0.  0.
         25    1    3    3    0    0  0.29735012066E+02 -0.67077003943E+02  0.57975413584E+02  0.15617987092E+03  0.12509000000E+03 0.  0.
         25    1    4    4    0    0 -0.11377004232E+02  0.74232142646E+02 -0.85078179987E+02  0.16889538785E+03  0.12509000000E+03 0.  0.
<mgrwt>
<rscale>  2 0.45619710E+03</rscale>
<asrwt>0</asrwt>
<pdfrwt beam="1">  1       21 0.27940931E-01 0.45619710E+03</pdfrwt>
<pdfrwt beam="2">  1       21 0.40270438E-01 0.45619710E+03</pdfrwt>
<totfact> 0.67254253E+04</totfact>
</mgrwt>
</event>
<event>
 7    0  0.4784406E-002  0.4560163E+03  0.7546771E-02  0.1025943E+00
         21   -1    0    0  502  501  0.00000000000E+00  0.00000000000E+00  0.85707537702E+02  0.85707537702E+02  0.00000000000E+00 0. -1.
         21   -1    0    0  501  502 -0.00000000000E+00 -0.00000000000E+00 -0.60657123112E+03  0.60657123112E+03  0.00000000000E+00 0. -1.
      99926    2    1    2    0    0  0.00000000000E+00  0.00000000000E+00 -0.52086369341E+03  0.69227876882E+03  0.45601634471E+03 0.  0.
      99925    2    3    3    0    0  0.30139391099E+02  0.99900628105E+02 -0.25783676428E+03  0.38289358504E+03  0.26313339214E+03 0.  0.
         25    1    4    4    0    0  0.41003375849E+02  0.19059092605E+02 -0.10785955714E+03  0.17124753431E+03  0.12509000000E+03 0.  0.
         25    1    4    4    0    0 -0.10863984750E+02  0.80841535501E+02 -0.14997720715E+03  0.21164605073E+03  0.12509000000E+03 0.  0.
         25    1    3    3    0    0 -0.30139391099E+02 -0.99900628105E+02 -0.26302692913E+03  0.30938518377E+03  0.12509000000E+03 0.  0.
<mgrwt>
<rscale>  2 0.45601634E+03</rscale>
<asrwt>0</asrwt>
<pdfrwt beam="1">  1       21 0.12604050E-01 0.45601634E+03</pdfrwt>
<pdfrwt beam="2">  1       21 0.89201651E-01 0.45601634E+03</pdfrwt>
<totfact> 0.52899765E+04</totfact>
</mgrwt>
</event>
<event>
 7    0  0.4784406E-002  0.4528506E+03  0.7546771E-02  0.1026875E+00
         21   -1    0    0  502  501  0.00000000000E+00  0.00000000000E+00  0.65300010398E+03  0.65300010398E+03  0.00000000000E+00 0.  1.
         21   -1    0    0  501  502 -0.00000000000E+00 -0.00000000000E+00 -0.78512105840E+02  0.78512105840E+02  0.00000000000E+00 0.  1.
      99926    2    1    2    0    0  0.71054273576E-14  0.00000000000E+00  0.57448799814E+03  0.73151220982E+03  0.45285058585E+03 0.  0.
      99925    2    3    3    0    0 -0.54016670654E+02  0.47003462524E+02  0.22510497118E+03  0.35356626947E+03  0.26307742712E+03 0.  0.
         25    1    3    3    0    0  0.54016670654E+02 -0.47003462524E+02  0.34938302696E+03  0.37794594035E+03  0.12509000000E+03 0.  0.
         25    1    4    4    0    0 -0.33727606959E+02  0.25368604068E+02  0.61899732132E+02  0.14580878739E+03  0.12509000000E+03 0.  0.
         25    1    4    4    0    0 -0.20289063695E+02  0.21634858456E+02  0.16320523905E+03  0.20775748208E+03  0.12509000000E+03 0.  0.
<mgrwt>
<rscale>  2 0.45285059E+03</rscale>
<asrwt>0</asrwt>
<pdfrwt beam="1">  1       21 0.96029424E-01 0.45285059E+03</pdfrwt>
<pdfrwt beam="2">  1       21 0.11545898E-01 0.45285059E+03</pdfrwt>
<totfact> 0.52100242E+04</totfact>
</mgrwt>
</event>
<event>
 7    0  0.4784406E-002  0.4555527E+03  0.7546771E-02  0.1026079E+00
         21   -1    0    0  502  501  0.00000000000E+00  0.00000000000E+00  0.13617621594E+04  0.13617621594E+04  0.00000000000E+00 0. -1.
         21   -1    0    0  501  502 -0.00000000000E+00 -0.00000000000E+00 -0.38099212572E+02  0.38099212572E+02  0.00000000000E+00 0. -1.
      99926    2    1    2    0    0  0.00000000000E+00  0.00000000000E+00  0.13236629468E+04  0.13998613720E+04  0.45555270160E+03 0.  0.
      99925    2    3    3    0    0 -0.61132819337E+02 -0.71977097378E+02  0.10284668748E+04  0.10656366674E+04  0.26252517986E+03 0.  0.
         25    1    4    4    0    0 -0.38929291232E+02 -0.27259551456E+01  0.40818811139E+03  0.42870498355E+03  0.12509000000E+03 0.  0.
         25    1    4    4    0    0 -0.22203528105E+02 -0.69251142232E+02  0.62027876344E+03  0.63693168380E+03  0.12509000000E+03 0.  0.
         25    1    3    3    0    0  0.61132819337E+02  0.71977097378E+02  0.29519607199E+03  0.33422470460E+03  0.12509000000E+03 0.  0.
<mgrwt>
<rscale>  2 0.45555270E+03</rscale>
<asrwt>0</asrwt>
<pdfrwt beam="1">  1       21 0.20025911E+00 0.45555270E+03</pdfrwt>
<pdfrwt beam="2">  1       21 0.56028263E-02 0.45555270E+03</pdfrwt>
<totfact> 0.26222886E+04</totfact>
</mgrwt>
</event>
<event>
 7    0  0.4784406E-002  0.4558350E+03  0.7546771E-02  0.1025996E+00
         21   -1    0    0  502  501  0.00000000000E+00  0.00000000000E+00  0.34744326282E+03  0.34744326282E+03  0.00000000000E+00 0.  1.
         21   -1    0    0  501  502 -0.00000000000E+00 -0.00000000000E+00 -0.14951040128E+03  0.14951040128E+03  0.00000000000E+00 0.  1.
      99926    2    1    2    0    0  0.00000000000E+00  0.00000000000E+00  0.19793286155E+03  0.49695366410E+03  0.45583497736E+03 0.  0.
      99925    2    3    3    0    0  0.86091291656E+02  0.56213655383E+02  0.70957546391E+02  0.29118212985E+03  0.26302162231E+03 0.  0.
         25    1    4    4    0    0  0.40034597954E+02  0.28134152581E+02 -0.64979268219E+01  0.13447687804E+03  0.12509000000E+03 0.  0.
         25    1    3    3    0    0 -0.86091291656E+02 -0.56213655383E+02  0.12697531516E+03  0.20577153425E+03  0.12509000000E+03 0.  0.
         25    1    4    4    0    0  0.46056693702E+02  0.28079502802E+02  0.77455473213E+02  0.15670525180E+03  0.12509000000E+03 0.  0.
<mgrwt>
<rscale>  2 0.45583498E+03</rscale>
<asrwt>0</asrwt>
<pdfrwt beam="1">  1       21 0.51094597E-01 0.45583498E+03</pdfrwt>
<pdfrwt beam="2">  1       21 0.21986824E-01 0.45583498E+03</pdfrwt>
<totfact> 0.65052938E+04</totfact>
</mgrwt>
</event>
<event>
 7    0  0.4784406E-002  0.4584008E+03  0.7546771E-02  0.1025246E+00
         21   -1    0    0  502  501  0.00000000000E+00  0.00000000000E+00  0.24959784474E+03  0.24959784474E+03  0.00000000000E+00 0. -1.
         21   -1    0    0  501  502 -0.00000000000E+00 -0.00000000000E+00 -0.21046983418E+03  0.21046983418E+03  0.00000000000E+00 0. -1.
      99926    2    1    2    0    0  0.00000000000E+00  0.00000000000E+00  0.39128010562E+02  0.46006767891E+03  0.45840077222E+03 0.  0.
      99925    2    3    3    0    0  0.76576946488E+02  0.85978421103E+02  0.76046031679E+01  0.28715859603E+03  0.26295610215E+03 0.  0.
         25    1    4    4    0    0  0.18980967600E+02  0.23811233620E+02  0.35416709162E+02  0.13352566557E+03  0.12509000000E+03 0.  0.
         25    1    4    4    0    0  0.57595978888E+02  0.62167187483E+02 -0.27812105994E+02  0.15363293047E+03  0.12509000000E+03 0.  0.
         25    1    3    3    0    0 -0.76576946488E+02 -0.85978421103E+02  0.31523407394E+02  0.17290908288E+03  0.12509000000E+03 0.  0.
<mgrwt>
<rscale>  2 0.45840077E+03</rscale>
<asrwt>0</asrwt>
<pdfrwt beam="1">  1       21 0.36705565E-01 0.45840077E+03</pdfrwt>
<pdfrwt beam="2">  1       21 0.30951446E-01 0.45840077E+03</pdfrwt>
<totfact> 0.66357272E+04</totfact>
</mgrwt>
</event>
<event>
 7    0  0.4784406E-002  0.4439400E+03  0.7546771E-02  0.1029545E+00
         21   -1    0    0  502  501  0.00000000000E+00  0.00000000000E+00  0.99713418530E+02  0.99713418530E+02  0.00000000000E+00 0.  1.
         21   -1    0    0  501  502 -0.00000000000E+00 -0.00000000000E+00 -0.49412289805E+03  0.49412289805E+03  0.00000000000E+00 0.  1.
      99926    2    1    2    0    0 -0.14210854715E-13  0.00000000000E+00 -0.39440947952E+03  0.59383631658E+03  0.44394001098E+03 0.  0.
      99925    2    3    3    0    0 -0.89579217951E+02  0.44431337007E+02 -0.28040288479E+03  0.39725658278E+03  0.26303694564E+03 0.  0.
         25    1    3    3    0    0  0.89579217951E+02 -0.44431337007E+02 -0.11400659473E+03  0.19657973380E+03  0.12509000000E+03 0.  0.
         25    1    4    4    0    0 -0.70923198460E+02  0.19350771779E+02 -0.10294710145E+03  0.17790493597E+03  0.12509000000E+03 0.  0.
         25    1    4    4    0    0 -0.18656019491E+02  0.25080565229E+02 -0.17745578335E+03  0.21935164681E+03  0.12509000000E+03 0.  0.
<mgrwt>
<rscale>  2 0.44394001E+03</rscale>
<asrwt>0</asrwt>
<pdfrwt beam="1">  1       21 0.14663738E-01 0.44394001E+03</pdfrwt>
<pdfrwt beam="2">  1       21 0.72665131E-01 0.44394001E+03</pdfrwt>
<totfact> 0.64515689E+04</totfact>
</mgrwt>
</event>
<event>
 7    0  0.4784406E-002  0.4501577E+03  0.7546771E-02  0.1027675E+00
         21   -1    0    0  502  501  0.00000000000E+00  0.00000000000E+00  0.34503820732E+02  0.34503820732E+02  0.00000000000E+00 0. -1.
         21   -1    0    0  501  502 -0.00000000000E+00 -0.00000000000E+00 -0.14682572969E+04  0.14682572969E+04  0.00000000000E+00 0. -1.
      99926    2    1    2    0    0  0.14210854715E-13  0.00000000000E+00 -0.14337534761E+04  0.15027611176E+04  0.45015769041E+03 0.  0.
      99925    2    3    3    0    0  0.88420301146E+02  0.62443783537E+02 -0.87998085280E+03  0.92480869550E+03  0.26303506651E+03 0.  0.
         25    1    4    4    0    0  0.16958456707E+01  0.23382227779E+02 -0.39989878920E+03  0.41966195226E+03  0.12509000000E+03 0.  0.
         25    1    4    4    0    0  0.86724455475E+02  0.39061555757E+02 -0.48008206360E+03  0.50514674324E+03  0.12509000000E+03 0.  0.
         25    1    3    3    0    0 -0.88420301146E+02 -0.62443783537E+02 -0.55377262333E+03  0.57795242210E+03  0.12509000000E+03 0.  0.
<mgrwt>
<rscale>  2 0.45015769E+03</rscale>
<asrwt>0</asrwt>
<pdfrwt beam="1">  1       21 0.50740915E-02 0.45015769E+03</pdfrwt>
<pdfrwt beam="2">  1       21 0.21592018E+00 0.45015769E+03</pdfrwt>
<totfact> 0.24624774E+04</totfact>
</mgrwt>
</event>
<event>
 7    0  0.4784406E-002  0.4514708E+03  0.7546771E-02  0.1027284E+00
         21   -1    0    0  502  501  0.00000000000E+00  0.00000000000E+00  0.64961415860E+03  0.64961415860E+03  0.00000000000E+00 0.  1.
         21   -1    0    0  501  502 -0.00000000000E+00 -0.00000000000E+00 -0.78441131293E+02  0.78441131293E+02  0.00000000000E+00 0.  1.
      99926    2    1    2    0    0  0.88817841970E-15  0.00000000000E+00  0.57117302731E+03  0.72805528990E+03  0.45147079420E+03 0.  0.
      99925    2    3    3    0    0  0.36972985808E+01 -0.69895646186E+02  0.49709597299E+03  0.56670477255E+03  0.26296543782E+03 0.  0.
         25    1    4    4    0    0 -0.10872288215E+02  0.45328737927E+01  0.21908434478E+03  0.25255536388E+03  0.12509000000E+03 0.  0.
         25    1    3    3    0    0 -0.36972985808E+01  0.69895646186E+02  0.74077054318E+02  0.16135051735E+03  0.12509000000E+03 0.  0.
         25    1    4    4    0    0  0.14569586796E+02 -0.74428519979E+02  0.27801162821E+03  0.31414940867E+03  0.12509000000E+03 0.  0.
<mgrwt>
<rscale>  2 0.45147079E+03</rscale>
<asrwt>0</asrwt>
<pdfrwt beam="1">  1       21 0.95531491E-01 0.45147079E+03</pdfrwt>
<pdfrwt beam="2">  1       21 0.11535461E-01 0.45147079E+03</pdfrwt>
<totfact> 0.52857879E+04</totfact>
</mgrwt>
</event>
<event>
 7    0  0.4784406E-002  0.4668384E+03  0.7546771E-02  0.1022816E+00
         21   -1    0    0  502  501  0.00000000000E+00  0.00000000000E+00  0.46878782047E+03  0.46878782047E+03  0.00000000000E+00 0. -1.
         21   -1    0    0  501  502 -0.00000000000E+00 -0.00000000000E+00 -0.11622424808E+03  0.11622424808E+03  0.00000000000E+00 0. -1.
      99926    2    1    2    0    0 -0.14210854715E-13  0.00000000000E+00  0.35256357239E+03  0.58501206855E+03  0.46683835294E+03 0.  0.
      99925    2    3    3    0    0  0.10892411622E+03  0.44768990426E+02  0.26790816947E+03  0.39348460070E+03  0.26303349240E+03 0.  0.
         25    1    4    4    0    0  0.50811457135E+02 -0.10399213992E+01  0.83752674223E+02  0.15888645050E+03  0.12509000000E+03 0.  0.
         25    1    3    3    0    0 -0.10892411622E+03 -0.44768990426E+02  0.84655402921E+02  0.19152746785E+03  0.12509000000E+03 0.  0.
         25    1    4    4    0    0  0.58112659085E+02  0.45808911825E+02  0.18415549524E+03  0.23459815020E+03  0.12509000000E+03 0.  0.
<mgrwt>
<rscale>  2 0.46683835E+03</rscale>
<asrwt>0</asrwt>
<pdfrwt beam="1">  1       21 0.68939385E-01 0.46683835E+03</pdfrwt>
<pdfrwt beam="2">  1       21 0.17091801E-01 0.46683835E+03</pdfrwt>
<totfact> 0.54343483E+04</totfact>
</mgrwt>
</event>
<event>
 7    0  0.4784406E-002  0.4617349E+03  0.7546771E-02  0.1024279E+00
         21   -1    0    0  502  501  0.00000000000E+00  0.00000000000E+00  0.29285120201E+03  0.29285120201E+03  0.00000000000E+00 0.  1.
         21   -1    0    0  501  502 -0.00000000000E+00 -0.00000000000E+00 -0.18200294040E+03  0.18200294040E+03  0.00000000000E+00 0.  1.
      99926    2    1    2    0    0 -0.35527136788E-14  0.00000000000E+00  0.11084826161E+03  0.47485414241E+03  0.46173490171E+03 0.  0.
      99925    2    3    3    0    0  0.17167288349E+02  0.11397483652E+03  0.10219246466E+03  0.30453852342E+03  0.26270788581E+03 0.  0.
         25    1    4    4    0    0  0.36815350254E+02  0.71533245986E+02  0.80894068828E+02  0.16930367322E+03  0.12509000000E+03 0.  0.
         25    1    3    3    0    0 -0.17167288349E+02 -0.11397483652E+03  0.86557969469E+01  0.17031561898E+03  0.12509000000E+03 0.  0.
         25    1    4    4    0    0 -0.19648061905E+02  0.42441590533E+02  0.21298395835E+02  0.13523485020E+03  0.12509000000E+03 0.  0.
<mgrwt>
<rscale>  2 0.46173490E+03</rscale>
<asrwt>0</asrwt>
<pdfrwt beam="1">  1       21 0.43066354E-01 0.46173490E+03</pdfrwt>
<pdfrwt beam="2">  1       21 0.26765138E-01 0.46173490E+03</pdfrwt>
<totfact> 0.63609361E+04</totfact>
</mgrwt>
</event>
<event>
 6    0  0.4784406E-002  0.4187251E+03  0.7546771E-02  0.1037482E+00
         21   -1    0    0  502  501  0.00000000000E+00  0.00000000000E+00  0.20764664604E+02  0.20764664604E+02  0.00000000000E+00 0. -1.
         21   -1    0    0  501  502 -0.00000000000E+00 -0.00000000000E+00 -0.21109260017E+04  0.21109260017E+04  0.00000000000E+00 0. -1.
      99926    2    1    2    0    0  0.00000000000E+00  0.00000000000E+00 -0.20901613371E+04  0.21316906663E+04  0.41872506698E+03 0.  0.
         25    1    3    3    0    0 -0.46073020194E+02  0.18924468540E+02 -0.61049021401E+03  0.62516131374E+03  0.12509000000E+03 0.  0.
         25    1    3    3    0    0  0.57365147136E+02  0.41615787673E+02 -0.75525990138E+03  0.76882225554E+03  0.12509000000E+03 0.  0.
         25    1    3    3    0    0 -0.11292126942E+02 -0.60540256213E+02 -0.72441122169E+03  0.73770709700E+03  0.12509000000E+03 0.  0.
<mgrwt>
<rscale>  2 0.41872507E+03</rscale>
<asrwt>0</asrwt>
<pdfrwt beam="1">  1       21 0.30536277E-02 0.41872507E+03</pdfrwt>
<pdfrwt beam="2">  1       21 0.31043024E+00 0.41872507E+03</pdfrwt>
<totfact> 0.15640136E+04</totfact>
</mgrwt>
</event>
<event>
 7    0  0.4784406E-002  0.4534550E+03  0.7546771E-02  0.1026697E+00
         21   -1    0    0  502  501  0.00000000000E+00  0.00000000000E+00  0.53987415211E+03  0.53987415211E+03  0.00000000000E+00 0. -1.
         21   -1    0    0  501  502 -0.00000000000E+00 -0.00000000000E+00 -0.95217285542E+02  0.95217285542E+02  0.00000000000E+00 0. -1.
      99926    2    1    2    0    0  0.17763568394E-14  0.00000000000E+00  0.44465686657E+03  0.63509143765E+03  0.45345496490E+03 0.  0.
      99925    2    3    3    0    0  0.14008271937E+02  0.10776540083E+03  0.24403914113E+03  0.37489037470E+03  0.26301725674E+03 0.  0.
         25    1    4    4    0    0  0.20398324333E+02  0.90202298349E+02  0.15924199469E+03  0.22261641277E+03  0.12509000000E+03 0.  0.
         25    1    3    3    0    0 -0.14008271937E+02 -0.10776540083E+03  0.20061772544E+03  0.26020106295E+03  0.12509000000E+03 0.  0.
         25    1    4    4    0    0 -0.63900523961E+01  0.17563102480E+02  0.84797146439E+02  0.15227396193E+03  0.12509000000E+03 0.  0.
<mgrwt>
<rscale>  2 0.45345496E+03</rscale>
<asrwt>0</asrwt>
<pdfrwt beam="1">  1       21 0.79393256E-01 0.45345496E+03</pdfrwt>
<pdfrwt beam="2">  1       21 0.14002542E-01 0.45345496E+03</pdfrwt>
<totfact> 0.57263764E+04</totfact>
</mgrwt>
</event>
<event>
 7    0  0.4784406E-002  0.4517990E+03  0.7546771E-02  0.1027187E+00
         21   -1    0    0  502  501  0.00000000000E+00  0.00000000000E+00  0.15660697319E+04  0.15660697319E+04  0.00000000000E+00 0.  1.
         21   -1    0    0  501  502 -0.00000000000E+00 -0.00000000000E+00 -0.32585126561E+02  0.32585126561E+02  0.00000000000E+00 0.  1.
      99926    2    1    2    0    0  0.00000000000E+00  0.00000000000E+00  0.15334846053E+04  0.15986548584E+04  0.45179898369E+03 0.  0.
      99925    2    3    3    0    0  0.36566885377E+02 -0.10233557042E+03  0.90474710091E+03  0.94844868835E+03  0.26301690391E+03 0.  0.
         25    1    4    4    0    0  0.13803270755E+02 -0.85432372951E+02  0.40870875751E+03  0.43609583488E+03  0.12509000000E+03 0.  0.
         25    1    4    4    0    0  0.22763614622E+02 -0.16903197465E+02  0.49603834340E+03  0.51235285347E+03  0.12509000000E+03 0.  0.
         25    1    3    3    0    0 -0.36566885377E+02  0.10233557042E+03  0.62873750440E+03  0.65020617008E+03  0.12509000000E+03 0.  0.
<mgrwt>
<rscale>  2 0.45179898E+03</rscale>
<asrwt>0</asrwt>
<pdfrwt beam="1">  1       21 0.23030432E+00 0.45179898E+03</pdfrwt>
<pdfrwt beam="2">  1       21 0.47919314E-02 0.45179898E+03</pdfrwt>
<totfact> 0.22002025E+04</totfact>
</mgrwt>
</event>
<event>
 7    0  0.4784406E-002  0.4546223E+03  0.7546771E-02  0.1026353E+00
         21   -1    0    0  502  501  0.00000000000E+00  0.00000000000E+00  0.18573445093E+04  0.18573445093E+04  0.00000000000E+00 0. -1.
         21   -1    0    0  501  502 -0.00000000000E+00 -0.00000000000E+00 -0.27819484869E+02  0.27819484869E+02  0.00000000000E+00 0. -1.
      99926    2    1    2    0    0  0.00000000000E+00  0.71054273576E-14  0.18295250244E+04  0.18851639942E+04  0.45462233765E+03 0.  0.
      99925    2    3    3    0    0  0.92250986720E+02 -0.42390390576E+02  0.94736694355E+03  0.98841565850E+03  0.26297185870E+03 0.  0.
         25    1    4    4    0    0  0.28151892827E+02 -0.56971080381E+02  0.49370448222E+03  0.51325418355E+03  0.12509000000E+03 0.  0.
         25    1    3    3    0    0 -0.92250986720E+02  0.42390390576E+02  0.88215808086E+03  0.89674833565E+03  0.12509000000E+03 0.  0.
         25    1    4    4    0    0  0.64099093893E+02  0.14580689805E+02  0.45366246133E+03  0.47516147495E+03  0.12509000000E+03 0.  0.
<mgrwt>
<rscale>  2 0.45462234E+03</rscale>
<asrwt>0</asrwt>
<pdfrwt beam="1">  1       21 0.27313882E+00 0.45462234E+03</pdfrwt>
<pdfrwt beam="2">  1       21 0.40911020E-02 0.45462234E+03</pdfrwt>
<totfact> 0.15722664E+04</totfact>
</mgrwt>
</event>
<event>
 7    0  0.4784406E-002  0.4533984E+03  0.7546771E-02  0.1026713E+00
         21   -1    0    0  502  501  0.00000000000E+00  0.00000000000E+00  0.29402976684E+03  0.29402976684E+03  0.00000000000E+00 0. -1.
         21   -1    0    0  501  502 -0.00000000000E+00 -0.00000000000E+00 -0.17478680687E+03  0.17478680687E+03  0.00000000000E+00 0. -1.
      99926    2    1    2    0    0  0.71054273576E-14  0.00000000000E+00  0.11924295997E+03  0.46881657371E+03  0.45339838584E+03 0.  0.
      99925    2    3    3    0    0 -0.43581901201E+02 -0.11490066734E+02 -0.30531243652E+02  0.26853870694E+03  0.26296288054E+03 0.  0.
         25    1    4    4    0    0  0.55155573376E+01 -0.24428958373E+02 -0.38633932958E+02  0.13329397682E+03  0.12509000000E+03 0.  0.
         25    1    3    3    0    0  0.43581901201E+02  0.11490066734E+02  0.14977420362E+03  0.20027786677E+03  0.12509000000E+03 0.  0.
         25    1    4    4    0    0 -0.49097458539E+02  0.12938891639E+02  0.81026893058E+01  0.13524473012E+03  0.12509000000E+03 0.  0.
<mgrwt>
<rscale>  2 0.45339839E+03</rscale>
<asrwt>0</asrwt>
<pdfrwt beam="1">  1       21 0.43239672E-01 0.45339839E+03</pdfrwt>
<pdfrwt beam="2">  1       21 0.25703942E-01 0.45339839E+03</pdfrwt>
<totfact> 0.68388631E+04</totfact>
</mgrwt>
</event>
<event>
 7    0  0.4784406E-002  0.4555583E+03  0.7546771E-02  0.1026077E+00
         21   -1    0    0  502  501  0.00000000000E+00  0.00000000000E+00  0.60620360039E+03  0.60620360039E+03  0.00000000000E+00 0. -1.
         21   -1    0    0  501  502 -0.00000000000E+00 -0.00000000000E+00 -0.85587329995E+02  0.85587329995E+02  0.00000000000E+00 0. -1.
      99926    2    1    2    0    0  0.00000000000E+00  0.00000000000E+00  0.52061627040E+03  0.69179093039E+03  0.45555832817E+03 0.  0.
      99925    2    3    3    0    0 -0.54397207715E+02  0.75092406010E+02  0.42722885384E+03  0.51022374360E+03  0.26307004643E+03 0.  0.
         25    1    4    4    0    0  0.10770068031E+02  0.20864119969E+02  0.17949534436E+03  0.22003952512E+03  0.12509000000E+03 0.  0.
         25    1    3    3    0    0  0.54397207715E+02 -0.75092406010E+02  0.93387416559E+02  0.18156718679E+03  0.12509000000E+03 0.  0.
         25    1    4    4    0    0 -0.65167275746E+02  0.54228286041E+02  0.24773350948E+03  0.29018421848E+03  0.12509000000E+03 0.  0.
<mgrwt>
<rscale>  2 0.45555833E+03</rscale>
<asrwt>0</asrwt>
<pdfrwt beam="1">  1       21 0.89147586E-01 0.45555833E+03</pdfrwt>
<pdfrwt beam="2">  1       21 0.12586372E-01 0.45555833E+03</pdfrwt>
<totfact> 0.53117168E+04</totfact>
</mgrwt>
</event>
<event>
 7    0  0.4784406E-002  0.4539182E+03  0.7546771E-02  0.1026560E+00
         21   -1    0    0  502  501  0.00000000000E+00  0.00000000000E+00  0.63979824859E+02  0.63979824859E+02  0.00000000000E+00 0.  1.
         21   -1    0    0  501  502 -0.00000000000E+00 -0.00000000000E+00 -0.80510440018E+03  0.80510440018E+03  0.00000000000E+00 0.  1.
      99926    2    1    2    0    0  0.35527136788E-14  0.00000000000E+00 -0.74112457532E+03  0.86908422504E+03  0.45391822399E+03 0.  0.
      99925    2    3    3    0    0 -0.21219484303E+02  0.33448768691E+02 -0.26592786267E+03  0.37610500595E+03  0.26299859451E+03 0.  0.
         25    1    4    4    0    0 -0.11597445459E+02  0.54948803148E+02 -0.15816284684E+03  0.20932478575E+03  0.12509000000E+03 0.  0.
         25    1    4    4    0    0 -0.96220388437E+01 -0.21500034457E+02 -0.10776501583E+03  0.16678022020E+03  0.12509000000E+03 0.  0.
         25    1    3    3    0    0  0.21219484303E+02 -0.33448768691E+02 -0.47519671265E+03  0.49297921909E+03  0.12509000000E+03 0.  0.
<mgrwt>
<rscale>  2 0.45391822E+03</rscale>
<asrwt>0</asrwt>
<pdfrwt beam="1">  1       21 0.94087981E-02 0.45391822E+03</pdfrwt>
<pdfrwt beam="2">  1       21 0.11839770E+00 0.45391822E+03</pdfrwt>
<totfact> 0.44977303E+04</totfact>
</mgrwt>
</event>
<event>
 7    0  0.4784406E-002  0.4549696E+03  0.7546771E-02  0.1026250E+00
         21   -1    0    0  502  501  0.00000000000E+00  0.00000000000E+00  0.10865495857E+04  0.10865495857E+04  0.00000000000E+00 0.  1.
         21   -1    0    0  501  502 -0.00000000000E+00 -0.00000000000E+00 -0.47627216372E+02  0.47627216372E+02  0.00000000000E+00 0.  1.
      99926    2    1    2    0    0  0.00000000000E+00  0.14210854715E-13  0.10389223693E+04  0.11341768021E+04  0.45496959115E+03 0.  0.
      99925    2    3    3    0    0 -0.21917241839E+02 -0.96849000737E+02  0.51840456783E+03  0.58970790102E+03  0.26296771313E+03 0.  0.
         25    1    4    4    0    0  0.86417649745E+00 -0.86733087403E+02  0.31029472447E+03  0.34562074501E+03  0.12509000000E+03 0.  0.
         25    1    3    3    0    0  0.21917241839E+02  0.96849000737E+02  0.52051780151E+03  0.54446890106E+03  0.12509000000E+03 0.  0.
         25    1    4    4    0    0 -0.22781418337E+02 -0.10115913334E+02  0.20810984336E+03  0.24408715601E+03  0.12509000000E+03 0.  0.
<mgrwt>
<rscale>  2 0.45496959E+03</rscale>
<asrwt>0</asrwt>
<pdfrwt beam="1">  1       21 0.15978669E+00 0.45496959E+03</pdfrwt>
<pdfrwt beam="2">  1       21 0.70040031E-02 0.45496959E+03</pdfrwt>
<totfact> 0.34323224E+04</totfact>
</mgrwt>
</event>
<event>
 6    0  0.4784406E-002  0.4496694E+03  0.7546771E-02  0.1027821E+00
         21   -1    0    0  502  501  0.00000000000E+00  0.00000000000E+00  0.92229262295E+02  0.92229262295E+02  0.00000000000E+00 0.  1.
         21   -1    0    0  501  502 -0.00000000000E+00 -0.00000000000E+00 -0.54809757997E+03  0.54809757997E+03  0.00000000000E+00 0.  1.
      99926    2    1    2    0    0 -0.71054273576E-14  0.35527136788E-14 -0.45586831767E+03  0.64032684226E+03  0.44966936950E+03 0.  0.
         25    1    3    3    0    0 -0.56218965707E+02 -0.28974986520E+02 -0.25945479132E+03  0.29489730210E+03  0.12509000000E+03 0.  0.
         25    1    3    3    0    0  0.63008933959E+02 -0.30942715856E+02 -0.11943825095E+03  0.18665631871E+03  0.12509000000E+03 0.  0.
         25    1    3    3    0    0 -0.67899682517E+01  0.59917702376E+02 -0.76975275401E+02  0.15877322145E+03  0.12509000000E+03 0.  0.
<mgrwt>
<rscale>  2 0.44966937E+03</rscale>
<asrwt>0</asrwt>
<pdfrwt beam="1">  1       21 0.13563127E-01 0.44966937E+03</pdfrwt>
<pdfrwt beam="2">  1       21 0.80602582E-01 0.44966937E+03</pdfrwt>
<totfact> 0.58692412E+04</totfact>
</mgrwt>
</event>
<event>
 7    0  0.4784406E-002  0.4553281E+03  0.7546771E-02  0.1026145E+00
         21   -1    0    0  502  501  0.00000000000E+00  0.00000000000E+00  0.10507924180E+03  0.10507924180E+03  0.00000000000E+00 0. -1.
         21   -1    0    0  501  502 -0.00000000000E+00 -0.00000000000E+00 -0.49325553998E+03  0.49325553998E+03  0.00000000000E+00 0. -1.
      99926    2    1    2    0    0  0.00000000000E+00 -0.35527136788E-14 -0.38817629818E+03  0.59833478179E+03  0.45532809339E+03 0.  0.
      99925    2    3    3    0    0 -0.82773508801E+02 -0.29042367616E+02 -0.33886130099E+03  0.43779073823E+03  0.26294264829E+03 0.  0.
         25    1    4    4    0    0 -0.44889399445E+02 -0.54615089915E+01 -0.23158641417E+03  0.26706677366E+03  0.12509000000E+03 0.  0.
         25    1    4    4    0    0 -0.37884109357E+02 -0.23580858624E+02 -0.10727488682E+03  0.17072396457E+03  0.12509000000E+03 0.  0.
         25    1    3    3    0    0  0.82773508801E+02  0.29042367616E+02 -0.49314997187E+02  0.16054404356E+03  0.12509000000E+03 0.  0.
<mgrwt>
<rscale>  2 0.45532809E+03</rscale>
<asrwt>0</asrwt>
<pdfrwt beam="1">  1       21 0.15452830E-01 0.45532809E+03</pdfrwt>
<pdfrwt beam="2">  1       21 0.72537580E-01 0.45532809E+03</pdfrwt>
<totfact> 0.58628741E+04</totfact>
</mgrwt>
</event>
<event>
 7    0  0.4784406E-002  0.4378145E+03  0.7546771E-02  0.1031419E+00
         21   -1    0    0  502  501  0.00000000000E+00  0.00000000000E+00  0.42060338649E+03  0.42060338649E+03  0.00000000000E+00 0. -1.
         21   -1    0    0  501  502 -0.00000000000E+00 -0.00000000000E+00 -0.11393247539E+03  0.11393247539E+03  0.00000000000E+00 0. -1.
      99926    2    1    2    0    0  0.00000000000E+00  0.00000000000E+00  0.30667091110E+03  0.53453586187E+03  0.43781450400E+03 0.  0.
      99925    2    3    3    0    0 -0.68360132755E+02 -0.67557783176E+02  0.19367962264E+03  0.34049539912E+03  0.26303642101E+03 0.  0.
         25    1    3    3    0    0  0.68360132755E+02  0.67557783176E+02  0.11299128846E+03  0.19404046275E+03  0.12509000000E+03 0.  0.
         25    1    4    4    0    0 -0.24727584230E+02 -0.45635266355E+02  0.14303783016E+03  0.19698060796E+03  0.12509000000E+03 0.  0.
         25    1    4    4    0    0 -0.43632548525E+02 -0.21922516821E+02  0.50641792484E+02  0.14351479116E+03  0.12509000000E+03 0.  0.
<mgrwt>
<rscale>  2 0.43781450E+03</rscale>
<asrwt>0</asrwt>
<pdfrwt beam="1">  1       21 0.61853439E-01 0.43781450E+03</pdfrwt>
<pdfrwt beam="2">  1       21 0.16754776E-01 0.43781450E+03</pdfrwt>
<totfact> 0.72235603E+04</totfact>
</mgrwt>
</event>
<event>
 7    0  0.4784406E-002  0.4523521E+03  0.7546771E-02  0.1027023E+00
         21   -1    0    0  502  501  0.00000000000E+00  0.00000000000E+00  0.74562944014E+03  0.74562944014E+03  0.00000000000E+00 0. -1.
         21   -1    0    0  501  502 -0.00000000000E+00 -0.00000000000E+00 -0.68607291660E+02  0.68607291660E+02  0.00000000000E+00 0. -1.
      99926    2    1    2    0    0  0.00000000000E+00  0.00000000000E+00  0.67702214848E+03  0.81423673180E+03  0.45235214809E+03 0.  0.
      99925    2    3    3    0    0 -0.64149209631E+02  0.87701005267E+02  0.46588036770E+03  0.54584346230E+03  0.26285733946E+03 0.  0.
         25    1    4    4    0    0 -0.21516083173E+02  0.44528642462E+02  0.15459325708E+03  0.20492028955E+03  0.12509000000E+03 0.  0.
         25    1    3    3    0    0  0.64149209631E+02 -0.87701005267E+02  0.21114178078E+03  0.26839326950E+03  0.12509000000E+03 0.  0.
         25    1    4    4    0    0 -0.42633126458E+02  0.43172362804E+02  0.31128711062E+03  0.34092317275E+03  0.12509000000E+03 0.  0.
<mgrwt>
<rscale>  2 0.45235215E+03</rscale>
<asrwt>0</asrwt>
<pdfrwt beam="1">  1       21 0.10965138E+00 0.45235215E+03</pdfrwt>
<pdfrwt beam="2">  1       21 0.10089308E-01 0.45235215E+03</pdfrwt>
<totfact> 0.48075029E+04</totfact>
</mgrwt>
</event>
<event>
 7    0  0.4784406E-002  0.4508705E+03  0.7546771E-02  0.1027463E+00
         21   -1    0    0  502  501  0.00000000000E+00  0.00000000000E+00  0.22077074651E+03  0.22077074651E+03  0.00000000000E+00 0.  1.
         21   -1    0    0  501  502 -0.00000000000E+00 -0.00000000000E+00 -0.23019830060E+03  0.23019830060E+03  0.00000000000E+00 0.  1.
      99926    2    1    2    0    0 -0.14210854715E-13  0.00000000000E+00 -0.94275540898E+01  0.45096904710E+03  0.45087049434E+03 0.  0.
      99925    2    3    3    0    0 -0.70143011342E+02  0.76104779517E+02  0.29075192171E+02  0.28410997760E+03  0.26298504343E+03 0.  0.
         25    1    3    3    0    0  0.70143011342E+02 -0.76104779517E+02 -0.38502746261E+02  0.16685906950E+03  0.12509000000E+03 0.  0.
         25    1    4    4    0    0 -0.23588319188E+02  0.77640874726E+02  0.17513163506E+02  0.15012905524E+03  0.12509000000E+03 0.  0.
         25    1    4    4    0    0 -0.46554692154E+02 -0.15360952089E+01  0.11562028665E+02  0.13398092236E+03  0.12509000000E+03 0.  0.
<mgrwt>
<rscale>  2 0.45087049E+03</rscale>
<asrwt>0</asrwt>
<pdfrwt beam="1">  1       21 0.32466287E-01 0.45087049E+03</pdfrwt>
<pdfrwt beam="2">  1       21 0.33852691E-01 0.45087049E+03</pdfrwt>
<totfact> 0.71157961E+04</totfact>
</mgrwt>
</event>
<event>
 7    0  0.4784406E-002  0.4307241E+03  0.7546771E-02  0.1033631E+00
         21   -1    0    0  502  501  0.00000000000E+00  0.00000000000E+00  0.39285174599E+02  0.39285174599E+02  0.00000000000E+00 0.  1.
         21   -1    0    0  501  502 -0.00000000000E+00 -0.00000000000E+00 -0.11806188213E+04  0.11806188213E+04  0.00000000000E+00 0.  1.
      99926    2    1    2    0    0  0.00000000000E+00  0.00000000000E+00 -0.11413336467E+04  0.12199039959E+04  0.43072411833E+03 0.  0.
      99925    2    3    3    0    0  0.65337497231E+02 -0.41061717757E+02 -0.61345788504E+03  0.67194835804E+03  0.26311397900E+03 0.  0.
         25    1    4    4    0    0  0.23192730295E+02  0.19771105783E+02 -0.29749615814E+03  0.32416087298E+03  0.12509000000E+03 0.  0.
         25    1    4    4    0    0  0.42144766936E+02 -0.60832823540E+02 -0.31596172689E+03  0.34778748506E+03  0.12509000000E+03 0.  0.
         25    1    3    3    0    0 -0.65337497231E+02  0.41061717757E+02 -0.52787576164E+03  0.54795563784E+03  0.12509000000E+03 0.  0.
<mgrwt>
<rscale>  2 0.43072412E+03</rscale>
<asrwt>0</asrwt>
<pdfrwt beam="1">  1       21 0.57772316E-02 0.43072412E+03</pdfrwt>
<pdfrwt beam="2">  1       21 0.17362041E+00 0.43072412E+03</pdfrwt>
<totfact> 0.38268901E+04</totfact>
</mgrwt>
</event>
<event>
 7    0  0.4784406E-002  0.4230381E+03  0.7546771E-02  0.1036082E+00
         21   -1    0    0  502  501  0.00000000000E+00  0.00000000000E+00  0.10725561260E+04  0.10725561260E+04  0.00000000000E+00 0. -1.
         21   -1    0    0  501  502 -0.00000000000E+00 -0.00000000000E+00 -0.41713714763E+02  0.41713714763E+02  0.00000000000E+00 0. -1.
      99926    2    1    2    0    0  0.00000000000E+00  0.00000000000E+00  0.10308424112E+04  0.11142698408E+04  0.42303806120E+03 0.  0.
      99925    2    3    3    0    0 -0.71542595450E+02  0.18526493968E+02  0.74583063991E+03  0.79436236689E+03  0.26322357904E+03 0.  0.
         25    1    3    3    0    0  0.71542595450E+02 -0.18526493968E+02  0.28501177132E+03  0.31990747386E+03  0.12509000000E+03 0.  0.
         25    1    4    4    0    0 -0.35877391933E+02  0.19056876690E+02  0.25935810853E+03  0.29079973927E+03  0.12509000000E+03 0.  0.
         25    1    4    4    0    0 -0.35665203517E+02 -0.53038272275E+00  0.48647253138E+03  0.50356262762E+03  0.12509000000E+03 0.  0.
<mgrwt>
<rscale>  2 0.42303806E+03</rscale>
<asrwt>0</asrwt>
<pdfrwt beam="1">  1       21 0.15772882E+00 0.42303806E+03</pdfrwt>
<pdfrwt beam="2">  1       21 0.61343705E-02 0.42303806E+03</pdfrwt>
<totfact> 0.45270248E+04</totfact>
</mgrwt>
</event>
<event>
 7    0  0.4784406E-002  0.4524173E+03  0.7546771E-02  0.1027004E+00
         21   -1    0    0  502  501  0.00000000000E+00  0.00000000000E+00  0.15322218050E+03  0.15322218050E+03  0.00000000000E+00 0.  1.
         21   -1    0    0  501  502 -0.00000000000E+00 -0.00000000000E+00 -0.33396175882E+03  0.33396175882E+03  0.00000000000E+00 0.  1.
      99926    2    1    2    0    0 -0.71054273576E-14  0.00000000000E+00 -0.18073957832E+03  0.48718393932E+03  0.45241728035E+03 0.  0.
      99925    2    3    3    0    0  0.54705058668E+02 -0.95026572529E+02 -0.13018289852E+03  0.31332716234E+03  0.26306582952E+03 0.  0.
         25    1    3    3    0    0 -0.54705058668E+02  0.95026572529E+02 -0.50556679791E+02  0.17385677698E+03  0.12509000000E+03 0.  0.
         25    1    4    4    0    0  0.65734453699E+02 -0.43719287342E+02 -0.83545360908E+02  0.16988151729E+03  0.12509000000E+03 0.  0.
         25    1    4    4    0    0 -0.11029395030E+02 -0.51307285187E+02 -0.46637537617E+02  0.14344564505E+03  0.12509000000E+03 0.  0.
<mgrwt>
<rscale>  2 0.45241728E+03</rscale>
<asrwt>0</asrwt>
<pdfrwt beam="1">  1       21 0.22532674E-01 0.45241728E+03</pdfrwt>
<pdfrwt beam="2">  1       21 0.49112023E-01 0.45241728E+03</pdfrwt>
<totfact> 0.67555282E+04</totfact>
</mgrwt>
</event>
<event>
 7    0  0.4784406E-002  0.4556940E+03  0.7546771E-02  0.1026038E+00
         21   -1    0    0  502  501  0.00000000000E+00  0.00000000000E+00  0.13054296504E+03  0.13054296504E+03  0.00000000000E+00 0.  1.
         21   -1    0    0  501  502 -0.00000000000E+00 -0.00000000000E+00 -0.39767945396E+03  0.39767945396E+03  0.00000000000E+00 0.  1.
      99926    2    1    2    0    0  0.00000000000E+00  0.00000000000E+00 -0.26713648892E+03  0.52822241901E+03  0.45569399845E+03 0.  0.
      99925    2    3    3    0    0  0.46939834250E+02 -0.33515154089E+02 -0.54700334034E+02  0.27503623929E+03  0.26329867601E+03 0.  0.
         25    1    3    3    0    0 -0.46939834250E+02  0.33515154089E+02 -0.21243615489E+03  0.25318617971E+03  0.12509000000E+03 0.  0.
         25    1    4    4    0    0  0.34014885013E+02 -0.46099403748E+02 -0.66860653741E+00  0.13758678193E+03  0.12509000000E+03 0.  0.
         25    1    4    4    0    0  0.12924949237E+02  0.12584249658E+02 -0.54031727497E+02  0.13744945736E+03  0.12509000000E+03 0.  0.
<mgrwt>
<rscale>  2 0.45569400E+03</rscale>
<asrwt>0</asrwt>
<pdfrwt beam="1">  1       21 0.19197495E-01 0.45569400E+03</pdfrwt>
<pdfrwt beam="2">  1       21 0.58482273E-01 0.45569400E+03</pdfrwt>
<totfact> 0.62979865E+04</totfact>
</mgrwt>
</event>
<event>
 7    0  0.5721729E-002  0.4120853E+03  0.7546771E-02  0.1039673E+00
         21   -1    0    0  502  501  0.00000000000E+00  0.00000000000E+00  0.57868589826E+03  0.57868589826E+03  0.00000000000E+00 0. -1.
         21   -1    0    0  501  502 -0.00000000000E+00 -0.00000000000E+00 -0.73362035802E+02  0.73362035802E+02  0.00000000000E+00 0. -1.
      99926    2    1    2    0    0  0.00000000000E+00  0.00000000000E+00  0.50532386246E+03  0.65204793406E+03  0.41208530955E+03 0.  0.
      99925    2    3    3    0    0  0.38076755674E+02  0.33120462373E+02  0.39933856947E+03  0.48050436880E+03  0.26242399095E+03 0.  0.
         25    1    3    3    0    0 -0.38076755674E+02 -0.33120462373E+02  0.10598529299E+03  0.17154356526E+03  0.12509000000E+03 0.  0.
         25    1    4    4    0    0  0.17397237673E+02  0.22982750416E+02  0.27073693310E+03  0.29962787878E+03  0.12509000000E+03 0.  0.
         25    1    4    4    0    0  0.20679518001E+02  0.10137711957E+02  0.12860163636E+03  0.18087649002E+03  0.12509000000E+03 0.  0.
<mgrwt>
<rscale>  2 0.41208531E+03</rscale>
<asrwt>0</asrwt>
<pdfrwt beam="1">  1       21 0.85100865E-01 0.41208531E+03</pdfrwt>
<pdfrwt beam="2">  1       21 0.10788535E-01 0.41208531E+03</pdfrwt>
<totfact> 0.79145165E+04</totfact>
</mgrwt>
</event>
<event>
 7    0  0.4784406E-002  0.4505147E+03  0.7546771E-02  0.1027569E+00
         21   -1    0    0  502  501  0.00000000000E+00  0.00000000000E+00  0.42628041149E+03  0.42628041149E+03  0.00000000000E+00 0.  1.
         21   -1    0    0  501  502 -0.00000000000E+00 -0.00000000000E+00 -0.11903168342E+03  0.11903168342E+03  0.00000000000E+00 0.  1.
      99926    2    1    2    0    0 -0.35527136788E-14  0.00000000000E+00  0.30724872807E+03  0.54531209491E+03  0.45051470559E+03 0.  0.
      99925    2    3    3    0    0  0.18651626165E+02  0.19114572843E+02  0.32207480944E+03  0.41654652947E+03  0.26280330722E+03 0.  0.
         25    1    3    3    0    0 -0.18651626165E+02 -0.19114572843E+02 -0.14826081366E+02  0.12876556544E+03  0.12509000000E+03 0.  0.
         25    1    4    4    0    0  0.48468024129E+02  0.15961939489E+02  0.17679036355E+03  0.22250005308E+03  0.12509000000E+03 0.  0.
         25    1    4    4    0    0 -0.29816397965E+02  0.31526333537E+01  0.14528444588E+03  0.19404647639E+03  0.12509000000E+03 0.  0.
<mgrwt>
<rscale>  2 0.45051471E+03</rscale>
<asrwt>0</asrwt>
<pdfrwt beam="1">  1       21 0.62688295E-01 0.45051471E+03</pdfrwt>
<pdfrwt beam="2">  1       21 0.17504659E-01 0.45051471E+03</pdfrwt>
<totfact> 0.64433925E+04</totfact>
</mgrwt>
</event>
<event>
 7    0  0.4784406E-002  0.4399708E+03  0.7546771E-02  0.1030756E+00
         21   -1    0    0  502  501  0.00000000000E+00  0.00000000000E+00  0.14161103384E+03  0.14161103384E+03  0.00000000000E+00 0. -1.
         21   -1    0    0  501  502 -0.00000000000E+00 -0.00000000000E+00 -0.34173594398E+03  0.34173594398E+03  0.00000000000E+00 0. -1.
      99926    2    1    2    0    0  0.71054273576E-14  0.00000000000E+00 -0.20012491014E+03  0.48334697783E+03  0.43997081871E+03 0.  0.
      99925    2    3    3    0    0 -0.62069615507E+02  0.33625471457E+02 -0.52573378723E+02  0.27742885812E+03  0.26309599325E+03 0.  0.
         25    1    4    4    0    0 -0.14326129817E+01  0.42504943983E+02 -0.13818106665E+02  0.13284265435E+03  0.12509000000E+03 0.  0.
         25    1    4    4    0    0 -0.60637002526E+02 -0.88794725256E+01 -0.38755272058E+02  0.14458620377E+03  0.12509000000E+03 0.  0.
         25    1    3    3    0    0  0.62069615507E+02 -0.33625471457E+02 -0.14755153142E+03  0.20591811971E+03  0.12509000000E+03 0.  0.
<mgrwt>
<rscale>  2 0.43997082E+03</rscale>
<asrwt>0</asrwt>
<pdfrwt beam="1">  1       21 0.20825152E-01 0.43997082E+03</pdfrwt>
<pdfrwt beam="2">  1       21 0.50255285E-01 0.43997082E+03</pdfrwt>
<totfact> 0.75015774E+04</totfact>
</mgrwt>
</event>
<event>
 7    0  0.4784406E-002  0.4494223E+03  0.7546771E-02  0.1027894E+00
         21   -1    0    0  502  501  0.00000000000E+00  0.00000000000E+00  0.98209688933E+03  0.98209688933E+03  0.00000000000E+00 0. -1.
         21   -1    0    0  501  502 -0.00000000000E+00 -0.00000000000E+00 -0.51415609819E+02  0.51415609819E+02  0.00000000000E+00 0. -1.
      99926    2    1    2    0    0  0.00000000000E+00  0.00000000000E+00  0.93068127951E+03  0.10335124991E+04  0.44942234242E+03 0.  0.
      99925    2    3    3    0    0  0.55286420437E+02  0.32949831497E+02  0.78768950566E+03  0.83292228211E+03  0.26298762526E+03 0.  0.
         25    1    4    4    0    0 -0.20868940605E+01  0.66132237930E+01  0.45494309474E+03  0.47187796877E+03  0.12509000000E+03 0.  0.
         25    1    3    3    0    0 -0.55286420437E+02 -0.32949831497E+02  0.14299177385E+03  0.20059021703E+03  0.12509000000E+03 0.  0.
         25    1    4    4    0    0  0.57373314497E+02  0.26336607704E+02  0.33274641091E+03  0.36104431334E+03  0.12509000000E+03 0.  0.
<mgrwt>
<rscale>  2 0.44942234E+03</rscale>
<asrwt>0</asrwt>
<pdfrwt beam="1">  1       21 0.14442600E+00 0.44942234E+03</pdfrwt>
<pdfrwt beam="2">  1       21 0.75611197E-02 0.44942234E+03</pdfrwt>
<totfact> 0.39583949E+04</totfact>
</mgrwt>
</event>
<event>
 7    0  0.4784406E-002  0.4577657E+03  0.7546771E-02  0.1025431E+00
         21   -1    0    0  502  501  0.00000000000E+00  0.00000000000E+00  0.11992206078E+03  0.11992206078E+03  0.00000000000E+00 0. -1.
         21   -1    0    0  501  502 -0.00000000000E+00 -0.00000000000E+00 -0.43684510860E+03  0.43684510860E+03  0.00000000000E+00 0. -1.
      99926    2    1    2    0    0  0.00000000000E+00  0.00000000000E+00 -0.31692304782E+03  0.55676716938E+03  0.45776572901E+03 0.  0.
      99925    2    3    3    0    0  0.90997755154E+02  0.69189166791E+02 -0.22134805532E+03  0.36221686859E+03  0.26294175411E+03 0.  0.
         25    1    4    4    0    0  0.86449522990E+02  0.34891013929E+02 -0.13521274107E+03  0.20644828971E+03  0.12509000000E+03 0.  0.
         25    1    4    4    0    0  0.45482321640E+01  0.34298152862E+02 -0.86135314251E+02  0.15576857888E+03  0.12509000000E+03 0.  0.
         25    1    3    3    0    0 -0.90997755154E+02 -0.69189166791E+02 -0.95574992506E+02  0.19455030079E+03  0.12509000000E+03 0.  0.
<mgrwt>
<rscale>  2 0.45776573E+03</rscale>
<asrwt>0</asrwt>
<pdfrwt beam="1">  1       21 0.17635597E-01 0.45776573E+03</pdfrwt>
<pdfrwt beam="2">  1       21 0.64241928E-01 0.45776573E+03</pdfrwt>
<totfact> 0.60095892E+04</totfact>
</mgrwt>
</event>
<event>
 7    0  0.4784406E-002  0.4526579E+03  0.7546771E-02  0.1026932E+00
         21   -1    0    0  502  501  0.00000000000E+00  0.00000000000E+00  0.32712175220E+02  0.32712175220E+02  0.00000000000E+00 0.  1.
         21   -1    0    0  501  502 -0.00000000000E+00 -0.00000000000E+00 -0.15659243367E+04  0.15659243367E+04  0.00000000000E+00 0.  1.
      99926    2    1    2    0    0  0.00000000000E+00 -0.44408920985E-14 -0.15332121615E+04  0.15986365120E+04  0.45265788973E+03 0.  0.
      99925    2    3    3    0    0 -0.11095493781E+03  0.52130949240E+01 -0.96713065100E+03  0.10083535635E+04  0.26286315517E+03 0.  0.
         25    1    3    3    0    0  0.11095493781E+03 -0.52130949240E+01 -0.56608151052E+03  0.59028294846E+03  0.12509000000E+03 0.  0.
         25    1    4    4    0    0 -0.34769521629E+02 -0.30177161919E+02 -0.40452887756E+03  0.42592335181E+03  0.12509000000E+03 0.  0.
         25    1    4    4    0    0 -0.76185416184E+02  0.35390256843E+02 -0.56260177343E+03  0.58243021169E+03  0.12509000000E+03 0.  0.
<mgrwt>
<rscale>  2 0.45265789E+03</rscale>
<asrwt>0</asrwt>
<pdfrwt beam="1">  1       21 0.48106142E-02 0.45265789E+03</pdfrwt>
<pdfrwt beam="2">  1       21 0.23028298E+00 0.45265789E+03</pdfrwt>
<totfact> 0.21855392E+04</totfact>
</mgrwt>
</event>
<event>
 7    0  0.4784406E-002  0.4449614E+03  0.7546771E-02  0.1029235E+00
         21   -1    0    0  502  501  0.00000000000E+00  0.00000000000E+00  0.30685798008E+03  0.30685798008E+03  0.00000000000E+00 0.  1.
         21   -1    0    0  501  502 -0.00000000000E+00 -0.00000000000E+00 -0.16130477350E+03  0.16130477350E+03  0.00000000000E+00 0.  1.
      99926    2    1    2    0    0  0.00000000000E+00  0.00000000000E+00  0.14555320658E+03  0.46816275358E+03  0.44496137798E+03 0.  0.
      99925    2    3    3    0    0 -0.65460034823E+02 -0.68446997692E+02  0.48641854533E+02  0.28374657776E+03  0.26301346491E+03 0.  0.
         25    1    4    4    0    0 -0.46549467698E+02 -0.74108427739E+02  0.20684201931E+02  0.15405926235E+03  0.12509000000E+03 0.  0.
         25    1    3    3    0    0  0.65460034823E+02  0.68446997692E+02  0.96911352044E+02  0.18441617583E+03  0.12509000000E+03 0.  0.
         25    1    4    4    0    0 -0.18910567126E+02  0.56614300471E+01  0.27957652603E+02  0.12968731541E+03  0.12509000000E+03 0.  0.
<mgrwt>
<rscale>  2 0.44496138E+03</rscale>
<asrwt>0</asrwt>
<pdfrwt beam="1">  1       21 0.45126174E-01 0.44496138E+03</pdfrwt>
<pdfrwt beam="2">  1       21 0.23721290E-01 0.44496138E+03</pdfrwt>
<totfact> 0.73234736E+04</totfact>
</mgrwt>
</event>
<event>
 7    0  0.4784406E-002  0.4521523E+03  0.7546771E-02  0.1027082E+00
         21   -1    0    0  502  501  0.00000000000E+00  0.00000000000E+00  0.59694467425E+03  0.59694467425E+03  0.00000000000E+00 0.  1.
         21   -1    0    0  501  502 -0.00000000000E+00 -0.00000000000E+00 -0.85620047293E+02  0.85620047293E+02  0.00000000000E+00 0.  1.
      99926    2    1    2    0    0  0.00000000000E+00  0.00000000000E+00  0.51132462696E+03  0.68256472155E+03  0.45215232496E+03 0.  0.
      99925    2    3    3    0    0 -0.48097830566E+02 -0.77692779680E+02  0.22908164847E+03  0.36060482291E+03  0.26307388187E+03 0.  0.
         25    1    3    3    0    0  0.48097830566E+02  0.77692779680E+02  0.28224297850E+03  0.32195989864E+03  0.12509000000E+03 0.  0.
         25    1    4    4    0    0 -0.54186979171E+02 -0.16313596565E+02  0.93608656161E+02  0.16616994540E+03  0.12509000000E+03 0.  0.
         25    1    4    4    0    0  0.60891486059E+01 -0.61379183115E+02  0.13547299231E+03  0.19443487752E+03  0.12509000000E+03 0.  0.
<mgrwt>
<rscale>  2 0.45215232E+03</rscale>
<asrwt>0</asrwt>
<pdfrwt beam="1">  1       21 0.87785980E-01 0.45215232E+03</pdfrwt>
<pdfrwt beam="2">  1       21 0.12591184E-01 0.45215232E+03</pdfrwt>
<totfact> 0.55084879E+04</totfact>
</mgrwt>
</event>
<event>
 7    0  0.4784406E-002  0.4624128E+03  0.7546771E-02  0.1024084E+00
         21   -1    0    0  502  501  0.00000000000E+00  0.00000000000E+00  0.83378274647E+03  0.83378274647E+03  0.00000000000E+00 0. -1.
         21   -1    0    0  501  502 -0.00000000000E+00 -0.00000000000E+00 -0.64113105381E+02  0.64113105381E+02  0.00000000000E+00 0. -1.
      99926    2    1    2    0    0 -0.71054273576E-14  0.00000000000E+00  0.76966964109E+03  0.89789585185E+03  0.46241280730E+03 0.  0.
      99925    2    3    3    0    0 -0.34739440967E+02  0.40848902379E+02  0.68962298163E+03  0.74000209841E+03  0.26295966855E+03 0.  0.
         25    1    4    4    0    0 -0.60647276555E+01  0.59268905526E+02  0.34315350764E+03  0.37006948265E+03  0.12509000000E+03 0.  0.
         25    1    3    3    0    0  0.34739440967E+02 -0.40848902379E+02  0.80046659465E+02  0.15789375344E+03  0.12509000000E+03 0.  0.
         25    1    4    4    0    0 -0.28674713312E+02 -0.18420003147E+02  0.34646947399E+03  0.36993261576E+03  0.12509000000E+03 0.  0.
<mgrwt>
<rscale>  2 0.46241281E+03</rscale>
<asrwt>0</asrwt>
<pdfrwt beam="1">  1       21 0.12261510E+00 0.46241281E+03</pdfrwt>
<pdfrwt beam="2">  1       21 0.94283984E-02 0.46241281E+03</pdfrwt>
<totfact> 0.40898811E+04</totfact>
</mgrwt>
</event>
<event>
 6    0  0.4784406E-002  0.4647144E+03  0.7546771E-02  0.1023423E+00
         21   -1    0    0  502  501  0.00000000000E+00  0.00000000000E+00  0.86447329780E+02  0.86447329780E+02  0.00000000000E+00 0.  1.
         21   -1    0    0  501  502 -0.00000000000E+00 -0.00000000000E+00 -0.62454074355E+03  0.62454074355E+03  0.00000000000E+00 0.  1.
      99926    2    1    2    0    0  0.14210854715E-13 -0.14210854715E-13 -0.53809341377E+03  0.71098807333E+03  0.46471444832E+03 0.  0.
         25    1    3    3    0    0 -0.91968473983E+02  0.80014932719E+02 -0.17023505821E+03  0.24390176877E+03  0.12509000000E+03 0.  0.
         25    1    3    3    0    0  0.19036374314E+02 -0.61941591059E+02 -0.20051439614E+03  0.24505647392E+03  0.12509000000E+03 0.  0.
         25    1    3    3    0    0  0.72932099669E+02 -0.18073341659E+02 -0.16734395943E+03  0.22202983065E+03  0.12509000000E+03 0.  0.
<mgrwt>
<rscale>  2 0.46471445E+03</rscale>
<asrwt>0</asrwt>
<pdfrwt beam="1">  1       21 0.12712843E-01 0.46471445E+03</pdfrwt>
<pdfrwt beam="2">  1       21 0.91844223E-01 0.46471445E+03</pdfrwt>
<totfact> 0.48496201E+04</totfact>
</mgrwt>
</event>
<event>
 7    0  0.4784406E-002  0.4557417E+03  0.7546771E-02  0.1026024E+00
         21   -1    0    0  502  501  0.00000000000E+00  0.00000000000E+00  0.11844278606E+04  0.11844278606E+04  0.00000000000E+00 0. -1.
         21   -1    0    0  501  502 -0.00000000000E+00 -0.00000000000E+00 -0.43839835808E+02  0.43839835808E+02  0.00000000000E+00 0. -1.
      99926    2    1    2    0    0  0.00000000000E+00 -0.17763568394E-14  0.11405880248E+04  0.12282676964E+04  0.45574169410E+03 0.  0.
      99925    2    3    3    0    0  0.10089586713E+03  0.89265476300E+01  0.57760848124E+03  0.64273107602E+03  0.26308177289E+03 0.  0.
         25    1    4    4    0    0  0.59866877951E+02 -0.34668347731E+02  0.27874541330E+03  0.31326099493E+03  0.12509000000E+03 0.  0.
         25    1    3    3    0    0 -0.10089586713E+03 -0.89265476300E+01  0.56297954352E+03  0.58553662036E+03  0.12509000000E+03 0.  0.
         25    1    4    4    0    0  0.41028989176E+02  0.43594895361E+02  0.29886306794E+03  0.32947008109E+03  0.12509000000E+03 0.  0.
<mgrwt>
<rscale>  2 0.45574169E+03</rscale>
<asrwt>0</asrwt>
<pdfrwt beam="1">  1       21 0.17418055E+00 0.45574169E+03</pdfrwt>
<pdfrwt beam="2">  1       21 0.64470354E-02 0.45574169E+03</pdfrwt>
<totfact> 0.31091237E+04</totfact>
</mgrwt>
</event>
<event>
 7    0  0.4784406E-002  0.4491698E+03  0.7546771E-02  0.1027970E+00
         21   -1    0    0  502  501  0.00000000000E+00  0.00000000000E+00  0.74385056804E+03  0.74385056804E+03  0.00000000000E+00 0.  1.
         21   -1    0    0  501  502 -0.00000000000E+00 -0.00000000000E+00 -0.67807127957E+02  0.67807127957E+02  0.00000000000E+00 0.  1.
      99926    2    1    2    0    0  0.00000000000E+00  0.71054273576E-14  0.67604344008E+03  0.81165769599E+03  0.44916977034E+03 0.  0.
      99925    2    3    3    0    0 -0.32541603830E+02  0.61572784809E+02  0.57638783482E+03  0.63721884835E+03  0.26263046424E+03 0.  0.
         25    1    3    3    0    0  0.32541603830E+02 -0.61572784809E+02  0.99655605254E+02  0.17443884764E+03  0.12509000000E+03 0.  0.
         25    1    4    4    0    0 -0.20005911681E+01 -0.74851104629E+01  0.28016715516E+03  0.30692209464E+03  0.12509000000E+03 0.  0.
         25    1    4    4    0    0 -0.30541012662E+02  0.69057895272E+02  0.29622067966E+03  0.33029675371E+03  0.12509000000E+03 0.  0.
<mgrwt>
<rscale>  2 0.44916977E+03</rscale>
<asrwt>0</asrwt>
<pdfrwt beam="1">  1       21 0.10938979E+00 0.44916977E+03</pdfrwt>
<pdfrwt beam="2">  1       21 0.99716369E-02 0.44916977E+03</pdfrwt>
<totfact> 0.49429015E+04</totfact>
</mgrwt>
</event>
<event>
 7    0  0.4784406E-002  0.4562216E+03  0.7546771E-02  0.1025883E+00
         21   -1    0    0  502  501  0.00000000000E+00  0.00000000000E+00  0.63005659460E+03  0.63005659460E+03  0.00000000000E+00 0.  1.
         21   -1    0    0  501  502 -0.00000000000E+00 -0.00000000000E+00 -0.82587089192E+02  0.82587089192E+02  0.00000000000E+00 0.  1.
      99926    2    1    2    0    0  0.35527136788E-14  0.35527136788E-14  0.54746950540E+03  0.71264368379E+03  0.45622161358E+03 0.  0.
      99925    2    3    3    0    0 -0.25811403781E+02 -0.22138473713E+02  0.51484248220E+03  0.57897105635E+03  0.26265635729E+03 0.  0.
         25    1    4    4    0    0 -0.39559459003E+02  0.17963784551E+02  0.24288283935E+03  0.27663555466E+03  0.12509000000E+03 0.  0.
         25    1    4    4    0    0  0.13748055222E+02 -0.40102258264E+02  0.27195964285E+03  0.30233550169E+03  0.12509000000E+03 0.  0.
         25    1    3    3    0    0  0.25811403781E+02  0.22138473713E+02  0.32627023203E+02  0.13367262744E+03  0.12509000000E+03 0.  0.
<mgrwt>
<rscale>  2 0.45622161E+03</rscale>
<asrwt>0</asrwt>
<pdfrwt beam="1">  1       21 0.92655379E-01 0.45622161E+03</pdfrwt>
<pdfrwt beam="2">  1       21 0.12145160E-01 0.45622161E+03</pdfrwt>
<totfact> 0.51722994E+04</totfact>
</mgrwt>
</event>
<event>
 7    0  0.4784406E-002  0.4597702E+03  0.7546771E-02  0.1024848E+00
         21   -1    0    0  502  501  0.00000000000E+00  0.00000000000E+00  0.21914847654E+03  0.21914847654E+03  0.00000000000E+00 0.  1.
         21   -1    0    0  501  502 -0.00000000000E+00 -0.00000000000E+00 -0.24114778085E+03  0.24114778085E+03  0.00000000000E+00 0.  1.
      99926    2    1    2    0    0  0.00000000000E+00  0.17763568394E-14 -0.21999304313E+02  0.46029625738E+03  0.45977024172E+03 0.  0.
      99925    2    3    3    0    0  0.73902643982E+02 -0.12514620941E+02  0.76899675761E+02  0.28409542627E+03  0.26301793584E+03 0.  0.
         25    1    4    4    0    0  0.23452200601E+02 -0.10230004548E+02 -0.22314233050E+01  0.12769943640E+03  0.12509000000E+03 0.  0.
         25    1    4    4    0    0  0.50450443381E+02 -0.22846163928E+01  0.79131099066E+02  0.15639598987E+03  0.12509000000E+03 0.  0.
         25    1    3    3    0    0 -0.73902643982E+02  0.12514620941E+02 -0.98898980074E+02  0.17620083111E+03  0.12509000000E+03 0.  0.
<mgrwt>
<rscale>  2 0.45977024E+03</rscale>
<asrwt>0</asrwt>
<pdfrwt beam="1">  1       21 0.32227717E-01 0.45977024E+03</pdfrwt>
<pdfrwt beam="2">  1       21 0.35462909E-01 0.45977024E+03</pdfrwt>
<totfact> 0.65625955E+04</totfact>
</mgrwt>
</event>
<event>
 7    0  0.4784406E-002  0.4492824E+03  0.7546771E-02  0.1027936E+00
         21   -1    0    0  502  501  0.00000000000E+00  0.00000000000E+00  0.38137417441E+03  0.38137417441E+03  0.00000000000E+00 0.  1.
         21   -1    0    0  501  502 -0.00000000000E+00 -0.00000000000E+00 -0.13232060880E+03  0.13232060880E+03  0.00000000000E+00 0.  1.
      99926    2    1    2    0    0  0.00000000000E+00  0.00000000000E+00  0.24905356561E+03  0.51369478321E+03  0.44928237418E+03 0.  0.
      99925    2    3    3    0    0 -0.19380844252E+02  0.36837105863E+02  0.43913865180E+02  0.26984566124E+03  0.26297464487E+03 0.  0.
         25    1    4    4    0    0 -0.32032332666E+02  0.33709868725E+02  0.53355901468E+02  0.14372468788E+03  0.12509000000E+03 0.  0.
         25    1    4    4    0    0  0.12651488414E+02  0.31272371381E+01 -0.94420362881E+01  0.12612097336E+03  0.12509000000E+03 0.  0.
         25    1    3    3    0    0  0.19380844252E+02 -0.36837105863E+02  0.20513970043E+03  0.24384912197E+03  0.12509000000E+03 0.  0.
<mgrwt>
<rscale>  2 0.44928237E+03</rscale>
<asrwt>0</asrwt>
<pdfrwt beam="1">  1       21 0.56084437E-01 0.44928237E+03</pdfrwt>
<pdfrwt beam="2">  1       21 0.19458913E-01 0.44928237E+03</pdfrwt>
<totfact> 0.67321591E+04</totfact>
</mgrwt>
</event>
<event>
 6    0  0.4784406E-002  0.4559168E+03  0.7546771E-02  0.1025972E+00
         21   -1    0    0  502  501  0.00000000000E+00  0.00000000000E+00  0.11216437007E+03  0.11216437007E+03  0.00000000000E+00 0.  1.
         21   -1    0    0  501  502 -0.00000000000E+00 -0.00000000000E+00 -0.46329350734E+03  0.46329350734E+03  0.00000000000E+00 0.  1.
      99926    2    1    2    0    0  0.00000000000E+00  0.00000000000E+00 -0.35112913726E+03  0.57545787741E+03  0.45591676613E+03 0.  0.
         25    1    3    3    0    0  0.13034941403E+02 -0.65859260034E+01 -0.10235819085E+03  0.16228983780E+03  0.12509000000E+03 0.  0.
         25    1    3    3    0    0  0.74568562395E+02 -0.28101582217E+02 -0.42694821517E+02  0.15433899477E+03  0.12509000000E+03 0.  0.
         25    1    3    3    0    0 -0.87603503798E+02  0.34687508220E+02 -0.20607612489E+03  0.25882904484E+03  0.12509000000E+03 0.  0.
<mgrwt>
<rscale>  2 0.45591677E+03</rscale>
<asrwt>0</asrwt>
<pdfrwt beam="1">  1       21 0.16494760E-01 0.45591677E+03</pdfrwt>
<pdfrwt beam="2">  1       21 0.68131399E-01 0.45591677E+03</pdfrwt>
<totfact> 0.59780410E+04</totfact>
</mgrwt>
</event>
<event>
 7    0  0.4784406E-002  0.4149129E+03  0.7546771E-02  0.1038735E+00
         21   -1    0    0  502  501  0.00000000000E+00  0.00000000000E+00  0.47700655595E+03  0.47700655595E+03  0.00000000000E+00 0. -1.
         21   -1    0    0  501  502 -0.00000000000E+00 -0.00000000000E+00 -0.90225548676E+02  0.90225548676E+02  0.00000000000E+00 0. -1.
      99926    2    1    2    0    0  0.00000000000E+00  0.00000000000E+00  0.38678100728E+03  0.56723210463E+03  0.41491289801E+03 0.  0.
      99925    2    3    3    0    0  0.59495269827E+02  0.25727123648E+02  0.28648060755E+03  0.39428919408E+03  0.26304231227E+03 0.  0.
         25    1    4    4    0    0  0.22836147613E+02 -0.27042882981E+02  0.14662116979E+03  0.19595428724E+03  0.12509000000E+03 0.  0.
         25    1    4    4    0    0  0.36659122214E+02  0.52770006629E+02  0.13985943776E+03  0.19833490684E+03  0.12509000000E+03 0.  0.
         25    1    3    3    0    0 -0.59495269827E+02 -0.25727123648E+02  0.10030039973E+03  0.17294291055E+03  0.12509000000E+03 0.  0.
<mgrwt>
<rscale>  2 0.41491290E+03</rscale>
<asrwt>0</asrwt>
<pdfrwt beam="1">  1       21 0.70148022E-01 0.41491290E+03</pdfrwt>
<pdfrwt beam="2">  1       21 0.13268463E-01 0.41491290E+03</pdfrwt>
<totfact> 0.84511760E+04</totfact>
</mgrwt>
</event>
<event>
 7    0  0.4784406E-002  0.4561544E+03  0.7546771E-02  0.1025902E+00
         21   -1    0    0  502  501  0.00000000000E+00  0.00000000000E+00  0.13999253329E+03  0.13999253329E+03  0.00000000000E+00 0.  1.
         21   -1    0    0  501  502 -0.00000000000E+00 -0.00000000000E+00 -0.37158556635E+03  0.37158556635E+03  0.00000000000E+00 0.  1.
      99926    2    1    2    0    0  0.00000000000E+00  0.00000000000E+00 -0.23159303306E+03  0.51157809963E+03  0.45615438074E+03 0.  0.
      99925    2    3    3    0    0 -0.78046679227E+02  0.60376667721E+02 -0.21028781901E+03  0.35083592599E+03  0.26292252470E+03 0.  0.
         25    1    4    4    0    0 -0.67160096478E+02  0.53527950375E+02 -0.87877003265E+02  0.17534422099E+03  0.12509000000E+03 0.  0.
         25    1    4    4    0    0 -0.10886582749E+02  0.68487173452E+01 -0.12241081574E+03  0.17549170500E+03  0.12509000000E+03 0.  0.
         25    1    3    3    0    0  0.78046679227E+02 -0.60376667721E+02 -0.21305214051E+02  0.16074217365E+03  0.12509000000E+03 0.  0.
<mgrwt>
<rscale>  2 0.45615438E+03</rscale>
<asrwt>0</asrwt>
<pdfrwt beam="1">  1       21 0.20587138E-01 0.45615438E+03</pdfrwt>
<pdfrwt beam="2">  1       21 0.54644935E-01 0.45615438E+03</pdfrwt>
<totfact> 0.63877473E+04</totfact>
</mgrwt>
</event>
<event>
 7    0  0.4784406E-002  0.4436396E+03  0.7546771E-02  0.1029636E+00
         21   -1    0    0  502  501  0.00000000000E+00  0.00000000000E+00  0.89528649002E+02  0.89528649002E+02  0.00000000000E+00 0.  1.
         21   -1    0    0  501  502 -0.00000000000E+00 -0.00000000000E+00 -0.54958975166E+03  0.54958975166E+03  0.00000000000E+00 0.  1.
      99926    2    1    2    0    0  0.00000000000E+00  0.00000000000E+00 -0.46006110266E+03  0.63911840066E+03  0.44363961938E+03 0.  0.
      99925    2    3    3    0    0 -0.53703349707E+02 -0.69795696231E+02 -0.36728303004E+03  0.46020286797E+03  0.26293414868E+03 0.  0.
         25    1    4    4    0    0 -0.28162775777E+02  0.21899800057E+01 -0.20227492624E+03  0.23950071365E+03  0.12509000000E+03 0.  0.
         25    1    4    4    0    0 -0.25540573930E+02 -0.71985676237E+02 -0.16500810380E+03  0.22070215432E+03  0.12509000000E+03 0.  0.
         25    1    3    3    0    0  0.53703349707E+02  0.69795696231E+02 -0.92778072615E+02  0.17891553270E+03  0.12509000000E+03 0.  0.
<mgrwt>
<rscale>  2 0.44363962E+03</rscale>
<asrwt>0</asrwt>
<pdfrwt beam="1">  1       21 0.13165978E-01 0.44363962E+03</pdfrwt>
<pdfrwt beam="2">  1       21 0.80822020E-01 0.44363962E+03</pdfrwt>
<totfact> 0.61678796E+04</totfact>
</mgrwt>
</event>
<event>
 7    0  0.4784406E-002  0.4563133E+03  0.7546771E-02  0.1025856E+00
         21   -1    0    0  502  501  0.00000000000E+00  0.00000000000E+00  0.12676447653E+04  0.12676447653E+04  0.00000000000E+00 0. -1.
         21   -1    0    0  501  502 -0.00000000000E+00 -0.00000000000E+00 -0.41064707521E+02  0.41064707521E+02  0.00000000000E+00 0. -1.
      99926    2    1    2    0    0  0.00000000000E+00  0.35527136788E-14  0.12265800577E+04  0.13087094728E+04  0.45631332011E+03 0.  0.
      99925    2    3    3    0    0  0.10191037430E+03 -0.18277603359E+02  0.63109284858E+03  0.69147992103E+03  0.26295722560E+03 0.  0.
         25    1    4    4    0    0  0.34925069848E+02  0.70570343975E+00  0.39032829131E+03  0.41136837703E+03  0.12509000000E+03 0.  0.
         25    1    4    4    0    0  0.66985304454E+02 -0.18983306799E+02  0.24076455727E+03  0.28011154401E+03  0.12509000000E+03 0.  0.
         25    1    3    3    0    0 -0.10191037430E+03  0.18277603359E+02  0.59548720917E+03  0.61722955175E+03  0.12509000000E+03 0.  0.
<mgrwt>
<rscale>  2 0.45631332E+03</rscale>
<asrwt>0</asrwt>
<pdfrwt beam="1">  1       21 0.18641832E+00 0.45631332E+03</pdfrwt>
<pdfrwt beam="2">  1       21 0.60389284E-02 0.45631332E+03</pdfrwt>
<totfact> 0.28569885E+04</totfact>
</mgrwt>
</event>
<event>
 7    0  0.4784406E-002  0.4132816E+03  0.7546771E-02  0.1039275E+00
         21   -1    0    0  502  501  0.00000000000E+00  0.00000000000E+00  0.33715579161E+03  0.33715579161E+03  0.00000000000E+00 0. -1.
         21   -1    0    0  501  502 -0.00000000000E+00 -0.00000000000E+00 -0.12664894330E+03  0.12664894330E+03  0.00000000000E+00 0. -1.
      99926    2    1    2    0    0 -0.35527136788E-14  0.00000000000E+00  0.21050684831E+03  0.46380473491E+03  0.41328162183E+03 0.  0.
      99925    2    3    3    0    0 -0.10135517938E+02 -0.12730993112E+02  0.65380094932E+02  0.27151825708E+03  0.26302623482E+03 0.  0.
         25    1    4    4    0    0  0.35080620725E+02 -0.61453372884E+01  0.25897409233E+02  0.13261447517E+03  0.12509000000E+03 0.  0.
         25    1    3    3    0    0  0.10135517938E+02  0.12730993112E+02  0.14512675338E+03  0.19228647783E+03  0.12509000000E+03 0.  0.
         25    1    4    4    0    0 -0.45216138662E+02 -0.65856558238E+01  0.39482685699E+02  0.13890378191E+03  0.12509000000E+03 0.  0.
<mgrwt>
<rscale>  2 0.41328162E+03</rscale>
<asrwt>0</asrwt>
<pdfrwt beam="1">  1       21 0.49581734E-01 0.41328162E+03</pdfrwt>
<pdfrwt beam="2">  1       21 0.18624845E-01 0.41328162E+03</pdfrwt>
<totfact> 0.95946321E+04</totfact>
</mgrwt>
</event>
<event>
 7    0  0.4784406E-002  0.4509494E+03  0.7546771E-02  0.1027439E+00
         21   -1    0    0  502  501  0.00000000000E+00  0.00000000000E+00  0.27235810877E+03  0.27235810877E+03  0.00000000000E+00 0. -1.
         21   -1    0    0  501  502 -0.00000000000E+00 -0.00000000000E+00 -0.18666177075E+03  0.18666177075E+03  0.00000000000E+00 0. -1.
      99926    2    1    2    0    0  0.00000000000E+00  0.00000000000E+00  0.85696338020E+02  0.45901987953E+03  0.45094942893E+03 0.  0.
      99925    2    3    3    0    0 -0.87112859129E+02  0.65006321199E+02  0.68271830740E+02  0.29238976948E+03  0.26270946386E+03 0.  0.
         25    1    3    3    0    0  0.87112859129E+02 -0.65006321199E+02  0.17424507281E+02  0.16663011005E+03  0.12509000000E+03 0.  0.
         25    1    4    4    0    0 -0.36766070613E+02  0.47742478127E+02 -0.30354587789E+01  0.13888056119E+03  0.12509000000E+03 0.  0.
         25    1    4    4    0    0 -0.50346788516E+02  0.17263843071E+02  0.71307289519E+02  0.15350920829E+03  0.12509000000E+03 0.  0.
<mgrwt>
<rscale>  2 0.45094943E+03</rscale>
<asrwt>0</asrwt>
<pdfrwt beam="1">  1       21 0.40052663E-01 0.45094943E+03</pdfrwt>
<pdfrwt beam="2">  1       21 0.27450260E-01 0.45094943E+03</pdfrwt>
<totfact> 0.70499224E+04</totfact>
</mgrwt>
</event>
<event>
 7    0  0.4784406E-002  0.4677934E+03  0.7546771E-02  0.1022545E+00
         21   -1    0    0  502  501  0.00000000000E+00  0.00000000000E+00  0.26824999570E+03  0.26824999570E+03  0.00000000000E+00 0. -1.
         21   -1    0    0  501  502 -0.00000000000E+00 -0.00000000000E+00 -0.20394287386E+03  0.20394287386E+03  0.00000000000E+00 0. -1.
      99926    2    1    2    0    0  0.14210854715E-13  0.14210854715E-13  0.64307121843E+02  0.47219286956E+03  0.46779343747E+03 0.  0.
      99925    2    3    3    0    0  0.54712575389E+02  0.11036380172E+03  0.60288082590E+02  0.29658735879E+03  0.26297485404E+03 0.  0.
         25    1    4    4    0    0  0.10524801591E+01  0.23029360429E+02  0.11751542532E+02  0.12773827151E+03  0.12509000000E+03 0.  0.
         25    1    4    4    0    0  0.53660095230E+02  0.87334441291E+02  0.48536540058E+02  0.16884908728E+03  0.12509000000E+03 0.  0.
         25    1    3    3    0    0 -0.54712575389E+02 -0.11036380172E+03  0.40190392530E+01  0.17560551077E+03  0.12509000000E+03 0.  0.
<mgrwt>
<rscale>  2 0.46779344E+03</rscale>
<asrwt>0</asrwt>
<pdfrwt beam="1">  1       21 0.39448529E-01 0.46779344E+03</pdfrwt>
<pdfrwt beam="2">  1       21 0.29991599E-01 0.46779344E+03</pdfrwt>
<totfact> 0.60851508E+04</totfact>
</mgrwt>
</event>
<event>
 7    0  0.4784406E-002  0.4565272E+03  0.7546771E-02  0.1025793E+00
         21   -1    0    0  502  501  0.00000000000E+00  0.00000000000E+00  0.87310865166E+03  0.87310865166E+03  0.00000000000E+00 0. -1.
         21   -1    0    0  501  502 -0.00000000000E+00 -0.00000000000E+00 -0.59676721401E+02  0.59676721401E+02  0.00000000000E+00 0. -1.
      99926    2    1    2    0    0  0.00000000000E+00  0.00000000000E+00  0.81343193026E+03  0.93278537306E+03  0.45652715914E+03 0.  0.
      99925    2    3    3    0    0  0.48922600767E+02 -0.97058223840E+02  0.58574802932E+03  0.65118070952E+03  0.26291033247E+03 0.  0.
         25    1    3    3    0    0 -0.48922600767E+02  0.97058223840E+02  0.22768390094E+03  0.28160466354E+03  0.12509000000E+03 0.  0.
         25    1    4    4    0    0  0.20549162572E+02 -0.54809163489E+01  0.25979111803E+03  0.28912149978E+03  0.12509000000E+03 0.  0.
         25    1    4    4    0    0  0.28373438195E+02 -0.91577307491E+02  0.32595691129E+03  0.36205920974E+03  0.12509000000E+03 0.  0.
<mgrwt>
<rscale>  2 0.45652716E+03</rscale>
<asrwt>0</asrwt>
<pdfrwt beam="1">  1       21 0.12839832E+00 0.45652716E+03</pdfrwt>
<pdfrwt beam="2">  1       21 0.87759890E-02 0.45652716E+03</pdfrwt>
<totfact> 0.41349757E+04</totfact>
</mgrwt>
</event>
<event>
 7    0  0.4784406E-002  0.4565465E+03  0.7546771E-02  0.1025788E+00
         21   -1    0    0  502  501  0.00000000000E+00  0.00000000000E+00  0.45468345181E+03  0.45468345181E+03  0.00000000000E+00 0. -1.
         21   -1    0    0  501  502 -0.00000000000E+00 -0.00000000000E+00 -0.11460427903E+03  0.11460427903E+03  0.00000000000E+00 0. -1.
      99926    2    1    2    0    0 -0.71054273576E-14  0.00000000000E+00  0.34007917278E+03  0.56928773084E+03  0.45654646722E+03 0.  0.
      99925    2    3    3    0    0  0.36034493711E+02 -0.33763233441E+02  0.84618915637E+02  0.28059084525E+03  0.26293044876E+03 0.  0.
         25    1    4    4    0    0 -0.16771109506E+01 -0.24472357007E+02  0.77999576941E+02  0.14944280197E+03  0.12509000000E+03 0.  0.
         25    1    3    3    0    0 -0.36034493711E+02  0.33763233441E+02  0.25546025714E+03  0.28869688559E+03  0.12509000000E+03 0.  0.
         25    1    4    4    0    0  0.37711604662E+02 -0.92908764343E+01  0.66193386958E+01  0.13114804328E+03  0.12509000000E+03 0.  0.
<mgrwt>
<rscale>  2 0.45654647E+03</rscale>
<asrwt>0</asrwt>
<pdfrwt beam="1">  1       21 0.66865212E-01 0.45654647E+03</pdfrwt>
<pdfrwt beam="2">  1       21 0.16853571E-01 0.45654647E+03</pdfrwt>
<totfact> 0.59874074E+04</totfact>
</mgrwt>
</event>
<event>
 7    0  0.4784406E-002  0.4592401E+03  0.7546771E-02  0.1025002E+00
         21   -1    0    0  502  501  0.00000000000E+00  0.00000000000E+00  0.92970292302E+03  0.92970292302E+03  0.00000000000E+00 0.  1.
         21   -1    0    0  501  502 -0.00000000000E+00 -0.00000000000E+00 -0.56712063947E+02  0.56712063947E+02  0.00000000000E+00 0.  1.
      99926    2    1    2    0    0  0.14210854715E-13  0.00000000000E+00  0.87299085907E+03  0.98641498697E+03  0.45924011855E+03 0.  0.
      99925    2    3    3    0    0 -0.86308909402E+02 -0.70396815363E+02  0.62706099076E+03  0.68886843988E+03  0.26254390466E+03 0.  0.
         25    1    4    4    0    0 -0.12342072134E+02 -0.47150371325E+02  0.24373854636E+03  0.27826510982E+03  0.12509000000E+03 0.  0.
         25    1    4    4    0    0 -0.73966837268E+02 -0.23246444038E+02  0.38332244440E+03  0.41060333006E+03  0.12509000000E+03 0.  0.
         25    1    3    3    0    0  0.86308909402E+02  0.70396815363E+02  0.24592986832E+03  0.29754654709E+03  0.12509000000E+03 0.  0.
<mgrwt>
<rscale>  2 0.45924012E+03</rscale>
<asrwt>0</asrwt>
<pdfrwt beam="1">  1       21 0.13672101E+00 0.45924012E+03</pdfrwt>
<pdfrwt beam="2">  1       21 0.83400100E-02 0.45924012E+03</pdfrwt>
<totfact> 0.38411115E+04</totfact>
</mgrwt>
</event>
<event>
 7    0  0.4784406E-002  0.4577295E+03  0.7546771E-02  0.1025442E+00
         21   -1    0    0  502  501  0.00000000000E+00  0.00000000000E+00  0.13616356231E+03  0.13616356231E+03  0.00000000000E+00 0. -1.
         21   -1    0    0  501  502 -0.00000000000E+00 -0.00000000000E+00 -0.38467765256E+03  0.38467765256E+03  0.00000000000E+00 0. -1.
      99926    2    1    2    0    0  0.00000000000E+00 -0.71054273576E-14 -0.24851409025E+03  0.52084121487E+03  0.45772952500E+03 0.  0.
      99925    2    3    3    0    0  0.65061796589E+02 -0.54282803364E+02 -0.66466406209E+02  0.28426453073E+03  0.26307580687E+03 0.  0.
         25    1    4    4    0    0  0.29994544989E+02  0.81662496497E+01 -0.53442018702E+02  0.13953464740E+03  0.12509000000E+03 0.  0.
         25    1    4    4    0    0  0.35067251600E+02 -0.62449053014E+02 -0.13024387507E+02  0.14472988332E+03  0.12509000000E+03 0.  0.
         25    1    3    3    0    0 -0.65061796589E+02  0.54282803364E+02 -0.18204768404E+03  0.23657668415E+03  0.12509000000E+03 0.  0.
<mgrwt>
<rscale>  2 0.45772952E+03</rscale>
<asrwt>0</asrwt>
<pdfrwt beam="1">  1       21 0.20024053E-01 0.45772952E+03</pdfrwt>
<pdfrwt beam="2">  1       21 0.56570244E-01 0.45772952E+03</pdfrwt>
<totfact> 0.62466218E+04</totfact>
</mgrwt>
</event>
<event>
 7    0  0.4784406E-002  0.4361861E+03  0.7546771E-02  0.1031923E+00
         21   -1    0    0  502  501  0.00000000000E+00  0.00000000000E+00  0.34933966037E+03  0.34933966037E+03  0.00000000000E+00 0.  1.
         21   -1    0    0  501  502 -0.00000000000E+00 -0.00000000000E+00 -0.13615567861E+03  0.13615567861E+03  0.00000000000E+00 0.  1.
      99926    2    1    2    0    0  0.71054273576E-14  0.00000000000E+00  0.21318398177E+03  0.48549533898E+03  0.43618610029E+03 0.  0.
      99925    2    3    3    0    0  0.57121415066E+02 -0.29353663826E+02  0.21376382061E+03  0.34488119335E+03  0.26291362248E+03 0.  0.
         25    1    4    4    0    0  0.55929443516E+02 -0.74119432188E+01  0.73529515852E+02  0.15568281008E+03  0.12509000000E+03 0.  0.
         25    1    3    3    0    0 -0.57121415066E+02  0.29353663826E+02 -0.57983883998E+00  0.14061414563E+03  0.12509000000E+03 0.  0.
         25    1    4    4    0    0  0.11919715500E+01 -0.21941720607E+02  0.14023430476E+03  0.18919838326E+03  0.12509000000E+03 0.  0.
<mgrwt>
<rscale>  2 0.43618610E+03</rscale>
<asrwt>0</asrwt>
<pdfrwt beam="1">  1       21 0.51373479E-01 0.43618610E+03</pdfrwt>
<pdfrwt beam="2">  1       21 0.20022894E-01 0.43618610E+03</pdfrwt>
<totfact> 0.77204278E+04</totfact>
</mgrwt>
</event>
<event>
 7    0  0.4784406E-002  0.4578606E+03  0.7546771E-02  0.1025404E+00
         21   -1    0    0  502  501  0.00000000000E+00  0.00000000000E+00  0.92976801445E+03  0.92976801445E+03  0.00000000000E+00 0. -1.
         21   -1    0    0  501  502 -0.00000000000E+00 -0.00000000000E+00 -0.56367919236E+02  0.56367919236E+02  0.00000000000E+00 0. -1.
      99926    2    1    2    0    0  0.00000000000E+00  0.00000000000E+00  0.87340009522E+03  0.98613593369E+03  0.45786062660E+03 0.  0.
      99925    2    3    3    0    0  0.99130319758E+02 -0.13799913499E+02  0.67441323258E+03  0.73067451290E+03  0.26274470046E+03 0.  0.
         25    1    3    3    0    0 -0.99130319758E+02  0.13799913499E+02  0.19898686264E+03  0.25546142079E+03  0.12509000000E+03 0.  0.
         25    1    4    4    0    0  0.92173629170E+02 -0.11538922248E+02  0.36703181774E+03  0.39873423226E+03  0.12509000000E+03 0.  0.
         25    1    4    4    0    0  0.69566905879E+01 -0.22609912513E+01  0.30738141484E+03  0.33194028064E+03  0.12509000000E+03 0.  0.
<mgrwt>
<rscale>  2 0.45786063E+03</rscale>
<asrwt>0</asrwt>
<pdfrwt beam="1">  1       21 0.13673058E+00 0.45786063E+03</pdfrwt>
<pdfrwt beam="2">  1       21 0.82894004E-02 0.45786063E+03</pdfrwt>
<totfact> 0.38835190E+04</totfact>
</mgrwt>
</event>
<event>
 7    0  0.4784406E-002  0.4508668E+03  0.7546771E-02  0.1027464E+00
         21   -1    0    0  502  501  0.00000000000E+00  0.00000000000E+00  0.91768102578E+03  0.91768102578E+03  0.00000000000E+00 0.  1.
         21   -1    0    0  501  502 -0.00000000000E+00 -0.00000000000E+00 -0.55378949924E+02  0.55378949924E+02  0.00000000000E+00 0.  1.
      99926    2    1    2    0    0  0.00000000000E+00 -0.14210854715E-13  0.86230207585E+03  0.97305997570E+03  0.45086677222E+03 0.  0.
      99925    2    3    3    0    0 -0.21196647375E+02  0.10465335924E+03  0.59458398470E+03  0.65885923113E+03  0.26299001525E+03 0.  0.
         25    1    3    3    0    0  0.21196647375E+02 -0.10465335924E+03  0.26771809116E+03  0.31420074458E+03  0.12509000000E+03 0.  0.
         25    1    4    4    0    0  0.23484525942E+02  0.40524351603E+02  0.32868879686E+03  0.35479230447E+03  0.12509000000E+03 0.  0.
         25    1    4    4    0    0 -0.44681173317E+02  0.64129007635E+02  0.26589518784E+03  0.30406692665E+03  0.12509000000E+03 0.  0.
<mgrwt>
<rscale>  2 0.45086677E+03</rscale>
<asrwt>0</asrwt>
<pdfrwt beam="1">  1       21 0.13495308E+00 0.45086677E+03</pdfrwt>
<pdfrwt beam="2">  1       21 0.81439638E-02 0.45086677E+03</pdfrwt>
<totfact> 0.41547178E+04</totfact>
</mgrwt>
</event>
<event>
 7    0  0.4784406E-002  0.4533258E+03  0.7546771E-02  0.1026735E+00
         21   -1    0    0  502  501  0.00000000000E+00  0.00000000000E+00  0.60549914558E+03  0.60549914558E+03  0.00000000000E+00 0. -1.
         21   -1    0    0  501  502 -0.00000000000E+00 -0.00000000000E+00 -0.84849114883E+02  0.84849114883E+02  0.00000000000E+00 0. -1.
      99926    2    1    2    0    0 -0.35527136788E-14 -0.14210854715E-13  0.52065003069E+03  0.69034826046E+03  0.45332578380E+03 0.  0.
      99925    2    3    3    0    0 -0.24497617925E+02 -0.75656179208E+02  0.44732943362E+03  0.52497774074E+03  0.26300953473E+03 0.  0.
         25    1    3    3    0    0  0.24497617925E+02  0.75656179208E+02  0.73320597075E+02  0.16537051972E+03  0.12509000000E+03 0.  0.
         25    1    4    4    0    0 -0.49812717852E+02 -0.54534210451E+02  0.24494308392E+03  0.28478045830E+03  0.12509000000E+03 0.  0.
         25    1    4    4    0    0  0.25315099927E+02 -0.21121968756E+02  0.20238634969E+03  0.24019728244E+03  0.12509000000E+03 0.  0.
<mgrwt>
<rscale>  2 0.45332578E+03</rscale>
<asrwt>0</asrwt>
<pdfrwt beam="1">  1       21 0.89043990E-01 0.45332578E+03</pdfrwt>
<pdfrwt beam="2">  1       21 0.12477811E-01 0.45332578E+03</pdfrwt>
<totfact> 0.54140224E+04</totfact>
</mgrwt>
</event>
<event>
 7    0  0.4784406E-002  0.4662605E+03  0.7546771E-02  0.1022981E+00
         21   -1    0    0  502  501  0.00000000000E+00  0.00000000000E+00  0.14761105373E+03  0.14761105373E+03  0.00000000000E+00 0.  1.
         21   -1    0    0  501  502 -0.00000000000E+00 -0.00000000000E+00 -0.36819538241E+03  0.36819538241E+03  0.00000000000E+00 0.  1.
      99926    2    1    2    0    0  0.00000000000E+00  0.00000000000E+00 -0.22058432868E+03  0.51580643614E+03  0.46626047817E+03 0.  0.
      99925    2    3    3    0    0 -0.35944610673E+02  0.34507102912E+02 -0.26231938322E+03  0.37483807776E+03  0.26307673888E+03 0.  0.
         25    1    4    4    0    0 -0.86649930705E+01  0.56389234803E+02 -0.12487907815E+03  0.18573400380E+03  0.12509000000E+03 0.  0.
         25    1    3    3    0    0  0.35944610673E+02 -0.34507102912E+02  0.41735054535E+02  0.14096835838E+03  0.12509000000E+03 0.  0.
         25    1    4    4    0    0 -0.27279617602E+02 -0.21882131891E+02 -0.13744030507E+03  0.18910407396E+03  0.12509000000E+03 0.  0.
<mgrwt>
<rscale>  2 0.46626048E+03</rscale>
<asrwt>0</asrwt>
<pdfrwt beam="1">  1       21 0.21707508E-01 0.46626048E+03</pdfrwt>
<pdfrwt beam="2">  1       21 0.54146380E-01 0.46626048E+03</pdfrwt>
<totfact> 0.58745740E+04</totfact>
</mgrwt>
</event>
<event>
 7    0  0.4784406E-002  0.4520126E+03  0.7546771E-02  0.1027124E+00
         21   -1    0    0  502  501  0.00000000000E+00  0.00000000000E+00  0.32982243977E+03  0.32982243977E+03  0.00000000000E+00 0. -1.
         21   -1    0    0  501  502 -0.00000000000E+00 -0.00000000000E+00 -0.15486768615E+03  0.15486768615E+03  0.00000000000E+00 0. -1.
      99926    2    1    2    0    0  0.00000000000E+00  0.00000000000E+00  0.17495475363E+03  0.48469012592E+03  0.45201255773E+03 0.  0.
      99925    2    3    3    0    0  0.10393340873E+02 -0.10777656059E+03  0.87597578213E+02  0.29760032731E+03  0.26299963984E+03 0.  0.
         25    1    3    3    0    0 -0.10393340873E+02  0.10777656059E+03  0.87357175414E+02  0.18708979861E+03  0.12509000000E+03 0.  0.
         25    1    4    4    0    0 -0.23526318694E+01 -0.11741282737E+02  0.29715093156E+02  0.12912740785E+03  0.12509000000E+03 0.  0.
         25    1    4    4    0    0  0.12745972742E+02 -0.96035277856E+02  0.57882485056E+02  0.16847291946E+03  0.12509000000E+03 0.  0.
<mgrwt>
<rscale>  2 0.45201256E+03</rscale>
<asrwt>0</asrwt>
<pdfrwt beam="1">  1       21 0.48503300E-01 0.45201256E+03</pdfrwt>
<pdfrwt beam="2">  1       21 0.22774660E-01 0.45201256E+03</pdfrwt>
<totfact> 0.67957678E+04</totfact>
</mgrwt>
</event>
<event>
 7    0  0.4784406E-002  0.4566065E+03  0.7546771E-02  0.1025770E+00
         21   -1    0    0  502  501  0.00000000000E+00  0.00000000000E+00  0.91583677159E+02  0.91583677159E+02  0.00000000000E+00 0. -1.
         21   -1    0    0  501  502 -0.00000000000E+00 -0.00000000000E+00 -0.56912300989E+03  0.56912300989E+03  0.00000000000E+00 0. -1.
      99926    2    1    2    0    0  0.71054273576E-14  0.00000000000E+00 -0.47753933273E+03  0.66070668705E+03  0.45660651770E+03 0.  0.
      99925    2    3    3    0    0  0.53160927100E+02 -0.92439977947E+02 -0.23906311285E+03  0.37106958784E+03  0.26300234485E+03 0.  0.
         25    1    3    3    0    0 -0.53160927100E+02  0.92439977947E+02 -0.23847621988E+03  0.28963709921E+03  0.12509000000E+03 0.  0.
         25    1    4    4    0    0  0.71877910334E+01 -0.75770585217E+02 -0.15174473724E+03  0.21087157064E+03  0.12509000000E+03 0.  0.
         25    1    4    4    0    0  0.45973136067E+02 -0.16669392730E+02 -0.87318375618E+02  0.16019801720E+03  0.12509000000E+03 0.  0.
<mgrwt>
<rscale>  2 0.45660652E+03</rscale>
<asrwt>0</asrwt>
<pdfrwt beam="1">  1       21 0.13468188E-01 0.45660652E+03</pdfrwt>
<pdfrwt beam="2">  1       21 0.83694561E-01 0.45660652E+03</pdfrwt>
<totfact> 0.54395978E+04</totfact>
</mgrwt>
</event>
<event>
 7    0  0.4784406E-002  0.4553075E+03  0.7546771E-02  0.1026151E+00
         21   -1    0    0  502  501  0.00000000000E+00  0.00000000000E+00  0.10391040027E+03  0.10391040027E+03  0.00000000000E+00 0.  1.
         21   -1    0    0  501  502 -0.00000000000E+00 -0.00000000000E+00 -0.49875884962E+03  0.49875884962E+03  0.00000000000E+00 0.  1.
      99926    2    1    2    0    0 -0.35527136788E-14  0.35527136788E-14 -0.39484844935E+03  0.60266924988E+03  0.45530750796E+03 0.  0.
      99925    2    3    3    0    0  0.19508572743E+02  0.85485675303E+01 -0.39587267937E+03  0.47577472847E+03  0.26304515120E+03 0.  0.
         25    1    3    3    0    0 -0.19508572743E+02 -0.85485675303E+01  0.10242300179E+01  0.12689452141E+03  0.12509000000E+03 0.  0.
         25    1    4    4    0    0  0.35172900351E+02 -0.27432111079E+02 -0.19933132037E+03  0.23952064006E+03  0.12509000000E+03 0.  0.
         25    1    4    4    0    0 -0.15664327608E+02  0.35980678609E+02 -0.19654135900E+03  0.23625408841E+03  0.12509000000E+03 0.  0.
<mgrwt>
<rscale>  2 0.45530751E+03</rscale>
<asrwt>0</asrwt>
<pdfrwt beam="1">  1       21 0.15280942E-01 0.45530751E+03</pdfrwt>
<pdfrwt beam="2">  1       21 0.73346888E-01 0.45530751E+03</pdfrwt>
<totfact> 0.58372324E+04</totfact>
</mgrwt>
</event>
<event>
 7    0  0.4784406E-002  0.4590528E+03  0.7546771E-02  0.1025056E+00
         21   -1    0    0  502  501  0.00000000000E+00  0.00000000000E+00  0.82076336751E+03  0.82076336751E+03  0.00000000000E+00 0. -1.
         21   -1    0    0  501  502 -0.00000000000E+00 -0.00000000000E+00 -0.64187041526E+02  0.64187041526E+02  0.00000000000E+00 0. -1.
      99926    2    1    2    0    0 -0.17763568394E-14  0.00000000000E+00  0.75657632598E+03  0.88495040904E+03  0.45905281767E+03 0.  0.
      99925    2    3    3    0    0  0.17697186342E+01 -0.11094147535E+03  0.40330879686E+03  0.49410952314E+03  0.26301158221E+03 0.  0.
         25    1    4    4    0    0  0.26825864167E+02 -0.55238186599E+02  0.14775314519E+03  0.20309944427E+03  0.12509000000E+03 0.  0.
         25    1    4    4    0    0 -0.25056145533E+02 -0.55703288746E+02  0.25555565167E+03  0.29101007887E+03  0.12509000000E+03 0.  0.
         25    1    3    3    0    0 -0.17697186342E+01  0.11094147535E+03  0.35326752913E+03  0.39084088590E+03  0.12509000000E+03 0.  0.
<mgrwt>
<rscale>  2 0.45905282E+03</rscale>
<asrwt>0</asrwt>
<pdfrwt beam="1">  1       21 0.12070049E+00 0.45905282E+03</pdfrwt>
<pdfrwt beam="2">  1       21 0.94392713E-02 0.45905282E+03</pdfrwt>
<totfact> 0.42524952E+04</totfact>
</mgrwt>
</event>
<event>
 7    0  0.4784406E-002  0.4552399E+03  0.7546771E-02  0.1026171E+00
         21   -1    0    0  502  501  0.00000000000E+00  0.00000000000E+00  0.24884657330E+03  0.24884657330E+03  0.00000000000E+00 0.  1.
         21   -1    0    0  501  502 -0.00000000000E+00 -0.00000000000E+00 -0.20820398769E+03  0.20820398769E+03  0.00000000000E+00 0.  1.
      99926    2    1    2    0    0  0.00000000000E+00  0.14210854715E-13  0.40642585612E+02  0.45705056099E+03  0.45523993183E+03 0.  0.
      99925    2    3    3    0    0  0.55213767044E+02 -0.87021956317E+02 -0.21895464991E+02  0.28332693903E+03  0.26300829272E+03 0.  0.
         25    1    4    4    0    0  0.12841702705E+02 -0.38298536430E+02  0.27207375256E+02  0.13423649500E+03  0.12509000000E+03 0.  0.
         25    1    3    3    0    0 -0.55213767044E+02  0.87021956317E+02  0.62538050602E+02  0.17372362196E+03  0.12509000000E+03 0.  0.
         25    1    4    4    0    0  0.42372064339E+02 -0.48723419888E+02 -0.49102840247E+02  0.14909044403E+03  0.12509000000E+03 0.  0.
<mgrwt>
<rscale>  2 0.45523993E+03</rscale>
<asrwt>0</asrwt>
<pdfrwt beam="1">  1       21 0.36595084E-01 0.45523993E+03</pdfrwt>
<pdfrwt beam="2">  1       21 0.30618233E-01 0.45523993E+03</pdfrwt>
<totfact> 0.68265075E+04</totfact>
</mgrwt>
</event>
<event>
 7    0  0.4784406E-002  0.4530416E+03  0.7546771E-02  0.1026819E+00
         21   -1    0    0  502  501  0.00000000000E+00  0.00000000000E+00  0.57514126770E+03  0.57514126770E+03  0.00000000000E+00 0. -1.
         21   -1    0    0  501  502 -0.00000000000E+00 -0.00000000000E+00 -0.89215765059E+02  0.89215765059E+02  0.00000000000E+00 0. -1.
      99926    2    1    2    0    0  0.00000000000E+00  0.00000000000E+00  0.48592550264E+03  0.66435703276E+03  0.45304157962E+03 0.  0.
      99925    2    3    3    0    0 -0.10269965447E+03 -0.41114617630E+02  0.28783437339E+03  0.40527165224E+03  0.26298071183E+03 0.  0.
         25    1    3    3    0    0  0.10269965447E+03  0.41114617630E+02  0.19809112925E+03  0.25908538052E+03  0.12509000000E+03 0.  0.
         25    1    4    4    0    0 -0.76933703434E+02 -0.44812703070E+02  0.19037302343E+03  0.24457385231E+03  0.12509000000E+03 0.  0.
         25    1    4    4    0    0 -0.25765951034E+02  0.36980854392E+01  0.97461349955E+02  0.16069779993E+03  0.12509000000E+03 0.  0.
<mgrwt>
<rscale>  2 0.45304158E+03</rscale>
<asrwt>0</asrwt>
<pdfrwt beam="1">  1       21 0.84579596E-01 0.45304158E+03</pdfrwt>
<pdfrwt beam="2">  1       21 0.13119966E-01 0.45304158E+03</pdfrwt>
<totfact> 0.55736624E+04</totfact>
</mgrwt>
</event>
<event>
 7    0  0.4784406E-002  0.4576466E+03  0.7546771E-02  0.1025466E+00
         21   -1    0    0  502  501  0.00000000000E+00  0.00000000000E+00  0.54149325865E+03  0.54149325865E+03  0.00000000000E+00 0.  1.
         21   -1    0    0  501  502 -0.00000000000E+00 -0.00000000000E+00 -0.96695758178E+02  0.96695758178E+02  0.00000000000E+00 0.  1.
      99926    2    1    2    0    0  0.00000000000E+00  0.00000000000E+00  0.44479750048E+03  0.63818901683E+03  0.45764659376E+03 0.  0.
      99925    2    3    3    0    0  0.40629810155E+02 -0.92058376503E+02  0.19973878394E+03  0.34522688821E+03  0.26298383292E+03 0.  0.
         25    1    3    3    0    0 -0.40629810155E+02  0.92058376503E+02  0.24505871653E+03  0.29296212862E+03  0.12509000000E+03 0.  0.
         25    1    4    4    0    0  0.23889091100E+02 -0.94635334847E+01  0.66519899843E+02  0.14398837562E+03  0.12509000000E+03 0.  0.
         25    1    4    4    0    0  0.16740719055E+02 -0.82594843018E+02  0.13321888410E+03  0.20123851259E+03  0.12509000000E+03 0.  0.
<mgrwt>
<rscale>  2 0.45764659E+03</rscale>
<asrwt>0</asrwt>
<pdfrwt beam="1">  1       21 0.79631360E-01 0.45764659E+03</pdfrwt>
<pdfrwt beam="2">  1       21 0.14219965E-01 0.45764659E+03</pdfrwt>
<totfact> 0.55224535E+04</totfact>
</mgrwt>
</event>
<event>
 7    0  0.4784406E-002  0.4528476E+03  0.7546771E-02  0.1026876E+00
         21   -1    0    0  502  501  0.00000000000E+00  0.00000000000E+00  0.23454044057E+03  0.23454044057E+03  0.00000000000E+00 0. -1.
         21   -1    0    0  501  502 -0.00000000000E+00 -0.00000000000E+00 -0.21858803157E+03  0.21858803157E+03  0.00000000000E+00 0. -1.
      99926    2    1    2    0    0  0.00000000000E+00  0.00000000000E+00  0.15952409004E+02  0.45312847214E+03  0.45284758243E+03 0.  0.
      99925    2    3    3    0    0  0.18176760319E+02  0.61037800514E+02 -0.81368006869E+02  0.28232221010E+03  0.26273383883E+03 0.  0.
         25    1    3    3    0    0 -0.18176760319E+02 -0.61037800514E+02  0.97320415872E+02  0.17080626204E+03  0.12509000000E+03 0.  0.
         25    1    4    4    0    0  0.96955199238E+01  0.39486520755E+02 -0.82197430265E+02  0.15510355918E+03  0.12509000000E+03 0.  0.
         25    1    4    4    0    0  0.84812403949E+01  0.21551279759E+02  0.82942339570E+00  0.12721865092E+03  0.12509000000E+03 0.  0.
<mgrwt>
<rscale>  2 0.45284758E+03</rscale>
<asrwt>0</asrwt>
<pdfrwt beam="1">  1       21 0.34491242E-01 0.45284758E+03</pdfrwt>
<pdfrwt beam="2">  1       21 0.32145299E-01 0.45284758E+03</pdfrwt>
<totfact> 0.69875481E+04</totfact>
</mgrwt>
</event>
<event>
 7    0  0.4784406E-002  0.4632373E+03  0.7546771E-02  0.1023846E+00
         21   -1    0    0  502  501  0.00000000000E+00  0.00000000000E+00  0.22345285982E+03  0.22345285982E+03  0.00000000000E+00 0.  1.
         21   -1    0    0  501  502 -0.00000000000E+00 -0.00000000000E+00 -0.24008285617E+03  0.24008285617E+03  0.00000000000E+00 0.  1.
      99926    2    1    2    0    0  0.35527136788E-14  0.14210854715E-13 -0.16629996341E+02  0.46353571599E+03  0.46323730767E+03 0.  0.
      99925    2    3    3    0    0  0.30045760294E+02  0.11559272250E+03  0.71662984610E+01  0.28895565713E+03  0.26302013373E+03 0.  0.
         25    1    4    4    0    0  0.49990960935E+02  0.71682439512E+02 -0.13979768723E+02  0.15323318943E+03  0.12509000000E+03 0.  0.
         25    1    3    3    0    0 -0.30045760294E+02 -0.11559272250E+03 -0.23796294802E+02  0.17458005886E+03  0.12509000000E+03 0.  0.
         25    1    4    4    0    0 -0.19945200641E+02  0.43910282984E+02  0.21146067184E+02  0.13572246770E+03  0.12509000000E+03 0.  0.
<mgrwt>
<rscale>  2 0.46323731E+03</rscale>
<asrwt>0</asrwt>
<pdfrwt beam="1">  1       21 0.32860715E-01 0.46323731E+03</pdfrwt>
<pdfrwt beam="2">  1       21 0.35306302E-01 0.46323731E+03</pdfrwt>
<totfact> 0.63638363E+04</totfact>
</mgrwt>
</event>
<event>
 7    0  0.4784406E-002  0.4497906E+03  0.7546771E-02  0.1027785E+00
         21   -1    0    0  502  501  0.00000000000E+00  0.00000000000E+00  0.21699602190E+03  0.21699602190E+03  0.00000000000E+00 0. -1.
         21   -1    0    0  501  502 -0.00000000000E+00 -0.00000000000E+00 -0.23308212916E+03  0.23308212916E+03  0.00000000000E+00 0. -1.
      99926    2    1    2    0    0  0.00000000000E+00  0.35527136788E-14 -0.16086107264E+02  0.45007815107E+03  0.44979059485E+03 0.  0.
      99925    2    3    3    0    0  0.10553793856E+03  0.18697087467E+02  0.48328381348E+01  0.28402711092E+03  0.26298328057E+03 0.  0.
         25    1    4    4    0    0  0.51344241964E+02 -0.28637810349E+02 -0.12015477019E+02  0.13873800904E+03  0.12509000000E+03 0.  0.
         25    1    3    3    0    0 -0.10553793856E+03 -0.18697087467E+02 -0.20918945398E+02  0.16605104014E+03  0.12509000000E+03 0.  0.
         25    1    4    4    0    0  0.54193696600E+02  0.47334897816E+02  0.16848315154E+02  0.14528910188E+03  0.12509000000E+03 0.  0.
<mgrwt>
<rscale>  2 0.44979059E+03</rscale>
<asrwt>0</asrwt>
<pdfrwt beam="1">  1       21 0.31911180E-01 0.44979059E+03</pdfrwt>
<pdfrwt beam="2">  1       21 0.34276784E-01 0.44979059E+03</pdfrwt>
<totfact> 0.71848168E+04</totfact>
</mgrwt>
</event>
<event>
 7    0  0.4784406E-002  0.4612358E+03  0.7546771E-02  0.1024423E+00
         21   -1    0    0  502  501  0.00000000000E+00  0.00000000000E+00  0.63152370770E+02  0.63152370770E+02  0.00000000000E+00 0.  1.
         21   -1    0    0  501  502 -0.00000000000E+00 -0.00000000000E+00 -0.84216356825E+03  0.84216356825E+03  0.00000000000E+00 0.  1.
      99926    2    1    2    0    0  0.00000000000E+00  0.00000000000E+00 -0.77901119748E+03  0.90531593902E+03  0.46123584384E+03 0.  0.
      99925    2    3    3    0    0  0.53963067624E+02  0.80743756799E+02 -0.62423092003E+03  0.68387518099E+03  0.26189588528E+03 0.  0.
         25    1    4    4    0    0  0.65734680269E+02  0.38542823280E+02 -0.31158844895E+03  0.34429851443E+03  0.12509000000E+03 0.  0.
         25    1    4    4    0    0 -0.11771612645E+02  0.42200933519E+02 -0.31264247107E+03  0.33957666656E+03  0.12509000000E+03 0.  0.
         25    1    3    3    0    0 -0.53963067624E+02 -0.80743756799E+02 -0.15478027746E+03  0.22144075804E+03  0.12509000000E+03 0.  0.
<mgrwt>
<rscale>  2 0.46123584E+03</rscale>
<asrwt>0</asrwt>
<pdfrwt beam="1">  1       21 0.92871130E-02 0.46123584E+03</pdfrwt>
<pdfrwt beam="2">  1       21 0.12384759E+00 0.46123584E+03</pdfrwt>
<totfact> 0.40967689E+04</totfact>
</mgrwt>
</event>
<event>
 7    0  0.4784406E-002  0.4545314E+03  0.7546771E-02  0.1026379E+00
         21   -1    0    0  502  501  0.00000000000E+00  0.00000000000E+00  0.47829199366E+02  0.47829199366E+02  0.00000000000E+00 0. -1.
         21   -1    0    0  501  502 -0.00000000000E+00 -0.00000000000E+00 -0.10798781378E+04  0.10798781378E+04  0.00000000000E+00 0. -1.
      99926    2    1    2    0    0  0.00000000000E+00 -0.35527136788E-14 -0.10320489384E+04  0.11277073371E+04  0.45453143672E+03 0.  0.
      99925    2    3    3    0    0  0.97375991452E+02 -0.23532720328E+02 -0.52235241274E+03  0.59340973373E+03  0.26314862026E+03 0.  0.
         25    1    3    3    0    0 -0.97375991452E+02  0.23532720328E+02 -0.50969652567E+03  0.53429760342E+03  0.12509000000E+03 0.  0.
         25    1    4    4    0    0  0.31376349031E+02  0.16160519192E+02 -0.29963239534E+03  0.32660789656E+03  0.12509000000E+03 0.  0.
         25    1    4    4    0    0  0.65999642421E+02 -0.39693239520E+02 -0.22272001740E+03  0.26680183717E+03  0.12509000000E+03 0.  0.
<mgrwt>
<rscale>  2 0.45453144E+03</rscale>
<asrwt>0</asrwt>
<pdfrwt beam="1">  1       21 0.70337066E-02 0.45453144E+03</pdfrwt>
<pdfrwt beam="2">  1       21 0.15880559E+00 0.45453144E+03</pdfrwt>
<totfact> 0.34661888E+04</totfact>
</mgrwt>
</event>
<event>
 7    0  0.4784406E-002  0.4501955E+03  0.7546771E-02  0.1027664E+00
         21   -1    0    0  502  501  0.00000000000E+00  0.00000000000E+00  0.27396745541E+03  0.27396745541E+03  0.00000000000E+00 0.  1.
         21   -1    0    0  501  502 -0.00000000000E+00 -0.00000000000E+00 -0.18494534638E+03  0.18494534638E+03  0.00000000000E+00 0.  1.
      99926    2    1    2    0    0  0.00000000000E+00  0.35527136788E-14  0.89022109029E+02  0.45891280179E+03  0.45019553947E+03 0.  0.
      99925    2    3    3    0    0 -0.16735640517E+02 -0.27096371199E+02  0.16208513784E+03  0.31058880079E+03  0.26301999215E+03 0.  0.
         25    1    3    3    0    0  0.16735640517E+02  0.27096371199E+02 -0.73063028808E+02  0.14832400101E+03  0.12509000000E+03 0.  0.
         25    1    4    4    0    0 -0.18757771742E+02 -0.52557621658E+02  0.76538724381E+02  0.15690711273E+03  0.12509000000E+03 0.  0.
         25    1    4    4    0    0  0.20221312243E+01  0.25461250459E+02  0.85546413456E+02  0.15368168806E+03  0.12509000000E+03 0.  0.
<mgrwt>
<rscale>  2 0.45019554E+03</rscale>
<asrwt>0</asrwt>
<pdfrwt beam="1">  1       21 0.40289331E-01 0.45019554E+03</pdfrwt>
<pdfrwt beam="2">  1       21 0.27197845E-01 0.45019554E+03</pdfrwt>
<totfact> 0.70935171E+04</totfact>
</mgrwt>
</event>
<event>
 7    0  0.4784406E-002  0.4557431E+03  0.7546771E-02  0.1026023E+00
         21   -1    0    0  502  501  0.00000000000E+00  0.00000000000E+00  0.22309371899E+02  0.22309371899E+02  0.00000000000E+00 0.  1.
         21   -1    0    0  501  502 -0.00000000000E+00 -0.00000000000E+00 -0.23275172260E+04  0.23275172260E+04  0.00000000000E+00 0.  1.
      99926    2    1    2    0    0  0.00000000000E+00  0.00000000000E+00 -0.23052078541E+04  0.23498265979E+04  0.45574311798E+03 0.  0.
      99925    2    3    3    0    0 -0.39613698286E+02  0.23217036316E+02 -0.91249994733E+03  0.95075865904E+03  0.26301634548E+03 0.  0.
         25    1    3    3    0    0  0.39613698286E+02 -0.23217036316E+02 -0.13927079068E+04  0.13990679389E+04  0.12509000000E+03 0.  0.
         25    1    4    4    0    0 -0.46240940715E+02 -0.16598142386E+02 -0.41698436921E+03  0.43810637429E+03  0.12509000000E+03 0.  0.
         25    1    4    4    0    0  0.66272424291E+01  0.39815178702E+02 -0.49551557812E+03  0.51265228475E+03  0.12509000000E+03 0.  0.
<mgrwt>
<rscale>  2 0.45574312E+03</rscale>
<asrwt>0</asrwt>
<pdfrwt beam="1">  1       21 0.32807919E-02 0.45574312E+03</pdfrwt>
<pdfrwt beam="2">  1       21 0.34228174E+00 0.45574312E+03</pdfrwt>
<totfact> 0.87424378E+03</totfact>
</mgrwt>
</event>
<event>
 7    0  0.4784406E-002  0.4567686E+03  0.7546771E-02  0.1025723E+00
         21   -1    0    0  502  501  0.00000000000E+00  0.00000000000E+00  0.28270749079E+02  0.28270749079E+02  0.00000000000E+00 0.  1.
         21   -1    0    0  501  502 -0.00000000000E+00 -0.00000000000E+00 -0.18449947622E+04  0.18449947622E+04  0.00000000000E+00 0.  1.
      99926    2    1    2    0    0  0.00000000000E+00  0.00000000000E+00 -0.18167240132E+04  0.18732655113E+04  0.45676858025E+03 0.  0.
      99925    2    3    3    0    0 -0.92000408054E+02  0.21537193331E+02 -0.87390654865E+03  0.91750392741E+03  0.26300736733E+03 0.  0.
         25    1    4    4    0    0 -0.60225555569E+02  0.13317226606E+02 -0.57768598954E+03  0.59428366685E+03  0.12509000000E+03 0.  0.
         25    1    3    3    0    0  0.92000408054E+02 -0.21537193331E+02 -0.94281746452E+03  0.95576158391E+03  0.12509000000E+03 0.  0.
         25    1    4    4    0    0 -0.31774852485E+02  0.82199667248E+01 -0.29622055911E+03  0.32322026057E+03  0.12509000000E+03 0.  0.
<mgrwt>
<rscale>  2 0.45676858E+03</rscale>
<asrwt>0</asrwt>
<pdfrwt beam="1">  1       21 0.41574620E-02 0.45676858E+03</pdfrwt>
<pdfrwt beam="2">  1       21 0.27132283E+00 0.45676858E+03</pdfrwt>
<totfact> 0.15675099E+04</totfact>
</mgrwt>
</event>
<event>
 7    0  0.4784406E-002  0.4558119E+03  0.7546771E-02  0.1026003E+00
         21   -1    0    0  502  501  0.00000000000E+00  0.00000000000E+00  0.11141375248E+03  0.11141375248E+03  0.00000000000E+00 0.  1.
         21   -1    0    0  501  502 -0.00000000000E+00 -0.00000000000E+00 -0.46620028884E+03  0.46620028884E+03  0.00000000000E+00 0.  1.
      99926    2    1    2    0    0  0.00000000000E+00  0.00000000000E+00 -0.35478653636E+03  0.57761404131E+03  0.45581190675E+03 0.  0.
      99925    2    3    3    0    0 -0.61582906911E+02  0.52350461650E+02 -0.12246074600E+03  0.30165062666E+03  0.26355917931E+03 0.  0.
         25    1    3    3    0    0  0.61582906911E+02 -0.52350461650E+02 -0.23232579036E+03  0.27596341465E+03  0.12509000000E+03 0.  0.
         25    1    4    4    0    0 -0.34509764944E+01  0.45131563478E+02 -0.87313946900E+02  0.15912259640E+03  0.12509000000E+03 0.  0.
         25    1    4    4    0    0 -0.58131930416E+02  0.72188981726E+01 -0.35146799101E+02  0.14252803027E+03  0.12509000000E+03 0.  0.
<mgrwt>
<rscale>  2 0.45581191E+03</rscale>
<asrwt>0</asrwt>
<pdfrwt beam="1">  1       21 0.16384375E-01 0.45581191E+03</pdfrwt>
<pdfrwt beam="2">  1       21 0.68558866E-01 0.45581191E+03</pdfrwt>
<totfact> 0.59693677E+04</totfact>
</mgrwt>
</event>
<event>
 7    0  0.4784406E-002  0.4442273E+03  0.7546771E-02  0.1029458E+00
         21   -1    0    0  502  501  0.00000000000E+00  0.00000000000E+00  0.39791158537E+02  0.39791158537E+02  0.00000000000E+00 0.  1.
         21   -1    0    0  501  502 -0.00000000000E+00 -0.00000000000E+00 -0.12398351041E+04  0.12398351041E+04  0.00000000000E+00 0.  1.
      99926    2    1    2    0    0  0.00000000000E+00 -0.35527136788E-14 -0.12000439456E+04  0.12796262627E+04  0.44422730753E+03 0.  0.
      99925    2    3    3    0    0 -0.27936678586E+02  0.25037048592E+02 -0.48687457675E+03  0.55459842281E+03  0.26291680297E+03 0.  0.
         25    1    3    3    0    0  0.27936678586E+02 -0.25037048592E+02 -0.71316936886E+03  0.72502783987E+03  0.12509000000E+03 0.  0.
         25    1    4    4    0    0 -0.57129022720E+01  0.35454619778E+02 -0.17842421280E+03  0.22084468553E+03  0.12509000000E+03 0.  0.
         25    1    4    4    0    0 -0.22223776314E+02 -0.10417571186E+02 -0.30845036395E+03  0.33375373728E+03  0.12509000000E+03 0.  0.
<mgrwt>
<rscale>  2 0.44422731E+03</rscale>
<asrwt>0</asrwt>
<pdfrwt beam="1">  1       21 0.58516419E-02 0.44422731E+03</pdfrwt>
<pdfrwt beam="2">  1       21 0.18232866E+00 0.44422731E+03</pdfrwt>
<totfact> 0.32338310E+04</totfact>
</mgrwt>
</event>
<event>
 6    0  0.4784406E-002  0.4510399E+03  0.7546771E-02  0.1027412E+00
         21   -1    0    0  502  501  0.00000000000E+00  0.00000000000E+00  0.42951633363E+03  0.42951633363E+03  0.00000000000E+00 0. -1.
         21   -1    0    0  501  502 -0.00000000000E+00 -0.00000000000E+00 -0.11841052836E+03  0.11841052836E+03  0.00000000000E+00 0. -1.
      99926    2    1    2    0    0  0.00000000000E+00  0.14210854715E-13  0.31110580528E+03  0.54792686199E+03  0.45103993617E+03 0.  0.
         25    1    3    3    0    0  0.24598272448E+02  0.67146828083E+02  0.20824712730E+03  0.25323535625E+03  0.12509000000E+03 0.  0.
         25    1    3    3    0    0 -0.24163512816E+02  0.12261544904E+02  0.47663365341E+02  0.13657790938E+03  0.12509000000E+03 0.  0.
         25    1    3    3    0    0 -0.43475963186E+00 -0.79408372987E+02  0.55195312638E+02  0.15811359636E+03  0.12509000000E+03 0.  0.
<mgrwt>
<rscale>  2 0.45103994E+03</rscale>
<asrwt>0</asrwt>
<pdfrwt beam="1">  1       21 0.63164166E-01 0.45103994E+03</pdfrwt>
<pdfrwt beam="2">  1       21 0.17413313E-01 0.45103994E+03</pdfrwt>
<totfact> 0.63985120E+04</totfact>
</mgrwt>
</event>
<event>
 7    0  0.4784406E-002  0.4449538E+03  0.7546771E-02  0.1029238E+00
         21   -1    0    0  502  501  0.00000000000E+00  0.00000000000E+00  0.82453791944E+02  0.82453791944E+02  0.00000000000E+00 0.  1.
         21   -1    0    0  501  502 -0.00000000000E+00 -0.00000000000E+00 -0.60028740929E+03  0.60028740929E+03  0.00000000000E+00 0.  1.
      99926    2    1    2    0    0  0.00000000000E+00  0.00000000000E+00 -0.51783361734E+03  0.68274120123E+03  0.44495380952E+03 0.  0.
      99925    2    3    3    0    0  0.28652093495E+02  0.16053047353E+02 -0.48020753729E+03  0.54804943166E+03  0.26206918529E+03 0.  0.
         25    1    3    3    0    0 -0.28652093495E+02 -0.16053047353E+02 -0.37626080049E+02  0.13469176957E+03  0.12509000000E+03 0.  0.
         25    1    4    4    0    0  0.35785278424E+02 -0.17956126814E+02 -0.20061740044E+03  0.23978710995E+03  0.12509000000E+03 0.  0.
         25    1    4    4    0    0 -0.71331849297E+01  0.34009174167E+02 -0.27959013686E+03  0.30826232171E+03  0.12509000000E+03 0.  0.
<mgrwt>
<rscale>  2 0.44495381E+03</rscale>
<asrwt>0</asrwt>
<pdfrwt beam="1">  1       21 0.12125557E-01 0.44495381E+03</pdfrwt>
<pdfrwt beam="2">  1       21 0.88277564E-01 0.44495381E+03</pdfrwt>
<totfact> 0.58328894E+04</totfact>
</mgrwt>
</event>
<event>
 7    0  0.4784406E-002  0.4448433E+03  0.7546771E-02  0.1029271E+00
         21   -1    0    0  502  501  0.00000000000E+00  0.00000000000E+00  0.29508186806E+03  0.29508186806E+03  0.00000000000E+00 0. -1.
         21   -1    0    0  501  502 -0.00000000000E+00 -0.00000000000E+00 -0.16765312855E+03  0.16765312855E+03  0.00000000000E+00 0. -1.
      99926    2    1    2    0    0  0.00000000000E+00  0.88817841970E-15  0.12742873952E+03  0.46273499661E+03  0.44484333583E+03 0.  0.
      99925    2    3    3    0    0  0.61886637884E+02 -0.40693882190E+01 -0.52177321448E+01  0.27014966380E+03  0.26288229354E+03 0.  0.
         25    1    3    3    0    0 -0.61886637884E+02  0.40693882190E+01  0.13264647166E+03  0.19258533281E+03  0.12509000000E+03 0.  0.
         25    1    4    4    0    0  0.55939729577E+02  0.25846885673E+01  0.29148692160E+02  0.14011812272E+03  0.12509000000E+03 0.  0.
         25    1    4    4    0    0  0.59469083061E+01 -0.66540767863E+01 -0.34366424305E+02  0.13003154108E+03  0.12509000000E+03 0.  0.
<mgrwt>
<rscale>  2 0.44484334E+03</rscale>
<asrwt>0</asrwt>
<pdfrwt beam="1">  1       21 0.43394392E-01 0.44484334E+03</pdfrwt>
<pdfrwt beam="2">  1       21 0.24654872E-01 0.44484334E+03</pdfrwt>
<totfact> 0.73745142E+04</totfact>
</mgrwt>
</event>
<event>
 7    0  0.4784406E-002  0.4631115E+03  0.7546771E-02  0.1023883E+00
         21   -1    0    0  502  501  0.00000000000E+00  0.00000000000E+00  0.52611340542E+02  0.52611340542E+02  0.00000000000E+00 0.  1.
         21   -1    0    0  501  502 -0.00000000000E+00 -0.00000000000E+00 -0.10191351612E+04  0.10191351612E+04  0.00000000000E+00 0.  1.
      99926    2    1    2    0    0  0.26645352591E-14  0.14210854715E-13 -0.96652382066E+03  0.10717465017E+04  0.46311150720E+03 0.  0.
      99925    2    3    3    0    0 -0.74247667981E+01 -0.75787696202E+02 -0.82013938793E+03  0.86468416257E+03  0.26315619565E+03 0.  0.
         25    1    4    4    0    0 -0.36356814057E+02 -0.55847146680E+02 -0.37187591498E+03  0.39796975508E+03  0.12509000000E+03 0.  0.
         25    1    3    3    0    0  0.74247667981E+01  0.75787696202E+02 -0.14638443273E+03  0.20706233917E+03  0.12509000000E+03 0.  0.
         25    1    4    4    0    0  0.28932047259E+02 -0.19940549521E+02 -0.44826347296E+03  0.46671440749E+03  0.12509000000E+03 0.  0.
<mgrwt>
<rscale>  2 0.46311151E+03</rscale>
<asrwt>0</asrwt>
<pdfrwt beam="1">  1       21 0.77369626E-02 0.46311151E+03</pdfrwt>
<pdfrwt beam="2">  1       21 0.14987280E+00 0.46311151E+03</pdfrwt>
<totfact> 0.34268362E+04</totfact>
</mgrwt>
</event>
<event>
 7    0  0.4784406E-002  0.4582426E+03  0.7546771E-02  0.1025292E+00
         21   -1    0    0  502  501  0.00000000000E+00  0.00000000000E+00  0.38266278426E+03  0.38266278426E+03  0.00000000000E+00 0.  1.
         21   -1    0    0  501  502 -0.00000000000E+00 -0.00000000000E+00 -0.13718752604E+03  0.13718752604E+03  0.00000000000E+00 0.  1.
      99926    2    1    2    0    0  0.00000000000E+00  0.14210854715E-13  0.24547525822E+03  0.51985031030E+03  0.45824255883E+03 0.  0.
      99925    2    3    3    0    0 -0.42472564949E+02  0.10537007844E+03  0.12595856984E+03  0.31287562802E+03  0.26290459313E+03 0.  0.
         25    1    4    4    0    0 -0.11563297775E+02  0.10941061938E+02  0.45942012184E+02  0.13420727728E+03  0.12509000000E+03 0.  0.
         25    1    3    3    0    0  0.42472564949E+02 -0.10537007844E+03  0.11951668838E+03  0.20697468228E+03  0.12509000000E+03 0.  0.
         25    1    4    4    0    0 -0.30909267174E+02  0.94429016505E+02  0.80016557652E+02  0.17866835073E+03  0.12509000000E+03 0.  0.
<mgrwt>
<rscale>  2 0.45824256E+03</rscale>
<asrwt>0</asrwt>
<pdfrwt beam="1">  1       21 0.56273939E-01 0.45824256E+03</pdfrwt>
<pdfrwt beam="2">  1       21 0.20174636E-01 0.45824256E+03</pdfrwt>
<totfact> 0.62279679E+04</totfact>
</mgrwt>
</event>
<event>
 7    0  0.4784406E-002  0.4564916E+03  0.7546771E-02  0.1025804E+00
         21   -1    0    0  502  501  0.00000000000E+00  0.00000000000E+00  0.46863751438E+03  0.46863751438E+03  0.00000000000E+00 0. -1.
         21   -1    0    0  501  502 -0.00000000000E+00 -0.00000000000E+00 -0.11116513690E+03  0.11116513690E+03  0.00000000000E+00 0. -1.
      99926    2    1    2    0    0 -0.17763568394E-14  0.00000000000E+00  0.35747237748E+03  0.57980265128E+03  0.45649163603E+03 0.  0.
      99925    2    3    3    0    0  0.74941505411E+01 -0.11342431283E+03  0.20626925150E+03  0.35301832546E+03  0.26297090516E+03 0.  0.
         25    1    3    3    0    0 -0.74941505411E+01  0.11342431283E+03  0.15120312598E+03  0.22678432582E+03  0.12509000000E+03 0.  0.
         25    1    4    4    0    0 -0.10071808603E+02 -0.71566756782E+02  0.63373034357E+02  0.15775579732E+03  0.12509000000E+03 0.  0.
         25    1    4    4    0    0  0.17565959144E+02 -0.41857556048E+02  0.14289621715E+03  0.19526252813E+03  0.12509000000E+03 0.  0.
<mgrwt>
<rscale>  2 0.45649164E+03</rscale>
<asrwt>0</asrwt>
<pdfrwt beam="1">  1       21 0.68917281E-01 0.45649164E+03</pdfrwt>
<pdfrwt beam="2">  1       21 0.16347814E-01 0.45649164E+03</pdfrwt>
<totfact> 0.59237357E+04</totfact>
</mgrwt>
</event>
<event>
 7    0  0.4784406E-002  0.4436144E+03  0.7546771E-02  0.1029644E+00
         21   -1    0    0  502  501  0.00000000000E+00  0.00000000000E+00  0.16783268175E+03  0.16783268175E+03  0.00000000000E+00 0.  1.
         21   -1    0    0  501  502 -0.00000000000E+00 -0.00000000000E+00 -0.29313981194E+03  0.29313981194E+03  0.00000000000E+00 0.  1.
      99926    2    1    2    0    0  0.14210854715E-13 -0.71054273576E-14 -0.12530713018E+03  0.46097249369E+03  0.44361443063E+03 0.  0.
      99925    2    3    3    0    0  0.86345245107E+02 -0.38776814238E+02 -0.11942037796E+03  0.30399700316E+03  0.26304716038E+03 0.  0.
         25    1    4    4    0    0  0.51923565917E+01 -0.29835021551E+01 -0.41069278691E+02  0.13179550677E+03  0.12509000000E+03 0.  0.
         25    1    4    4    0    0  0.81152888515E+02 -0.35793312082E+02 -0.78351099265E+02  0.17220149639E+03  0.12509000000E+03 0.  0.
         25    1    3    3    0    0 -0.86345245107E+02  0.38776814238E+02 -0.58867522267E+01  0.15697549053E+03  0.12509000000E+03 0.  0.
<mgrwt>
<rscale>  2 0.44361443E+03</rscale>
<asrwt>0</asrwt>
<pdfrwt beam="1">  1       21 0.24681277E-01 0.44361443E+03</pdfrwt>
<pdfrwt beam="2">  1       21 0.43108796E-01 0.44361443E+03</pdfrwt>
<totfact> 0.74629311E+04</totfact>
</mgrwt>
</event>
<event>
 7    0  0.4784406E-002  0.4609628E+03  0.7546771E-02  0.1024502E+00
         21   -1    0    0  502  501  0.00000000000E+00  0.00000000000E+00  0.61277897756E+03  0.61277897756E+03  0.00000000000E+00 0. -1.
         21   -1    0    0  501  502 -0.00000000000E+00 -0.00000000000E+00 -0.86689796514E+02  0.86689796514E+02  0.00000000000E+00 0. -1.
      99926    2    1    2    0    0  0.00000000000E+00  0.00000000000E+00  0.52608918105E+03  0.69946877407E+03  0.46096283960E+03 0.  0.
      99925    2    3    3    0    0  0.49898070580E+02 -0.84377075613E+02  0.42996455824E+03  0.51373574108E+03  0.26352529666E+03 0.  0.
         25    1    3    3    0    0 -0.49898070580E+02  0.84377075613E+02  0.96124622805E+02  0.18573303300E+03  0.12509000000E+03 0.  0.
         25    1    4    4    0    0  0.28046366554E+02 -0.29210167966E+02  0.13800036241E+03  0.19060808146E+03  0.12509000000E+03 0.  0.
         25    1    4    4    0    0  0.21851704027E+02 -0.55166907647E+02  0.29196419583E+03  0.32312765962E+03  0.12509000000E+03 0.  0.
<mgrwt>
<rscale>  2 0.46096284E+03</rscale>
<asrwt>0</asrwt>
<pdfrwt beam="1">  1       21 0.90114553E-01 0.46096284E+03</pdfrwt>
<pdfrwt beam="2">  1       21 0.12748500E-01 0.46096284E+03</pdfrwt>
<totfact> 0.50518984E+04</totfact>
</mgrwt>
</event>
<event>
 7    0  0.4784406E-002  0.4571440E+03  0.7546771E-02  0.1025613E+00
         21   -1    0    0  502  501  0.00000000000E+00  0.00000000000E+00  0.98281898338E+02  0.98281898338E+02  0.00000000000E+00 0.  1.
         21   -1    0    0  501  502 -0.00000000000E+00 -0.00000000000E+00 -0.53158486836E+03  0.53158486836E+03  0.00000000000E+00 0.  1.
      99926    2    1    2    0    0  0.00000000000E+00 -0.14210854715E-13 -0.43330297002E+03  0.62986676670E+03  0.45714404728E+03 0.  0.
      99925    2    3    3    0    0 -0.36940543727E+02 -0.89913707287E+02 -0.35718170685E+03  0.45410831502E+03  0.26303328978E+03 0.  0.
         25    1    4    4    0    0 -0.20623227777E+02 -0.35768655472E+01 -0.17830870165E+03  0.21881410530E+03  0.12509000000E+03 0.  0.
         25    1    3    3    0    0  0.36940543727E+02  0.89913707287E+02 -0.76121263167E+02  0.17575845167E+03  0.12509000000E+03 0.  0.
         25    1    4    4    0    0 -0.16317315951E+02 -0.86336841739E+02 -0.17887300520E+03  0.23529420973E+03  0.12509000000E+03 0.  0.
<mgrwt>
<rscale>  2 0.45714405E+03</rscale>
<asrwt>0</asrwt>
<pdfrwt beam="1">  1       21 0.14453220E-01 0.45714405E+03</pdfrwt>
<pdfrwt beam="2">  1       21 0.78174245E-01 0.45714405E+03</pdfrwt>
<totfact> 0.55923967E+04</totfact>
</mgrwt>
</event>
<event>
 7    0  0.4784406E-002  0.4529647E+03  0.7546771E-02  0.1026842E+00
         21   -1    0    0  502  501  0.00000000000E+00  0.00000000000E+00  0.18410216996E+03  0.18410216996E+03  0.00000000000E+00 0.  1.
         21   -1    0    0  501  502 -0.00000000000E+00 -0.00000000000E+00 -0.27861846979E+03  0.27861846979E+03  0.00000000000E+00 0.  1.
      99926    2    1    2    0    0  0.00000000000E+00 -0.14210854715E-13 -0.94516299831E+02  0.46272063975E+03  0.45296474423E+03 0.  0.
      99925    2    3    3    0    0  0.66627885878E+02  0.86042913347E+02 -0.35855895848E+02  0.28684793234E+03  0.26297040310E+03 0.  0.
         25    1    4    4    0    0  0.23832478126E+02  0.65702686593E+02  0.14272140661E+02  0.14400011159E+03  0.12509000000E+03 0.  0.
         25    1    3    3    0    0 -0.66627885878E+02 -0.86042913347E+02 -0.58660403983E+02  0.17587270740E+03  0.12509000000E+03 0.  0.
         25    1    4    4    0    0  0.42795407752E+02  0.20340226754E+02 -0.50128036510E+02  0.14284782075E+03  0.12509000000E+03 0.  0.
<mgrwt>
<rscale>  2 0.45296474E+03</rscale>
<asrwt>0</asrwt>
<pdfrwt beam="1">  1       21 0.27073849E-01 0.45296474E+03</pdfrwt>
<pdfrwt beam="2">  1       21 0.40973304E-01 0.45296474E+03</pdfrwt>
<totfact> 0.69090374E+04</totfact>
</mgrwt>
</event>
<event>
 7    0  0.4784406E-002  0.4567583E+03  0.7546771E-02  0.1025726E+00
         21   -1    0    0  502  501  0.00000000000E+00  0.00000000000E+00  0.12813857064E+03  0.12813857064E+03  0.00000000000E+00 0. -1.
         21   -1    0    0  501  502 -0.00000000000E+00 -0.00000000000E+00 -0.40703621029E+03  0.40703621029E+03  0.00000000000E+00 0. -1.
      99926    2    1    2    0    0  0.00000000000E+00  0.00000000000E+00 -0.27889763965E+03  0.53517478093E+03  0.45675830889E+03 0.  0.
      99925    2    3    3    0    0  0.80918619084E+02 -0.82872454745E+02 -0.16574958327E+03  0.33056379043E+03  0.26150301818E+03 0.  0.
         25    1    4    4    0    0  0.21234316734E+02 -0.10734580719E+02 -0.53200241962E+02  0.13799964230E+03  0.12509000000E+03 0.  0.
         25    1    3    3    0    0 -0.80918619084E+02  0.82872454745E+02 -0.11314805639E+03  0.20461099050E+03  0.12509000000E+03 0.  0.
         25    1    4    4    0    0  0.59684302350E+02 -0.72137874027E+02 -0.11254934131E+03  0.19256414813E+03  0.12509000000E+03 0.  0.
<mgrwt>
<rscale>  2 0.45675831E+03</rscale>
<asrwt>0</asrwt>
<pdfrwt beam="1">  1       21 0.18843908E-01 0.45675831E+03</pdfrwt>
<pdfrwt beam="2">  1       21 0.59858266E-01 0.45675831E+03</pdfrwt>
<totfact> 0.61989185E+04</totfact>
</mgrwt>
</event>
<event>
 7    0  0.4784406E-002  0.4367835E+03  0.7546771E-02  0.1031738E+00
         21   -1    0    0  502  501  0.00000000000E+00  0.00000000000E+00  0.56884859932E+02  0.56884859932E+02  0.00000000000E+00 0.  1.
         21   -1    0    0  501  502 -0.00000000000E+00 -0.00000000000E+00 -0.83844739004E+03  0.83844739004E+03  0.00000000000E+00 0.  1.
      99926    2    1    2    0    0  0.00000000000E+00 -0.35527136788E-14 -0.78156253010E+03  0.89533224997E+03  0.43678352690E+03 0.  0.
      99925    2    3    3    0    0 -0.73738623112E+01 -0.21989221189E+02 -0.31129057801E+03  0.40815557081E+03  0.26296624561E+03 0.  0.
         25    1    4    4    0    0  0.66260860997E+01  0.22089748541E+02 -0.18480436794E+03  0.22434799870E+03  0.12509000000E+03 0.  0.
         25    1    4    4    0    0 -0.13999948411E+02 -0.44078969731E+02 -0.12648621007E+03  0.18380757211E+03  0.12509000000E+03 0.  0.
         25    1    3    3    0    0  0.73738623112E+01  0.21989221189E+02 -0.47027195209E+03  0.48717667916E+03  0.12509000000E+03 0.  0.
<mgrwt>
<rscale>  2 0.43678353E+03</rscale>
<asrwt>0</asrwt>
<pdfrwt beam="1">  1       21 0.83654208E-02 0.43678353E+03</pdfrwt>
<pdfrwt beam="2">  1       21 0.12330108E+00 0.43678353E+03</pdfrwt>
<totfact> 0.50222770E+04</totfact>
</mgrwt>
</event>
<event>
 7    0  0.4784406E-002  0.4553146E+03  0.7546771E-02  0.1026149E+00
         21   -1    0    0  502  501  0.00000000000E+00  0.00000000000E+00  0.40802105572E+02  0.40802105572E+02  0.00000000000E+00 0. -1.
         21   -1    0    0  501  502 -0.00000000000E+00 -0.00000000000E+00 -0.12702245903E+04  0.12702245903E+04  0.00000000000E+00 0. -1.
      99926    2    1    2    0    0  0.00000000000E+00  0.00000000000E+00 -0.12294224847E+04  0.13110266959E+04  0.45531456306E+03 0.  0.
      99925    2    3    3    0    0 -0.43418909311E+01 -0.10294827566E+03 -0.91034612612E+03  0.95315181522E+03  0.26296599406E+03 0.  0.
         25    1    4    4    0    0 -0.52860053634E+01 -0.73198500884E+02 -0.59882807857E+03  0.61614003130E+03  0.12509000000E+03 0.  0.
         25    1    3    3    0    0  0.43418909311E+01  0.10294827566E+03 -0.31907635859E+03  0.35787488063E+03  0.12509000000E+03 0.  0.
         25    1    4    4    0    0  0.94411443234E+00 -0.29749774781E+02 -0.31151804755E+03  0.33701178392E+03  0.12509000000E+03 0.  0.
<mgrwt>
<rscale>  2 0.45531456E+03</rscale>
<asrwt>0</asrwt>
<pdfrwt beam="1">  1       21 0.60003091E-02 0.45531456E+03</pdfrwt>
<pdfrwt beam="2">  1       21 0.18679775E+00 0.45531456E+03</pdfrwt>
<totfact> 0.28725784E+04</totfact>
</mgrwt>
</event>
<event>
 7    0  0.4784406E-002  0.4519240E+03  0.7546771E-02  0.1027150E+00
         21   -1    0    0  502  501  0.00000000000E+00  0.00000000000E+00  0.29365678963E+03  0.29365678963E+03  0.00000000000E+00 0. -1.
         21   -1    0    0  501  502 -0.00000000000E+00 -0.00000000000E+00 -0.17387245116E+03  0.17387245116E+03  0.00000000000E+00 0. -1.
      99926    2    1    2    0    0  0.00000000000E+00  0.00000000000E+00  0.11978433848E+03  0.46752924079E+03  0.45192400163E+03 0.  0.
      99925    2    3    3    0    0  0.22294967867E+01  0.32974539612E+02 -0.33232027961E+02  0.26714509117E+03  0.26300159912E+03 0.  0.
         25    1    4    4    0    0 -0.24948245021E+02 -0.23656133610E+01  0.87357423129E+01  0.12787428338E+03  0.12509000000E+03 0.  0.
         25    1    4    4    0    0  0.27177741807E+02  0.35340152973E+02 -0.41967770274E+02  0.13927080779E+03  0.12509000000E+03 0.  0.
         25    1    3    3    0    0 -0.22294967867E+01 -0.32974539612E+02  0.15301636644E+03  0.20038414961E+03  0.12509000000E+03 0.  0.
<mgrwt>
<rscale>  2 0.45192400E+03</rscale>
<asrwt>0</asrwt>
<pdfrwt beam="1">  1       21 0.43184822E-01 0.45192400E+03</pdfrwt>
<pdfrwt beam="2">  1       21 0.25569478E-01 0.45192400E+03</pdfrwt>
<totfact> 0.69295479E+04</totfact>
</mgrwt>
</event>
<event>
 7    0  0.4784406E-002  0.4154135E+03  0.7546771E-02  0.1038569E+00
         21   -1    0    0  502  501  0.00000000000E+00  0.00000000000E+00  0.19149017531E+03  0.19149017531E+03  0.00000000000E+00 0.  1.
         21   -1    0    0  501  502 -0.00000000000E+00 -0.00000000000E+00 -0.22529667158E+03  0.22529667158E+03  0.00000000000E+00 0.  1.
      99926    2    1    2    0    0  0.00000000000E+00  0.00000000000E+00 -0.33806496267E+02  0.41678684689E+03  0.41541352475E+03 0.  0.
      99925    2    3    3    0    0 -0.60995621775E+02 -0.33427664413E+02 -0.16026072245E+02  0.27255950481E+03  0.26304747489E+03 0.  0.
         25    1    3    3    0    0  0.60995621775E+02  0.33427664413E+02 -0.17780424021E+02  0.14422734208E+03  0.12509000000E+03 0.  0.
         25    1    4    4    0    0 -0.27151946926E+02  0.38034628096E+01 -0.42945799302E+02  0.13506866524E+03  0.12509000000E+03 0.  0.
         25    1    4    4    0    0 -0.33843674850E+02 -0.37231127223E+02  0.26919727057E+02  0.13749083957E+03  0.12509000000E+03 0.  0.
<mgrwt>
<rscale>  2 0.41541352E+03</rscale>
<asrwt>0</asrwt>
<pdfrwt beam="1">  1       21 0.28160320E-01 0.41541352E+03</pdfrwt>
<pdfrwt beam="2">  1       21 0.33131863E-01 0.41541352E+03</pdfrwt>
<totfact> 0.99286000E+04</totfact>
</mgrwt>
</event>
<event>
 6    0  0.4784406E-002  0.6753770E+03  0.7546771E-02  0.9760293E-01
         21   -1    0    0  502  501  0.00000000000E+00  0.00000000000E+00  0.26486326848E+03  0.26486326848E+03  0.00000000000E+00 0.  1.
         21   -1    0    0  501  502 -0.00000000000E+00 -0.00000000000E+00 -0.43053730579E+03  0.43053730579E+03  0.00000000000E+00 0.  1.
      99925    2    1    2    0    0 -0.90583581706E+02  0.20288177960E+03 -0.25154057950E+03  0.42635230177E+03  0.26293957541E+03 0.  0.
         25    1    3    3    0    0 -0.58061732253E+02  0.12309789511E+03 -0.18159679044E+03  0.25913154754E+03  0.12509000000E+03 0.  0.
         25    1    3    3    0    0 -0.32521849453E+02  0.79783884490E+02 -0.69943789058E+02  0.16722075423E+03  0.12509000000E+03 0.  0.
         25    1    1    2    0    0  0.90583581706E+02 -0.20288177960E+03  0.85866542190E+02  0.26904827250E+03  0.12509000000E+03 0.  0.
<mgrwt>
<rscale>  2 0.67537699E+03</rscale>
<asrwt>0</asrwt>
<pdfrwt beam="1">  1       21 0.38950481E-01 0.67537699E+03</pdfrwt>
<pdfrwt beam="2">  1       21 0.63314310E-01 0.67537699E+03</pdfrwt>
<totfact> 0.12504333E+04</totfact>
</mgrwt>
</event>
<event>
 7    0  0.4784406E-002  0.4570844E+03  0.7546771E-02  0.1025630E+00
         21   -1    0    0  502  501  0.00000000000E+00  0.00000000000E+00  0.13101634107E+03  0.13101634107E+03  0.00000000000E+00 0. -1.
         21   -1    0    0  501  502 -0.00000000000E+00 -0.00000000000E+00 -0.39866429025E+03  0.39866429025E+03  0.00000000000E+00 0. -1.
      99926    2    1    2    0    0  0.00000000000E+00  0.00000000000E+00 -0.26764794918E+03  0.52968063132E+03  0.45708439756E+03 0.  0.
      99925    2    3    3    0    0 -0.73475775989E+02  0.49244865528E+02 -0.25353586031E+03  0.37582873633E+03  0.26295068008E+03 0.  0.
         25    1    3    3    0    0  0.73475775989E+02 -0.49244865528E+02 -0.14112088879E+02  0.15385189499E+03  0.12509000000E+03 0.  0.
         25    1    4    4    0    0 -0.42309851848E+02 -0.13809449902E+02 -0.13895242139E+03  0.19218768946E+03  0.12509000000E+03 0.  0.
         25    1    4    4    0    0 -0.31165924142E+02  0.63054315430E+02 -0.11458343892E+03  0.18364104687E+03  0.12509000000E+03 0.  0.
<mgrwt>
<rscale>  2 0.45708440E+03</rscale>
<asrwt>0</asrwt>
<pdfrwt beam="1">  1       21 0.19267109E-01 0.45708440E+03</pdfrwt>
<pdfrwt beam="2">  1       21 0.58627102E-01 0.45708440E+03</pdfrwt>
<totfact> 0.62194237E+04</totfact>
</mgrwt>
</event>
<event>
 7    0  0.4784406E-002  0.4512098E+03  0.7546771E-02  0.1027362E+00
         21   -1    0    0  502  501  0.00000000000E+00  0.00000000000E+00  0.17324336218E+03  0.17324336218E+03  0.00000000000E+00 0.  1.
         21   -1    0    0  501  502 -0.00000000000E+00 -0.00000000000E+00 -0.29379235030E+03  0.29379235030E+03  0.00000000000E+00 0.  1.
      99926    2    1    2    0    0 -0.88817841970E-15  0.00000000000E+00 -0.12054898812E+03  0.46703571247E+03  0.45120981615E+03 0.  0.
      99925    2    3    3    0    0 -0.78923525977E+01  0.97268137158E+02 -0.12769493955E+03  0.30822150512E+03  0.26300402829E+03 0.  0.
         25    1    3    3    0    0  0.78923525977E+01 -0.97268137158E+02  0.71459514305E+01  0.15881420735E+03  0.12509000000E+03 0.  0.
         25    1    4    4    0    0  0.16744274167E+02  0.11227284596E+02 -0.56299029490E+02  0.13864887832E+03  0.12509000000E+03 0.  0.
         25    1    4    4    0    0 -0.24636626764E+02  0.86040852562E+02 -0.71395910061E+02  0.16957262680E+03  0.12509000000E+03 0.  0.
<mgrwt>
<rscale>  2 0.45120982E+03</rscale>
<asrwt>0</asrwt>
<pdfrwt beam="1">  1       21 0.25476965E-01 0.45120982E+03</pdfrwt>
<pdfrwt beam="2">  1       21 0.43204757E-01 0.45120982E+03</pdfrwt>
<totfact> 0.69729956E+04</totfact>
</mgrwt>
</event>
<event>
 7    0  0.4784406E-002  0.4514777E+03  0.7546771E-02  0.1027282E+00
         21   -1    0    0  502  501  0.00000000000E+00  0.00000000000E+00  0.21154259785E+03  0.21154259785E+03  0.00000000000E+00 0. -1.
         21   -1    0    0  501  502 -0.00000000000E+00 -0.00000000000E+00 -0.24088776760E+03  0.24088776760E+03  0.00000000000E+00 0. -1.
      99926    2    1    2    0    0  0.00000000000E+00  0.00000000000E+00 -0.29345169753E+02  0.45243036545E+03  0.45147768116E+03 0.  0.
      99925    2    3    3    0    0  0.57259785992E+02 -0.71595329462E+02  0.42096769058E+02  0.28167898767E+03  0.26299494260E+03 0.  0.
         25    1    3    3    0    0 -0.57259785992E+02  0.71595329462E+02 -0.71441938811E+02  0.17075137778E+03  0.12509000000E+03 0.  0.
         25    1    4    4    0    0  0.98128154197E+01 -0.34709091519E+01 -0.84919299737E+00  0.12552516794E+03  0.12509000000E+03 0.  0.
         25    1    4    4    0    0  0.47446970572E+02 -0.68124420311E+02  0.42945962055E+02  0.15615381973E+03  0.12509000000E+03 0.  0.
<mgrwt>
<rscale>  2 0.45147768E+03</rscale>
<asrwt>0</asrwt>
<pdfrwt beam="1">  1       21 0.31109206E-01 0.45147768E+03</pdfrwt>
<pdfrwt beam="2">  1       21 0.35424671E-01 0.45147768E+03</pdfrwt>
<totfact> 0.70700654E+04</totfact>
</mgrwt>
</event>
<event>
 7    0  0.4784406E-002  0.4345232E+03  0.7546771E-02  0.1032441E+00
         21   -1    0    0  502  501  0.00000000000E+00  0.00000000000E+00  0.48584968152E+02  0.48584968152E+02  0.00000000000E+00 0. -1.
         21   -1    0    0  501  502 -0.00000000000E+00 -0.00000000000E+00 -0.97154758801E+03  0.97154758801E+03  0.00000000000E+00 0. -1.
      99926    2    1    2    0    0  0.14210854715E-13  0.00000000000E+00 -0.92296261986E+03  0.10201325562E+04  0.43452322664E+03 0.  0.
      99925    2    3    3    0    0  0.76732052671E+02 -0.64471383627E+01 -0.71357655643E+03  0.76436038184E+03  0.26291808219E+03 0.  0.
         25    1    4    4    0    0  0.68736876747E+02  0.19120317023E+02 -0.33122159310E+03  0.36117253022E+03  0.12509000000E+03 0.  0.
         25    1    3    3    0    0 -0.76732052671E+02  0.64471383627E+01 -0.20938606343E+03  0.25577217433E+03  0.12509000000E+03 0.  0.
         25    1    4    4    0    0  0.79951759244E+01 -0.25567455385E+02 -0.38235496333E+03  0.40318785162E+03  0.12509000000E+03 0.  0.
<mgrwt>
<rscale>  2 0.43452323E+03</rscale>
<asrwt>0</asrwt>
<pdfrwt beam="1">  1       21 0.71448488E-02 0.43452323E+03</pdfrwt>
<pdfrwt beam="2">  1       21 0.14287464E+00 0.43452323E+03</pdfrwt>
<totfact> 0.45197916E+04</totfact>
</mgrwt>
</event>
<event>
 7    0  0.4784406E-002  0.4513539E+03  0.7546771E-02  0.1027319E+00
         21   -1    0    0  502  501  0.00000000000E+00  0.00000000000E+00  0.42059406293E+03  0.42059406293E+03  0.00000000000E+00 0.  1.
         21   -1    0    0  501  502 -0.00000000000E+00 -0.00000000000E+00 -0.12109085718E+03  0.12109085718E+03  0.00000000000E+00 0.  1.
      99926    2    1    2    0    0 -0.35527136788E-14  0.00000000000E+00  0.29950320575E+03  0.54168492012E+03  0.45135394363E+03 0.  0.
      99925    2    3    3    0    0 -0.19273414352E+02  0.92094763680E+02  0.25670086070E+03  0.37941212868E+03  0.26306904324E+03 0.  0.
         25    1    4    4    0    0 -0.18425342144E+02  0.80329937584E+02  0.17093684937E+03  0.22728683789E+03  0.12509000000E+03 0.  0.
         25    1    4    4    0    0 -0.84807220832E+00  0.11764826096E+02  0.85764011330E+02  0.15212529079E+03  0.12509000000E+03 0.  0.
         25    1    3    3    0    0  0.19273414352E+02 -0.92094763680E+02  0.42802345054E+02  0.16227279144E+03  0.12509000000E+03 0.  0.
<mgrwt>
<rscale>  2 0.45135394E+03</rscale>
<asrwt>0</asrwt>
<pdfrwt beam="1">  1       21 0.61852068E-01 0.45135394E+03</pdfrwt>
<pdfrwt beam="2">  1       21 0.17807479E-01 0.45135394E+03</pdfrwt>
<totfact> 0.64253284E+04</totfact>
</mgrwt>
</event>
<event>
 7    0  0.4784406E-002  0.4558222E+03  0.7546771E-02  0.1026000E+00
         21   -1    0    0  502  501  0.00000000000E+00  0.00000000000E+00  0.96771019618E+02  0.96771019618E+02  0.00000000000E+00 0.  1.
         21   -1    0    0  501  502 -0.00000000000E+00 -0.00000000000E+00 -0.53676676669E+03  0.53676676669E+03  0.00000000000E+00 0.  1.
      99926    2    1    2    0    0  0.00000000000E+00  0.00000000000E+00 -0.43999574707E+03  0.63353778631E+03  0.45582219038E+03 0.  0.
      99925    2    3    3    0    0 -0.81241318803E+02 -0.74347199078E+02 -0.23240751995E+03  0.36732727181E+03  0.26227544946E+03 0.  0.
         25    1    4    4    0    0 -0.43709103176E+02 -0.31411800468E+02 -0.65560546582E+02  0.15113861279E+03  0.12509000000E+03 0.  0.
         25    1    4    4    0    0 -0.37532215627E+02 -0.42935398610E+02 -0.16684697337E+03  0.21618865901E+03  0.12509000000E+03 0.  0.
         25    1    3    3    0    0  0.81241318803E+02  0.74347199078E+02 -0.20758822712E+03  0.26621051450E+03  0.12509000000E+03 0.  0.
<mgrwt>
<rscale>  2 0.45582219E+03</rscale>
<asrwt>0</asrwt>
<pdfrwt beam="1">  1       21 0.14231032E-01 0.45582219E+03</pdfrwt>
<pdfrwt beam="2">  1       21 0.78936289E-01 0.45582219E+03</pdfrwt>
<totfact> 0.56293765E+04</totfact>
</mgrwt>
</event>
<event>
 7    0  0.4784406E-002  0.4515361E+03  0.7546771E-02  0.1027265E+00
         21   -1    0    0  502  501  0.00000000000E+00  0.00000000000E+00  0.62418767026E+03  0.62418767026E+03  0.00000000000E+00 0.  1.
         21   -1    0    0  501  502 -0.00000000000E+00 -0.00000000000E+00 -0.81660092914E+02  0.81660092914E+02  0.00000000000E+00 0.  1.
      99926    2    1    2    0    0  0.14210854715E-13  0.00000000000E+00  0.54252757735E+03  0.70584776317E+03  0.45153614761E+03 0.  0.
      99925    2    3    3    0    0  0.10442954460E+03  0.33312328952E+02  0.33337447577E+03  0.43862544179E+03  0.26313208859E+03 0.  0.
         25    1    4    4    0    0  0.61579876031E+02  0.11462656260E+02  0.10930308616E+03  0.17753350772E+03  0.12509000000E+03 0.  0.
         25    1    4    4    0    0  0.42849668572E+02  0.21849672692E+02  0.22407138961E+03  0.26109193407E+03  0.12509000000E+03 0.  0.
         25    1    3    3    0    0 -0.10442954460E+03 -0.33312328952E+02  0.20915310158E+03  0.26722232139E+03  0.12509000000E+03 0.  0.
<mgrwt>
<rscale>  2 0.45153615E+03</rscale>
<asrwt>0</asrwt>
<pdfrwt beam="1">  1       21 0.91792302E-01 0.45153615E+03</pdfrwt>
<pdfrwt beam="2">  1       21 0.12008837E-01 0.45153615E+03</pdfrwt>
<totfact> 0.54044617E+04</totfact>
</mgrwt>
</event>
<event>
 7    0  0.4784406E-002  0.4511075E+03  0.7546771E-02  0.1027392E+00
         21   -1    0    0  502  501  0.00000000000E+00  0.00000000000E+00  0.46565148461E+03  0.46565148461E+03  0.00000000000E+00 0. -1.
         21   -1    0    0  501  502 -0.00000000000E+00 -0.00000000000E+00 -0.10925442674E+03  0.10925442674E+03  0.00000000000E+00 0. -1.
      99926    2    1    2    0    0  0.00000000000E+00  0.00000000000E+00  0.35639705787E+03  0.57490591135E+03  0.45110746397E+03 0.  0.
      99925    2    3    3    0    0 -0.93487552081E+02  0.38329786468E+02  0.17194018823E+03  0.33020008841E+03  0.26317213973E+03 0.  0.
         25    1    4    4    0    0 -0.43237043070E+02  0.46584468864E+02  0.12286611118E+03  0.18650239679E+03  0.12509000000E+03 0.  0.
         25    1    4    4    0    0 -0.50250509010E+02 -0.82546823957E+01  0.49074077044E+02  0.14369769161E+03  0.12509000000E+03 0.  0.
         25    1    3    3    0    0  0.93487552081E+02 -0.38329786468E+02  0.18445686964E+03  0.24470582295E+03  0.12509000000E+03 0.  0.
<mgrwt>
<rscale>  2 0.45110746E+03</rscale>
<asrwt>0</asrwt>
<pdfrwt beam="1">  1       21 0.68478158E-01 0.45110746E+03</pdfrwt>
<pdfrwt beam="2">  1       21 0.16066828E-01 0.45110746E+03</pdfrwt>
<totfact> 0.62140628E+04</totfact>
</mgrwt>
</event>
<event>
 7    0  0.4784406E-002  0.4573799E+03  0.7546771E-02  0.1025544E+00
         21   -1    0    0  502  501  0.00000000000E+00  0.00000000000E+00  0.64937144427E+03  0.64937144427E+03  0.00000000000E+00 0. -1.
         21   -1    0    0  501  502 -0.00000000000E+00 -0.00000000000E+00 -0.80538031926E+02  0.80538031926E+02  0.00000000000E+00 0. -1.
      99926    2    1    2    0    0  0.71054273576E-14  0.00000000000E+00  0.56883341235E+03  0.72990947620E+03  0.45737992134E+03 0.  0.
      99925    2    3    3    0    0  0.44490046641E+02  0.95026111171E+02  0.28156863633E+03  0.39948870552E+03  0.26325083631E+03 0.  0.
         25    1    4    4    0    0  0.80168737423E+01  0.31024285343E+02  0.82960002033E+02  0.15348174674E+03  0.12509000000E+03 0.  0.
         25    1    4    4    0    0  0.36473172899E+02  0.64001825828E+02  0.19860863429E+03  0.24600695878E+03  0.12509000000E+03 0.  0.
         25    1    3    3    0    0 -0.44490046641E+02 -0.95026111171E+02  0.28726477602E+03  0.33042077068E+03  0.12509000000E+03 0.  0.
<mgrwt>
<rscale>  2 0.45737992E+03</rscale>
<asrwt>0</asrwt>
<pdfrwt beam="1">  1       21 0.95495798E-01 0.45737992E+03</pdfrwt>
<pdfrwt beam="2">  1       21 0.11843829E-01 0.45737992E+03</pdfrwt>
<totfact> 0.50359898E+04</totfact>
</mgrwt>
</event>
<event>
 6    0  0.4784406E-002  0.4615384E+03  0.7546771E-02  0.1024336E+00
         21   -1    0    0  502  501  0.00000000000E+00  0.00000000000E+00  0.30328729550E+03  0.30328729550E+03  0.00000000000E+00 0.  1.
         21   -1    0    0  501  502 -0.00000000000E+00 -0.00000000000E+00 -0.17559068354E+03  0.17559068354E+03  0.00000000000E+00 0.  1.
      99926    2    1    2    0    0  0.00000000000E+00  0.00000000000E+00  0.12769661197E+03  0.47887797904E+03  0.46153839938E+03 0.  0.
         25    1    3    3    0    0  0.35895386471E+02  0.46201862572E+02  0.10062612516E+03  0.17086900257E+03  0.12509000000E+03 0.  0.
         25    1    3    3    0    0 -0.46341185809E+02  0.42853270068E+02  0.56922226731E+02  0.15123344952E+03  0.12509000000E+03 0.  0.
         25    1    3    3    0    0  0.10445799338E+02 -0.89055132639E+02 -0.29851739924E+02  0.15677552695E+03  0.12509000000E+03 0.  0.
<mgrwt>
<rscale>  2 0.46153840E+03</rscale>
<asrwt>0</asrwt>
<pdfrwt beam="1">  1       21 0.44601073E-01 0.46153840E+03</pdfrwt>
<pdfrwt beam="2">  1       21 0.25822159E-01 0.46153840E+03</pdfrwt>
<totfact> 0.63426402E+04</totfact>
</mgrwt>
</event>
<event>
 7    0  0.4784406E-002  0.4614321E+03  0.7546771E-02  0.1024367E+00
         21   -1    0    0  502  501  0.00000000000E+00  0.00000000000E+00  0.33061347643E+03  0.33061347643E+03  0.00000000000E+00 0.  1.
         21   -1    0    0  501  502 -0.00000000000E+00 -0.00000000000E+00 -0.16100341319E+03  0.16100341319E+03  0.00000000000E+00 0.  1.
      99926    2    1    2    0    0  0.00000000000E+00  0.00000000000E+00  0.16961006324E+03  0.49161688961E+03  0.46143211050E+03 0.  0.
      99925    2    3    3    0    0 -0.72112600407E+02 -0.47955297511E+02  0.19323887392E+03  0.33765011888E+03  0.26299506210E+03 0.  0.
         25    1    3    3    0    0  0.72112600407E+02  0.47955297511E+02 -0.23628810673E+02  0.15396677074E+03  0.12509000000E+03 0.  0.
         25    1    4    4    0    0 -0.14357133988E+02 -0.24288447420E+02  0.13503466066E+03  0.18622009466E+03  0.12509000000E+03 0.  0.
         25    1    4    4    0    0 -0.57755466419E+02 -0.23666850091E+02  0.58204213251E+02  0.15143002422E+03  0.12509000000E+03 0.  0.
<mgrwt>
<rscale>  2 0.46143211E+03</rscale>
<asrwt>0</asrwt>
<pdfrwt beam="1">  1       21 0.48619629E-01 0.46143211E+03</pdfrwt>
<pdfrwt beam="2">  1       21 0.23676972E-01 0.46143211E+03</pdfrwt>
<totfact> 0.62605374E+04</totfact>
</mgrwt>
</event>
<event>
 6    0  0.4784406E-002  0.4501916E+03  0.7546771E-02  0.1027665E+00
         21   -1    0    0  502  501  0.00000000000E+00  0.00000000000E+00  0.32944180616E+02  0.32944180616E+02  0.00000000000E+00 0.  1.
         21   -1    0    0  501  502 -0.00000000000E+00 -0.00000000000E+00 -0.15379988953E+04  0.15379988953E+04  0.00000000000E+00 0.  1.
      99926    2    1    2    0    0  0.00000000000E+00  0.00000000000E+00 -0.15050547147E+04  0.15709430759E+04  0.45019157431E+03 0.  0.
         25    1    3    3    0    0 -0.41745038295E+01 -0.13236527580E+02 -0.34489733130E+03  0.36714344524E+03  0.12509000000E+03 0.  0.
         25    1    3    3    0    0  0.77448789196E+02  0.61513947841E+02 -0.73272044667E+03  0.74987268372E+03  0.12509000000E+03 0.  0.
         25    1    3    3    0    0 -0.73274285367E+02 -0.48277420261E+02 -0.42743693673E+03  0.45392694697E+03  0.12509000000E+03 0.  0.
<mgrwt>
<rscale>  2 0.45019157E+03</rscale>
<asrwt>0</asrwt>
<pdfrwt beam="1">  1       21 0.48447318E-02 0.45019157E+03</pdfrwt>
<pdfrwt beam="2">  1       21 0.22617634E+00 0.45019157E+03</pdfrwt>
<totfact> 0.22937418E+04</totfact>
</mgrwt>
</event>
<event>
 7    0  0.4784406E-002  0.4586943E+03  0.7546771E-02  0.1025161E+00
         21   -1    0    0  502  501  0.00000000000E+00  0.00000000000E+00  0.42411319047E+02  0.42411319047E+02  0.00000000000E+00 0.  1.
         21   -1    0    0  501  502 -0.00000000000E+00 -0.00000000000E+00 -0.12402378286E+04  0.12402378286E+04  0.00000000000E+00 0.  1.
      99926    2    1    2    0    0  0.14210854715E-13  0.00000000000E+00 -0.11978265095E+04  0.12826491476E+04  0.45869433064E+03 0.  0.
      99925    2    3    3    0    0  0.75532868615E+02 -0.50910119201E+02 -0.95479223119E+03  0.99453420003E+03  0.26300763451E+03 0.  0.
         25    1    4    4    0    0  0.45855685078E+01 -0.42682607166E+00 -0.39456739838E+03  0.41394703717E+03  0.12509000000E+03 0.  0.
         25    1    4    4    0    0  0.70947300107E+02 -0.50483293129E+02 -0.56022483281E+03  0.58058716286E+03  0.12509000000E+03 0.  0.
         25    1    3    3    0    0 -0.75532868615E+02  0.50910119201E+02 -0.24303427833E+03  0.28811494759E+03  0.12509000000E+03 0.  0.
<mgrwt>
<rscale>  2 0.45869433E+03</rscale>
<asrwt>0</asrwt>
<pdfrwt beam="1">  1       21 0.62369589E-02 0.45869433E+03</pdfrwt>
<pdfrwt beam="2">  1       21 0.18238791E+00 0.45869433E+03</pdfrwt>
<totfact> 0.28786357E+04</totfact>
</mgrwt>
</event>
<event>
 7    0  0.4784406E-002  0.4561964E+03  0.7546771E-02  0.1025890E+00
         21   -1    0    0  502  501  0.00000000000E+00  0.00000000000E+00  0.43951668335E+03  0.43951668335E+03  0.00000000000E+00 0.  1.
         21   -1    0    0  501  502 -0.00000000000E+00 -0.00000000000E+00 -0.11837729103E+03  0.11837729103E+03  0.00000000000E+00 0.  1.
      99926    2    1    2    0    0 -0.71054273576E-14  0.00000000000E+00  0.32113939232E+03  0.55789397438E+03  0.45619642409E+03 0.  0.
      99925    2    3    3    0    0  0.19554419126E+02  0.94835621799E+02  0.12882637777E+03  0.30887997049E+03  0.26350413676E+03 0.  0.
         25    1    3    3    0    0 -0.19554419126E+02 -0.94835621799E+02  0.19231301455E+03  0.24901400389E+03  0.12509000000E+03 0.  0.
         25    1    4    4    0    0 -0.17666290406E+02  0.29044864491E+02  0.89511670693E+02  0.15752951870E+03  0.12509000000E+03 0.  0.
         25    1    4    4    0    0  0.37220709532E+02  0.65790757308E+02  0.39314707078E+02  0.15135045179E+03  0.12509000000E+03 0.  0.
<mgrwt>
<rscale>  2 0.45619642E+03</rscale>
<asrwt>0</asrwt>
<pdfrwt beam="1">  1       21 0.64634806E-01 0.45619642E+03</pdfrwt>
<pdfrwt beam="2">  1       21 0.17408425E-01 0.45619642E+03</pdfrwt>
<totfact> 0.60770681E+04</totfact>
</mgrwt>
</event>
<event>
 7    0  0.4784406E-002  0.4622278E+03  0.7546771E-02  0.1024137E+00
         21   -1    0    0  502  501  0.00000000000E+00  0.00000000000E+00  0.38794017479E+03  0.38794017479E+03  0.00000000000E+00 0.  1.
         21   -1    0    0  501  502 -0.00000000000E+00 -0.00000000000E+00 -0.13768521752E+03  0.13768521752E+03  0.00000000000E+00 0.  1.
      99926    2    1    2    0    0  0.00000000000E+00  0.00000000000E+00  0.25025495727E+03  0.52562539231E+03  0.46222776788E+03 0.  0.
      99925    2    3    3    0    0  0.31138966707E+02  0.10535800571E+03  0.21053584308E+03  0.35446739294E+03  0.26315745633E+03 0.  0.
         25    1    3    3    0    0 -0.31138966707E+02 -0.10535800571E+03  0.39719114197E+02  0.17115799937E+03  0.12509000000E+03 0.  0.
         25    1    4    4    0    0  0.56355772553E+02  0.49228694343E+02  0.10716157241E+03  0.18091585931E+03  0.12509000000E+03 0.  0.
         25    1    4    4    0    0 -0.25216805846E+02  0.56129311372E+02  0.10337427066E+03  0.17355153364E+03  0.12509000000E+03 0.  0.
<mgrwt>
<rscale>  2 0.46222777E+03</rscale>
<asrwt>0</asrwt>
<pdfrwt beam="1">  1       21 0.57050025E-01 0.46222777E+03</pdfrwt>
<pdfrwt beam="2">  1       21 0.20247826E-01 0.46222777E+03</pdfrwt>
<totfact> 0.59991096E+04</totfact>
</mgrwt>
</event>
<event>
 7    0  0.4784406E-002  0.4531684E+03  0.7546771E-02  0.1026781E+00
         21   -1    0    0  502  501  0.00000000000E+00  0.00000000000E+00  0.87059512030E+02  0.87059512030E+02  0.00000000000E+00 0. -1.
         21   -1    0    0  501  502 -0.00000000000E+00 -0.00000000000E+00 -0.58971623585E+03  0.58971623585E+03  0.00000000000E+00 0. -1.
      99926    2    1    2    0    0  0.44408920985E-14  0.00000000000E+00 -0.50265672382E+03  0.67677574788E+03  0.45316843548E+03 0.  0.
      99925    2    3    3    0    0  0.58608544047E+01  0.10428844016E+03 -0.37467906898E+03  0.46956518685E+03  0.26305252631E+03 0.  0.
         25    1    4    4    0    0 -0.33220494196E+02  0.38062002070E+02 -0.20184323028E+03  0.24277667710E+03  0.12509000000E+03 0.  0.
         25    1    3    3    0    0 -0.58608544047E+01 -0.10428844016E+03 -0.12797765484E+03  0.20721056104E+03  0.12509000000E+03 0.  0.
         25    1    4    4    0    0  0.39081348601E+02  0.66226438094E+02 -0.17283583870E+03  0.22678850974E+03  0.12509000000E+03 0.  0.
<mgrwt>
<rscale>  2 0.45316844E+03</rscale>
<asrwt>0</asrwt>
<pdfrwt beam="1">  1       21 0.12802870E-01 0.45316844E+03</pdfrwt>
<pdfrwt beam="2">  1       21 0.86722975E-01 0.45316844E+03</pdfrwt>
<totfact> 0.54971288E+04</totfact>
</mgrwt>
</event>
<event>
 7    0  0.4784406E-002  0.4521791E+03  0.7546771E-02  0.1027074E+00
         21   -1    0    0  502  501  0.00000000000E+00  0.00000000000E+00  0.27805128533E+03  0.27805128533E+03  0.00000000000E+00 0. -1.
         21   -1    0    0  501  502 -0.00000000000E+00 -0.00000000000E+00 -0.18383836266E+03  0.18383836266E+03  0.00000000000E+00 0. -1.
      99926    2    1    2    0    0  0.35527136788E-14  0.71054273576E-14  0.94212922666E+02  0.46188964799E+03  0.45217913720E+03 0.  0.
      99925    2    3    3    0    0  0.24087355346E+02  0.63886068202E+02 -0.29249290811E+02  0.27333711776E+03  0.26305138003E+03 0.  0.
         25    1    4    4    0    0  0.48430275206E+02  0.14867683678E+02 -0.84575386650E+01  0.13522417548E+03  0.12509000000E+03 0.  0.
         25    1    3    3    0    0 -0.24087355346E+02 -0.63886068202E+02  0.12346221348E+03  0.18855253023E+03  0.12509000000E+03 0.  0.
         25    1    4    4    0    0 -0.24342919860E+02  0.49018384524E+02 -0.20791752146E+02  0.13811294228E+03  0.12509000000E+03 0.  0.
<mgrwt>
<rscale>  2 0.45217914E+03</rscale>
<asrwt>0</asrwt>
<pdfrwt beam="1">  1       21 0.40889895E-01 0.45217914E+03</pdfrwt>
<pdfrwt beam="2">  1       21 0.27035053E-01 0.45217914E+03</pdfrwt>
<totfact> 0.69588517E+04</totfact>
</mgrwt>
</event>
<event>
 7    0  0.4784406E-002  0.4596688E+03  0.7546771E-02  0.1024877E+00
         21   -1    0    0  502  501  0.00000000000E+00  0.00000000000E+00  0.65335580000E+03  0.65335580000E+03  0.00000000000E+00 0. -1.
         21   -1    0    0  501  502 -0.00000000000E+00 -0.00000000000E+00 -0.80850066453E+02  0.80850066453E+02  0.00000000000E+00 0. -1.
      99926    2    1    2    0    0 -0.17763568394E-14  0.00000000000E+00  0.57250573355E+03  0.73420586646E+03  0.45966883665E+03 0.  0.
      99925    2    3    3    0    0 -0.13131551721E+02  0.11084275592E+03  0.30109059812E+03  0.41518825247E+03  0.26318659260E+03 0.  0.
         25    1    3    3    0    0  0.13131551721E+02 -0.11084275592E+03  0.27141513543E+03  0.31901761398E+03  0.12509000000E+03 0.  0.
         25    1    4    4    0    0  0.29321215177E+02  0.51031029671E+02  0.11895344392E+03  0.18237688880E+03  0.12509000000E+03 0.  0.
         25    1    4    4    0    0 -0.42452766898E+02  0.59811726250E+02  0.18213715420E+03  0.23281136367E+03  0.12509000000E+03 0.  0.
<mgrwt>
<rscale>  2 0.45966884E+03</rscale>
<asrwt>0</asrwt>
<pdfrwt beam="1">  1       21 0.96081733E-01 0.45966884E+03</pdfrwt>
<pdfrwt beam="2">  1       21 0.11889716E-01 0.45966884E+03</pdfrwt>
<totfact> 0.49251781E+04</totfact>
</mgrwt>
</event>
<event>
 7    0  0.4784406E-002  0.4553698E+03  0.7546771E-02  0.1026133E+00
         21   -1    0    0  502  501  0.00000000000E+00  0.00000000000E+00  0.29410934131E+03  0.29410934131E+03  0.00000000000E+00 0.  1.
         21   -1    0    0  501  502 -0.00000000000E+00 -0.00000000000E+00 -0.17626235037E+03  0.17626235037E+03  0.00000000000E+00 0.  1.
      99926    2    1    2    0    0  0.00000000000E+00 -0.88817841970E-15  0.11784699094E+03  0.47037169167E+03  0.45536975641E+03 0.  0.
      99925    2    3    3    0    0 -0.11148465010E+03  0.51339427699E+01  0.95571848405E+02  0.30125967362E+03  0.26299853262E+03 0.  0.
         25    1    4    4    0    0 -0.79882412572E+02 -0.18379819591E+02  0.22816619384E+02  0.15128490945E+03  0.12509000000E+03 0.  0.
         25    1    3    3    0    0  0.11148465010E+03 -0.51339427699E+01  0.22275142533E+02  0.16911201806E+03  0.12509000000E+03 0.  0.
         25    1    4    4    0    0 -0.31602237531E+02  0.23513762361E+02  0.72755229021E+02  0.14997476417E+03  0.12509000000E+03 0.  0.
<mgrwt>
<rscale>  2 0.45536976E+03</rscale>
<asrwt>0</asrwt>
<pdfrwt beam="1">  1       21 0.43251374E-01 0.45536976E+03</pdfrwt>
<pdfrwt beam="2">  1       21 0.25920934E-01 0.45536976E+03</pdfrwt>
<totfact> 0.67210714E+04</totfact>
</mgrwt>
</event>
<event>
 7    0  0.4784406E-002  0.4591643E+03  0.7546771E-02  0.1025024E+00
         21   -1    0    0  502  501  0.00000000000E+00  0.00000000000E+00  0.42082415383E+03  0.42082415383E+03  0.00000000000E+00 0.  1.
         21   -1    0    0  501  502 -0.00000000000E+00 -0.00000000000E+00 -0.12524935298E+03  0.12524935298E+03  0.00000000000E+00 0.  1.
      99926    2    1    2    0    0  0.00000000000E+00  0.00000000000E+00  0.29557480084E+03  0.54607350681E+03  0.45916425378E+03 0.  0.
      99925    2    3    3    0    0 -0.10952914495E+03 -0.37734644316E+02  0.20551531664E+03  0.35325557256E+03  0.26293044174E+03 0.  0.
         25    1    4    4    0    0 -0.74722187225E+02  0.16152173571E+02  0.11040515623E+03  0.18352412538E+03  0.12509000000E+03 0.  0.
         25    1    4    4    0    0 -0.34806957724E+02 -0.53886817887E+02  0.95110160409E+02  0.16973144718E+03  0.12509000000E+03 0.  0.
         25    1    3    3    0    0  0.10952914495E+03  0.37734644316E+02  0.90059484206E+02  0.19281793426E+03  0.12509000000E+03 0.  0.
<mgrwt>
<rscale>  2 0.45916425E+03</rscale>
<asrwt>0</asrwt>
<pdfrwt beam="1">  1       21 0.61885905E-01 0.45916425E+03</pdfrwt>
<pdfrwt beam="2">  1       21 0.18419023E-01 0.45916425E+03</pdfrwt>
<totfact> 0.60121062E+04</totfact>
</mgrwt>
</event>
<event>
 7    0  0.4784406E-002  0.4569602E+03  0.7546771E-02  0.1025667E+00
         21   -1    0    0  502  501  0.00000000000E+00  0.00000000000E+00  0.29376190098E+03  0.29376190098E+03  0.00000000000E+00 0.  1.
         21   -1    0    0  501  502 -0.00000000000E+00 -0.00000000000E+00 -0.17770565092E+03  0.17770565092E+03  0.00000000000E+00 0.  1.
      99926    2    1    2    0    0  0.00000000000E+00  0.88817841970E-15  0.11605625006E+03  0.47146755191E+03  0.45696017258E+03 0.  0.
      99925    2    3    3    0    0 -0.97555423408E+02  0.74060026917E+01  0.10181198104E+02  0.28060387218E+03  0.26279833861E+03 0.  0.
         25    1    4    4    0    0 -0.11872395528E+02 -0.54373210926E+01 -0.13937938197E+02  0.12653968728E+03  0.12509000000E+03 0.  0.
         25    1    3    3    0    0  0.97555423408E+02 -0.74060026917E+01  0.10587505195E+03  0.19086367972E+03  0.12509000000E+03 0.  0.
         25    1    4    4    0    0 -0.85683027881E+02  0.12843323784E+02  0.24119136301E+02  0.15406418490E+03  0.12509000000E+03 0.  0.
<mgrwt>
<rscale>  2 0.45696017E+03</rscale>
<asrwt>0</asrwt>
<pdfrwt beam="1">  1       21 0.43200279E-01 0.45696017E+03</pdfrwt>
<pdfrwt beam="2">  1       21 0.26133184E-01 0.45696017E+03</pdfrwt>
<totfact> 0.66289899E+04</totfact>
</mgrwt>
</event>
<event>
 7    0  0.4784406E-002  0.4564255E+03  0.7546771E-02  0.1025823E+00
         21   -1    0    0  502  501  0.00000000000E+00  0.00000000000E+00  0.70190988511E+03  0.70190988511E+03  0.00000000000E+00 0. -1.
         21   -1    0    0  501  502 -0.00000000000E+00 -0.00000000000E+00 -0.74199081147E+02  0.74199081147E+02  0.00000000000E+00 0. -1.
      99926    2    1    2    0    0  0.00000000000E+00  0.00000000000E+00  0.62771080396E+03  0.77610896626E+03  0.45642554058E+03 0.  0.
      99925    2    3    3    0    0  0.11287816930E+03  0.17749506128E+02  0.38960650641E+03  0.48388013351E+03  0.26323037002E+03 0.  0.
         25    1    3    3    0    0 -0.11287816930E+03 -0.17749506128E+02  0.23810429755E+03  0.29222883274E+03  0.12509000000E+03 0.  0.
         25    1    4    4    0    0  0.31564102876E+02  0.20393962672E+02  0.12900589094E+03  0.18358168291E+03  0.12509000000E+03 0.  0.
         25    1    4    4    0    0  0.81314066429E+02 -0.26444565438E+01  0.26060061547E+03  0.30029845060E+03  0.12509000000E+03 0.  0.
<mgrwt>
<rscale>  2 0.45642554E+03</rscale>
<asrwt>0</asrwt>
<pdfrwt beam="1">  1       21 0.10322204E+00 0.45642554E+03</pdfrwt>
<pdfrwt beam="2">  1       21 0.10911630E-01 0.45642554E+03</pdfrwt>
<totfact> 0.48398281E+04</totfact>
</mgrwt>
</event>
<event>
 7    0  0.4784406E-002  0.4528179E+03  0.7546771E-02  0.1026885E+00
         21   -1    0    0  502  501  0.00000000000E+00  0.00000000000E+00  0.57197982384E+03  0.57197982384E+03  0.00000000000E+00 0. -1.
         21   -1    0    0  501  502 -0.00000000000E+00 -0.00000000000E+00 -0.89620312385E+02  0.89620312385E+02  0.00000000000E+00 0. -1.
      99926    2    1    2    0    0  0.14210854715E-13 -0.11102230246E-15  0.48235951146E+03  0.66160013623E+03  0.45281789051E+03 0.  0.
      99925    2    3    3    0    0  0.99505919179E+02  0.60830326094E+00  0.37638575179E+03  0.46981967888E+03  0.26298763948E+03 0.  0.
         25    1    3    3    0    0 -0.99505919179E+02 -0.60830326094E+00  0.10597375966E+03  0.19178045735E+03  0.12509000000E+03 0.  0.
         25    1    4    4    0    0  0.55337440679E+02  0.39627851512E+02  0.20491414838E+03  0.24953940624E+03  0.12509000000E+03 0.  0.
         25    1    4    4    0    0  0.44168478500E+02 -0.39019548252E+02  0.17147160341E+03  0.22028027264E+03  0.12509000000E+03 0.  0.
<mgrwt>
<rscale>  2 0.45281789E+03</rscale>
<asrwt>0</asrwt>
<pdfrwt beam="1">  1       21 0.84114678E-01 0.45281789E+03</pdfrwt>
<pdfrwt beam="2">  1       21 0.13179458E-01 0.45281789E+03</pdfrwt>
<totfact> 0.55994749E+04</totfact>
</mgrwt>
</event>
<event>
 7    0  0.4784406E-002  0.4588372E+03  0.7546771E-02  0.1025119E+00
         21   -1    0    0  502  501  0.00000000000E+00  0.00000000000E+00  0.37904386858E+03  0.37904386858E+03  0.00000000000E+00 0.  1.
         21   -1    0    0  501  502 -0.00000000000E+00 -0.00000000000E+00 -0.13885697160E+03  0.13885697160E+03  0.00000000000E+00 0.  1.
      99926    2    1    2    0    0  0.00000000000E+00  0.00000000000E+00  0.24018689698E+03  0.51790084018E+03  0.45883715497E+03 0.  0.
      99925    2    3    3    0    0 -0.25526879343E+02 -0.84985786235E+02  0.64962946899E+02  0.28503790579E+03  0.26296809281E+03 0.  0.
         25    1    4    4    0    0 -0.22275211805E+02 -0.77811516058E+01  0.86473893058E+01  0.12758925042E+03  0.12509000000E+03 0.  0.
         25    1    3    3    0    0  0.25526879343E+02  0.84985786235E+02  0.17522395008E+03  0.23286293439E+03  0.12509000000E+03 0.  0.
         25    1    4    4    0    0 -0.32516675377E+01 -0.77204634629E+02  0.56315557594E+02  0.15744865537E+03  0.12509000000E+03 0.  0.
<mgrwt>
<rscale>  2 0.45883715E+03</rscale>
<asrwt>0</asrwt>
<pdfrwt beam="1">  1       21 0.55741745E-01 0.45883715E+03</pdfrwt>
<pdfrwt beam="2">  1       21 0.20420143E-01 0.45883715E+03</pdfrwt>
<totfact> 0.62117537E+04</totfact>
</mgrwt>
</event>
<event>
 7    0  0.4784406E-002  0.4539822E+03  0.7546771E-02  0.1026541E+00
         21   -1    0    0  502  501  0.00000000000E+00  0.00000000000E+00  0.25975765125E+02  0.25975765125E+02  0.00000000000E+00 0.  1.
         21   -1    0    0  501  502 -0.00000000000E+00 -0.00000000000E+00 -0.19835785557E+04  0.19835785557E+04  0.00000000000E+00 0.  1.
      99926    2    1    2    0    0  0.00000000000E+00  0.71054273576E-14 -0.19576027905E+04  0.20095543208E+04  0.45398224930E+03 0.  0.
      99925    2    3    3    0    0  0.46010947011E+02  0.45686637817E+02 -0.82674212911E+03  0.86995017031E+03  0.26288110365E+03 0.  0.
         25    1    4    4    0    0  0.16739663919E+02  0.53744998495E+02 -0.34398966856E+03  0.37033112398E+03  0.12509000000E+03 0.  0.
         25    1    3    3    0    0 -0.46010947011E+02 -0.45686637817E+02 -0.11308606614E+04  0.11396041505E+04  0.12509000000E+03 0.  0.
         25    1    4    4    0    0  0.29271283092E+02 -0.80583606784E+01 -0.48275246055E+03  0.49961904634E+03  0.12509000000E+03 0.  0.
<mgrwt>
<rscale>  2 0.45398225E+03</rscale>
<asrwt>0</asrwt>
<pdfrwt beam="1">  1       21 0.38199665E-02 0.45398225E+03</pdfrwt>
<pdfrwt beam="2">  1       21 0.29170265E+00 0.45398225E+03</pdfrwt>
<totfact> 0.13661895E+04</totfact>
</mgrwt>
</event>
<event>
 7    0  0.4784406E-002  0.4602913E+03  0.7546771E-02  0.1024697E+00
         21   -1    0    0  502  501  0.00000000000E+00  0.00000000000E+00  0.10925506884E+03  0.10925506884E+03  0.00000000000E+00 0.  1.
         21   -1    0    0  501  502 -0.00000000000E+00 -0.00000000000E+00 -0.48480145476E+03  0.48480145476E+03  0.00000000000E+00 0.  1.
      99926    2    1    2    0    0  0.00000000000E+00  0.00000000000E+00 -0.37554638592E+03  0.59405652360E+03  0.46029128305E+03 0.  0.
      99925    2    3    3    0    0  0.97078989896E+02  0.63951043982E+02 -0.20948260538E+03  0.35585754457E+03  0.26313031707E+03 0.  0.
         25    1    4    4    0    0  0.77882446290E+02  0.20407583770E+02 -0.14329159592E+03  0.20654814082E+03  0.12509000000E+03 0.  0.
         25    1    3    3    0    0 -0.97078989896E+02 -0.63951043982E+02 -0.16606378054E+03  0.23819897904E+03  0.12509000000E+03 0.  0.
         25    1    4    4    0    0  0.19196543605E+02  0.43543460212E+02 -0.66191009460E+02  0.14930940375E+03  0.12509000000E+03 0.  0.
<mgrwt>
<rscale>  2 0.46029128E+03</rscale>
<asrwt>0</asrwt>
<pdfrwt beam="1">  1       21 0.16066922E-01 0.46029128E+03</pdfrwt>
<pdfrwt beam="2">  1       21 0.71294330E-01 0.46029128E+03</pdfrwt>
<totfact> 0.56639741E+04</totfact>
</mgrwt>
</event>
<event>
 7    0  0.4784406E-002  0.4557562E+03  0.7546771E-02  0.1026019E+00
         21   -1    0    0  502  501  0.00000000000E+00  0.00000000000E+00  0.31208559739E+02  0.31208559739E+02  0.00000000000E+00 0. -1.
         21   -1    0    0  501  502 -0.00000000000E+00 -0.00000000000E+00 -0.16639160322E+04  0.16639160322E+04  0.00000000000E+00 0. -1.
      99926    2    1    2    0    0  0.00000000000E+00  0.00000000000E+00 -0.16327074724E+04  0.16951245919E+04  0.45575617556E+03 0.  0.
      99925    2    3    3    0    0  0.60441722981E+02 -0.50472779398E+02 -0.13312742104E+04  0.13594011597E+04  0.26359018673E+03 0.  0.
         25    1    3    3    0    0 -0.60441722981E+02  0.50472779398E+02 -0.30143326205E+03  0.33572343217E+03  0.12509000000E+03 0.  0.
         25    1    4    4    0    0  0.11629223291E+02  0.13473934043E+02 -0.62067591540E+03  0.63340578288E+03  0.12509000000E+03 0.  0.
         25    1    4    4    0    0  0.48812499690E+02 -0.63946713442E+02 -0.71059829498E+03  0.72599537686E+03  0.12509000000E+03 0.  0.
<mgrwt>
<rscale>  2 0.45575618E+03</rscale>
<asrwt>0</asrwt>
<pdfrwt beam="1">  1       21 0.45894918E-02 0.45575618E+03</pdfrwt>
<pdfrwt beam="2">  1       21 0.24469365E+00 0.45575618E+03</pdfrwt>
<totfact> 0.19249944E+04</totfact>
</mgrwt>
</event>
<event>
 7    0  0.4784406E-002  0.4547252E+03  0.7546771E-02  0.1026322E+00
         21   -1    0    0  502  501  0.00000000000E+00  0.00000000000E+00  0.38445908151E+03  0.38445908151E+03  0.00000000000E+00 0. -1.
         21   -1    0    0  501  502 -0.00000000000E+00 -0.00000000000E+00 -0.13445839183E+03  0.13445839183E+03  0.00000000000E+00 0. -1.
      99926    2    1    2    0    0  0.00000000000E+00  0.00000000000E+00  0.25000068968E+03  0.51891747333E+03  0.45472519096E+03 0.  0.
      99925    2    3    3    0    0  0.20010471860E+02  0.34281103634E+02  0.27817321037E+03  0.38469075441E+03  0.26273756585E+03 0.  0.
         25    1    4    4    0    0  0.14208158593E+02  0.38467213888E+02  0.93263686292E+02  0.16132954347E+03  0.12509000000E+03 0.  0.
         25    1    4    4    0    0  0.58023132670E+01 -0.41861102540E+01  0.18490952408E+03  0.22336121094E+03  0.12509000000E+03 0.  0.
         25    1    3    3    0    0 -0.20010471860E+02 -0.34281103634E+02 -0.28172520696E+02  0.13422671892E+03  0.12509000000E+03 0.  0.
<mgrwt>
<rscale>  2 0.45472519E+03</rscale>
<asrwt>0</asrwt>
<pdfrwt beam="1">  1       21 0.56538100E-01 0.45472519E+03</pdfrwt>
<pdfrwt beam="2">  1       21 0.19773293E-01 0.45472519E+03</pdfrwt>
<totfact> 0.64100732E+04</totfact>
</mgrwt>
</event>
<event>
 7    0  0.4784406E-002  0.4557754E+03  0.7546771E-02  0.1026014E+00
         21   -1    0    0  502  501  0.00000000000E+00  0.00000000000E+00  0.64535884058E+03  0.64535884058E+03  0.00000000000E+00 0.  1.
         21   -1    0    0  501  502 -0.00000000000E+00 -0.00000000000E+00 -0.80471218928E+02  0.80471218928E+02  0.00000000000E+00 0.  1.
      99926    2    1    2    0    0  0.00000000000E+00 -0.35527136788E-14  0.56488762165E+03  0.72583005950E+03  0.45577543833E+03 0.  0.
      99925    2    3    3    0    0 -0.10937029764E+03 -0.18376754082E+02  0.31435964417E+03  0.42464682176E+03  0.26306533458E+03 0.  0.
         25    1    3    3    0    0  0.10937029764E+03  0.18376754082E+02  0.25052797748E+03  0.30118323774E+03  0.12509000000E+03 0.  0.
         25    1    4    4    0    0 -0.62716124056E+02 -0.45483258131E+02  0.18893871775E+03  0.23947314286E+03  0.12509000000E+03 0.  0.
         25    1    4    4    0    0 -0.46654173582E+02  0.27106504049E+02  0.12542092642E+03  0.18517367890E+03  0.12509000000E+03 0.  0.
<mgrwt>
<rscale>  2 0.45577544E+03</rscale>
<asrwt>0</asrwt>
<pdfrwt beam="1">  1       21 0.94905709E-01 0.45577544E+03</pdfrwt>
<pdfrwt beam="2">  1       21 0.11834003E-01 0.45577544E+03</pdfrwt>
<totfact> 0.51209921E+04</totfact>
</mgrwt>
</event>
<event>
 7    0  0.4784406E-002  0.4522971E+03  0.7546771E-02  0.1027039E+00
         21   -1    0    0  502  501  0.00000000000E+00  0.00000000000E+00  0.19225347047E+03  0.19225347047E+03  0.00000000000E+00 0.  1.
         21   -1    0    0  501  502 -0.00000000000E+00 -0.00000000000E+00 -0.26601941479E+03  0.26601941479E+03  0.00000000000E+00 0.  1.
      99926    2    1    2    0    0  0.00000000000E+00  0.00000000000E+00 -0.73765944313E+02  0.45827288526E+03  0.45229705153E+03 0.  0.
      99925    2    3    3    0    0  0.97788184918E+02  0.34340261406E+02 -0.85703911353E+02  0.29538701779E+03  0.26299533683E+03 0.  0.
         25    1    3    3    0    0 -0.97788184918E+02 -0.34340261406E+02  0.11937967040E+02  0.16288586747E+03  0.12509000000E+03 0.  0.
         25    1    4    4    0    0  0.20793622506E+02  0.42049958704E+02 -0.23324665841E+02  0.13561755749E+03  0.12509000000E+03 0.  0.
         25    1    4    4    0    0  0.76994562413E+02 -0.77096972986E+01 -0.62379245512E+02  0.15976946030E+03  0.12509000000E+03 0.  0.
<mgrwt>
<rscale>  2 0.45229705E+03</rscale>
<asrwt>0</asrwt>
<pdfrwt beam="1">  1       21 0.28272569E-01 0.45229705E+03</pdfrwt>
<pdfrwt beam="2">  1       21 0.39120502E-01 0.45229705E+03</pdfrwt>
<totfact> 0.69798967E+04</totfact>
</mgrwt>
</event>
<event>
 7    0  0.4784406E-002  0.4542290E+03  0.7546771E-02  0.1026468E+00
         21   -1    0    0  502  501  0.00000000000E+00  0.00000000000E+00  0.79254209207E+02  0.79254209207E+02  0.00000000000E+00 0.  1.
         21   -1    0    0  501  502 -0.00000000000E+00 -0.00000000000E+00 -0.65082984043E+03  0.65082984043E+03  0.00000000000E+00 0.  1.
      99926    2    1    2    0    0 -0.71054273576E-14  0.14210854715E-13 -0.57157563122E+03  0.73008404963E+03  0.45422903620E+03 0.  0.
      99925    2    3    3    0    0 -0.41525033127E+02  0.10245450196E+03 -0.39259697836E+03  0.48533495438E+03  0.26305204272E+03 0.  0.
         25    1    3    3    0    0  0.41525033127E+02 -0.10245450196E+03 -0.17897865286E+03  0.24474909525E+03  0.12509000000E+03 0.  0.
         25    1    4    4    0    0 -0.64368499896E+01  0.89787435484E+02 -0.22930023637E+03  0.27627761963E+03  0.12509000000E+03 0.  0.
         25    1    4    4    0    0 -0.35088183137E+02  0.12667066476E+02 -0.16329674200E+03  0.20905733476E+03  0.12509000000E+03 0.  0.
<mgrwt>
<rscale>  2 0.45422904E+03</rscale>
<asrwt>0</asrwt>
<pdfrwt beam="1">  1       21 0.11655030E-01 0.45422904E+03</pdfrwt>
<pdfrwt beam="2">  1       21 0.95710274E-01 0.45422904E+03</pdfrwt>
<totfact> 0.51612059E+04</totfact>
</mgrwt>
</event>
<event>
 7    0  0.4784406E-002  0.4554314E+03  0.7546771E-02  0.1026115E+00
         21   -1    0    0  502  501  0.00000000000E+00  0.00000000000E+00  0.48136202978E+02  0.48136202978E+02  0.00000000000E+00 0.  1.
         21   -1    0    0  501  502 -0.00000000000E+00 -0.00000000000E+00 -0.10772439480E+04  0.10772439480E+04  0.00000000000E+00 0.  1.
      99926    2    1    2    0    0  0.00000000000E+00 -0.35527136788E-14 -0.10291077450E+04  0.11253801510E+04  0.45543137062E+03 0.  0.
      99925    2    3    3    0    0  0.76802433494E+02  0.31411022831E+02 -0.45562356774E+03  0.53257590349E+03  0.26298097147E+03 0.  0.
         25    1    3    3    0    0 -0.76802433494E+02 -0.31411022831E+02 -0.57348417726E+03  0.59280424746E+03  0.12509000000E+03 0.  0.
         25    1    4    4    0    0  0.77587768330E+02  0.77928840925E+01 -0.26755426234E+03  0.30547239193E+03  0.12509000000E+03 0.  0.
         25    1    4    4    0    0 -0.78533483592E+00  0.23618138738E+02 -0.18806930540E+03  0.22710351156E+03  0.12509000000E+03 0.  0.
<mgrwt>
<rscale>  2 0.45543137E+03</rscale>
<asrwt>0</asrwt>
<pdfrwt beam="1">  1       21 0.70788540E-02 0.45543137E+03</pdfrwt>
<pdfrwt beam="2">  1       21 0.15841821E+00 0.45543137E+03</pdfrwt>
<totfact> 0.34498923E+04</totfact>
</mgrwt>
</event>
<event>
 7    0  0.4784406E-002  0.4503626E+03  0.7546771E-02  0.1027614E+00
         21   -1    0    0  502  501  0.00000000000E+00  0.00000000000E+00  0.85552814312E+03  0.85552814312E+03  0.00000000000E+00 0. -1.
         21   -1    0    0  501  502 -0.00000000000E+00 -0.00000000000E+00 -0.59269387011E+02  0.59269387011E+02  0.00000000000E+00 0. -1.
      99926    2    1    2    0    0  0.17763568394E-14  0.00000000000E+00  0.79625875611E+03  0.91479753013E+03  0.45036264771E+03 0.  0.
      99925    2    3    3    0    0 -0.94078965030E+01  0.23916430558E+02  0.71716885989E+03  0.76458693147E+03  0.26382095824E+03 0.  0.
         25    1    4    4    0    0  0.31783157666E+02  0.23220766665E+02  0.30830521340E+03  0.33503579783E+03  0.12509000000E+03 0.  0.
         25    1    3    3    0    0  0.94078965030E+01 -0.23916430558E+02  0.79089896223E+02  0.15021059867E+03  0.12509000000E+03 0.  0.
         25    1    4    4    0    0 -0.41191054169E+02  0.69566389315E+00  0.40886364649E+03  0.42955113364E+03  0.12509000000E+03 0.  0.
<mgrwt>
<rscale>  2 0.45036265E+03</rscale>
<asrwt>0</asrwt>
<pdfrwt beam="1">  1       21 0.12581295E+00 0.45036265E+03</pdfrwt>
<pdfrwt beam="2">  1       21 0.87160868E-02 0.45036265E+03</pdfrwt>
<totfact> 0.44181341E+04</totfact>
</mgrwt>
</event>
<event>
 7    0  0.4784406E-002  0.4548386E+03  0.7546771E-02  0.1026289E+00
         21   -1    0    0  502  501  0.00000000000E+00  0.00000000000E+00  0.19581127853E+03  0.19581127853E+03  0.00000000000E+00 0. -1.
         21   -1    0    0  501  502 -0.00000000000E+00 -0.00000000000E+00 -0.26412953968E+03  0.26412953968E+03  0.00000000000E+00 0. -1.
      99926    2    1    2    0    0  0.00000000000E+00  0.35527136788E-14 -0.68318261152E+02  0.45994081821E+03  0.45483862133E+03 0.  0.
      99925    2    3    3    0    0 -0.14820247480E+02 -0.24868893335E+02 -0.15356715389E+03  0.30582078901E+03  0.26287902664E+03 0.  0.
         25    1    4    4    0    0  0.68481812879E+00  0.27216151267E+02 -0.70958229967E+02  0.14636859761E+03  0.12509000000E+03 0.  0.
         25    1    4    4    0    0 -0.15505065609E+02 -0.52085044601E+02 -0.82608923918E+02  0.15945219140E+03  0.12509000000E+03 0.  0.
         25    1    3    3    0    0  0.14820247480E+02  0.24868893335E+02  0.85248892733E+02  0.15412002921E+03  0.12509000000E+03 0.  0.
<mgrwt>
<rscale>  2 0.45483862E+03</rscale>
<asrwt>0</asrwt>
<pdfrwt beam="1">  1       21 0.28795776E-01 0.45483862E+03</pdfrwt>
<pdfrwt beam="2">  1       21 0.38842579E-01 0.45483862E+03</pdfrwt>
<totfact> 0.68272702E+04</totfact>
</mgrwt>
</event>
<event>
 7    0  0.4784406E-002  0.4572857E+03  0.7546771E-02  0.1025571E+00
         21   -1    0    0  502  501  0.00000000000E+00  0.00000000000E+00  0.34560212815E+02  0.34560212815E+02  0.00000000000E+00 0.  1.
         21   -1    0    0  501  502 -0.00000000000E+00 -0.00000000000E+00 -0.15126513658E+04  0.15126513658E+04  0.00000000000E+00 0.  1.
      99926    2    1    2    0    0 -0.35527136788E-14  0.00000000000E+00 -0.14780911530E+04  0.15472115786E+04  0.45728570114E+03 0.  0.
      99925    2    3    3    0    0  0.10919194025E+02  0.35880404412E+02 -0.12970275341E+04  0.13239669272E+04  0.26306152850E+03 0.  0.
         25    1    4    4    0    0  0.45174717687E+02  0.23467013953E+02 -0.69558388835E+03  0.70857315056E+03  0.12509000000E+03 0.  0.
         25    1    4    4    0    0 -0.34255523663E+02  0.12413390459E+02 -0.60144364574E+03  0.61539377659E+03  0.12509000000E+03 0.  0.
         25    1    3    3    0    0 -0.10919194025E+02 -0.35880404412E+02 -0.18106361887E+03  0.22324465144E+03  0.12509000000E+03 0.  0.
<mgrwt>
<rscale>  2 0.45728570E+03</rscale>
<asrwt>0</asrwt>
<pdfrwt beam="1">  1       21 0.50823845E-02 0.45728570E+03</pdfrwt>
<pdfrwt beam="2">  1       21 0.22244872E+00 0.45728570E+03</pdfrwt>
<totfact> 0.22247862E+04</totfact>
</mgrwt>
</event>
<event>
 7    0  0.4784406E-002  0.4530887E+03  0.7546771E-02  0.1026805E+00
         21   -1    0    0  502  501  0.00000000000E+00  0.00000000000E+00  0.58572455083E+02  0.58572455083E+02  0.00000000000E+00 0. -1.
         21   -1    0    0  501  502 -0.00000000000E+00 -0.00000000000E+00 -0.87621977409E+03  0.87621977409E+03  0.00000000000E+00 0. -1.
      99926    2    1    2    0    0  0.14210854715E-13  0.00000000000E+00 -0.81764731901E+03  0.93479222917E+03  0.45308870373E+03 0.  0.
      99925    2    3    3    0    0 -0.96475251194E+02 -0.55999357188E+02 -0.49580176352E+03  0.57192107878E+03  0.26235649325E+03 0.  0.
         25    1    3    3    0    0  0.96475251194E+02  0.55999357188E+02 -0.32184555549E+03  0.36287115039E+03  0.12509000000E+03 0.  0.
         25    1    4    4    0    0 -0.13375550179E+02 -0.18383853583E+02 -0.18203123500E+03  0.22203547021E+03  0.12509000000E+03 0.  0.
         25    1    4    4    0    0 -0.83099701016E+02 -0.37615503606E+02 -0.31377052852E+03  0.34988560857E+03  0.12509000000E+03 0.  0.
<mgrwt>
<rscale>  2 0.45308870E+03</rscale>
<asrwt>0</asrwt>
<pdfrwt beam="1">  1       21 0.86135973E-02 0.45308870E+03</pdfrwt>
<pdfrwt beam="2">  1       21 0.12885583E+00 0.45308870E+03</pdfrwt>
<totfact> 0.42393003E+04</totfact>
</mgrwt>
</event>
<event>
 7    0  0.4784406E-002  0.4549564E+03  0.7546771E-02  0.1026254E+00
         21   -1    0    0  502  501  0.00000000000E+00  0.00000000000E+00  0.11725808412E+04  0.11725808412E+04  0.00000000000E+00 0.  1.
         21   -1    0    0  501  502 -0.00000000000E+00 -0.00000000000E+00 -0.44130279892E+02  0.44130279892E+02  0.00000000000E+00 0.  1.
      99926    2    1    2    0    0  0.00000000000E+00  0.00000000000E+00  0.11284505613E+04  0.12167111210E+04  0.45495635270E+03 0.  0.
      99925    2    3    3    0    0  0.33054117800E+02  0.93799433610E+02  0.85428319965E+03  0.89936878425E+03  0.26300858623E+03 0.  0.
         25    1    3    3    0    0 -0.33054117800E+02 -0.93799433610E+02  0.27416736161E+03  0.31734233679E+03  0.12509000000E+03 0.  0.
         25    1    4    4    0    0  0.33954084724E+01  0.62286934194E+02  0.55111033643E+03  0.56856072850E+03  0.12509000000E+03 0.  0.
         25    1    4    4    0    0  0.29658709327E+02  0.31512499416E+02  0.30317286322E+03  0.33080805576E+03  0.12509000000E+03 0.  0.
<mgrwt>
<rscale>  2 0.45495635E+03</rscale>
<asrwt>0</asrwt>
<pdfrwt beam="1">  1       21 0.17243834E+00 0.45495635E+03</pdfrwt>
<pdfrwt beam="2">  1       21 0.64897478E-02 0.45495635E+03</pdfrwt>
<totfact> 0.31641494E+04</totfact>
</mgrwt>
</event>
<event>
 7    0  0.4784406E-002  0.4336626E+03  0.7546771E-02  0.1032709E+00
         21   -1    0    0  502  501  0.00000000000E+00  0.00000000000E+00  0.55383037109E+03  0.55383037109E+03  0.00000000000E+00 0.  1.
         21   -1    0    0  501  502 -0.00000000000E+00 -0.00000000000E+00 -0.84892077886E+02  0.84892077886E+02  0.00000000000E+00 0.  1.
      99926    2    1    2    0    0  0.00000000000E+00  0.00000000000E+00  0.46893829321E+03  0.63872244898E+03  0.43366259234E+03 0.  0.
      99925    2    3    3    0    0 -0.68003149521E+02 -0.61492234678E+02  0.29323343734E+03  0.40436070349E+03  0.26289923257E+03 0.  0.
         25    1    3    3    0    0  0.68003149521E+02  0.61492234678E+02  0.17570485587E+03  0.23436174548E+03  0.12509000000E+03 0.  0.
         25    1    4    4    0    0 -0.36192960878E+02 -0.38140428235E+01  0.18522085215E+03  0.22644811660E+03  0.12509000000E+03 0.  0.
         25    1    4    4    0    0 -0.31810188643E+02 -0.57678191854E+02  0.10801258519E+03  0.17791258689E+03  0.12509000000E+03 0.  0.
<mgrwt>
<rscale>  2 0.43366259E+03</rscale>
<asrwt>0</asrwt>
<pdfrwt beam="1">  1       21 0.81445641E-01 0.43366259E+03</pdfrwt>
<pdfrwt beam="2">  1       21 0.12484129E-01 0.43366259E+03</pdfrwt>
<totfact> 0.66930313E+04</totfact>
</mgrwt>
</event>
<event>
 7    0  0.4784406E-002  0.4560636E+03  0.7546771E-02  0.1025929E+00
         21   -1    0    0  502  501  0.00000000000E+00  0.00000000000E+00  0.10055866600E+03  0.10055866600E+03  0.00000000000E+00 0.  1.
         21   -1    0    0  501  502 -0.00000000000E+00 -0.00000000000E+00 -0.51709614402E+03  0.51709614402E+03  0.00000000000E+00 0.  1.
      99926    2    1    2    0    0  0.00000000000E+00  0.17763568394E-14 -0.41653747802E+03  0.61765481002E+03  0.45606358520E+03 0.  0.
      99925    2    3    3    0    0  0.98870607486E+02  0.88647765670E+01 -0.18544032848E+03  0.33675023207E+03  0.26298026938E+03 0.  0.
         25    1    3    3    0    0 -0.98870607486E+02 -0.88647765670E+01 -0.23109714954E+03  0.28090457795E+03  0.12509000000E+03 0.  0.
         25    1    4    4    0    0  0.80982277645E+02 -0.35992165165E+01 -0.13156972243E+03  0.19881947493E+03  0.12509000000E+03 0.  0.
         25    1    4    4    0    0  0.17888329841E+02  0.12463993083E+02 -0.53870606047E+02  0.13793075714E+03  0.12509000000E+03 0.  0.
<mgrwt>
<rscale>  2 0.45606359E+03</rscale>
<asrwt>0</asrwt>
<pdfrwt beam="1">  1       21 0.14788040E-01 0.45606359E+03</pdfrwt>
<pdfrwt beam="2">  1       21 0.76043548E-01 0.45606359E+03</pdfrwt>
<totfact> 0.57123212E+04</totfact>
</mgrwt>
</event>
<event>
 7    0  0.4784406E-002  0.4555959E+03  0.7546771E-02  0.1026066E+00
         21   -1    0    0  502  501  0.00000000000E+00  0.00000000000E+00  0.10931612665E+03  0.10931612665E+03  0.00000000000E+00 0.  1.
         21   -1    0    0  501  502 -0.00000000000E+00 -0.00000000000E+00 -0.47469571107E+03  0.47469571107E+03  0.00000000000E+00 0.  1.
      99926    2    1    2    0    0 -0.14210854715E-13  0.00000000000E+00 -0.36537958443E+03  0.58401183772E+03  0.45559585806E+03 0.  0.
      99925    2    3    3    0    0 -0.96894398791E+02  0.19656740742E+02 -0.15779867271E+03  0.32226338026E+03  0.26301778109E+03 0.  0.
         25    1    3    3    0    0  0.96894398791E+02 -0.19656740742E+02 -0.20758091172E+03  0.26174845746E+03  0.12509000000E+03 0.  0.
         25    1    4    4    0    0 -0.69112930649E+02 -0.14205566309E+02 -0.52225542230E+02  0.15281822751E+03  0.12509000000E+03 0.  0.
         25    1    4    4    0    0 -0.27781468141E+02  0.33862307052E+02 -0.10557313048E+03  0.16944515275E+03  0.12509000000E+03 0.  0.
<mgrwt>
<rscale>  2 0.45559586E+03</rscale>
<asrwt>0</asrwt>
<pdfrwt beam="1">  1       21 0.16075901E-01 0.45559586E+03</pdfrwt>
<pdfrwt beam="2">  1       21 0.69808192E-01 0.45559586E+03</pdfrwt>
<totfact> 0.59393085E+04</totfact>
</mgrwt>
</event>
<event>
 7    0  0.4784406E-002  0.4748845E+03  0.7546771E-02  0.1020551E+00
         21   -1    0    0  502  501  0.00000000000E+00  0.00000000000E+00  0.14544820316E+03  0.14544820316E+03  0.00000000000E+00 0. -1.
         21   -1    0    0  501  502 -0.00000000000E+00 -0.00000000000E+00 -0.38762126133E+03  0.38762126133E+03  0.00000000000E+00 0. -1.
      99926    2    1    2    0    0  0.14210854715E-13  0.00000000000E+00 -0.24217305818E+03  0.53306946449E+03  0.47488447423E+03 0.  0.
      99925    2    3    3    0    0 -0.11894065348E+03  0.41148286774E+02 -0.10898082718E+03  0.31119621452E+03  0.26291862370E+03 0.  0.
         25    1    4    4    0    0 -0.44426110478E+02 -0.18112465860E+02 -0.57364255959E+02  0.14573917343E+03  0.12509000000E+03 0.  0.
         25    1    4    4    0    0 -0.74514542998E+02  0.59260752634E+02 -0.51616571218E+02  0.16545704109E+03  0.12509000000E+03 0.  0.
         25    1    3    3    0    0  0.11894065348E+03 -0.41148286774E+02 -0.13319223100E+03  0.22187324997E+03  0.12509000000E+03 0.  0.
<mgrwt>
<rscale>  2 0.47488447E+03</rscale>
<asrwt>0</asrwt>
<pdfrwt beam="1">  1       21 0.21389442E-01 0.47488447E+03</pdfrwt>
<pdfrwt beam="2">  1       21 0.57003126E-01 0.47488447E+03</pdfrwt>
<totfact> 0.53974660E+04</totfact>
</mgrwt>
</event>
<event>
 7    0  0.4784406E-002  0.4507467E+03  0.7546771E-02  0.1027500E+00
         21   -1    0    0  502  501  0.00000000000E+00  0.00000000000E+00  0.56801453473E+03  0.56801453473E+03  0.00000000000E+00 0.  1.
         21   -1    0    0  501  502 -0.00000000000E+00 -0.00000000000E+00 -0.89422250508E+02  0.89422250508E+02  0.00000000000E+00 0.  1.
      99926    2    1    2    0    0 -0.48849813084E-14  0.00000000000E+00  0.47859228423E+03  0.65743678524E+03  0.45074666063E+03 0.  0.
      99925    2    3    3    0    0  0.27295523524E+01 -0.76270509021E+02  0.41611772874E+03  0.49814077404E+03  0.26299358468E+03 0.  0.
         25    1    3    3    0    0 -0.27295523524E+01  0.76270509021E+02  0.62474555484E+02  0.15929601120E+03  0.12509000000E+03 0.  0.
         25    1    4    4    0    0 -0.31687815509E+02 -0.53198178547E+02  0.24744943442E+03  0.28410014880E+03  0.12509000000E+03 0.  0.
         25    1    4    4    0    0  0.34417367861E+02 -0.23072330475E+02  0.16866829432E+03  0.21404062524E+03  0.12509000000E+03 0.  0.
<mgrwt>
<rscale>  2 0.45074666E+03</rscale>
<asrwt>0</asrwt>
<pdfrwt beam="1">  1       21 0.83531547E-01 0.45074666E+03</pdfrwt>
<pdfrwt beam="2">  1       21 0.13150331E-01 0.45074666E+03</pdfrwt>
<totfact> 0.57168460E+04</totfact>
</mgrwt>
</event>
<event>
 7    0  0.4784406E-002  0.4538892E+03  0.7546771E-02  0.1026569E+00
         21   -1    0    0  502  501  0.00000000000E+00  0.00000000000E+00  0.21149383220E+03  0.21149383220E+03  0.00000000000E+00 0. -1.
         21   -1    0    0  501  502 -0.00000000000E+00 -0.00000000000E+00 -0.24352415649E+03  0.24352415649E+03  0.00000000000E+00 0. -1.
      99926    2    1    2    0    0 -0.71054273576E-14 -0.88817841970E-15 -0.32030324286E+02  0.45501798869E+03  0.45388922476E+03 0.  0.
      99925    2    3    3    0    0 -0.46577478184E+02 -0.41427364545E+01  0.82445094443E+02  0.27912383491E+03  0.26253818366E+03 0.  0.
         25    1    3    3    0    0  0.46577478184E+02  0.41427364545E+01 -0.11447541873E+03  0.17589415378E+03  0.12509000000E+03 0.  0.
         25    1    4    4    0    0 -0.27609363083E+02  0.31641900358E+02  0.62970190621E+02  0.14620615512E+03  0.12509000000E+03 0.  0.
         25    1    4    4    0    0 -0.18968115101E+02 -0.35784636812E+02  0.19474903822E+02  0.13291767979E+03  0.12509000000E+03 0.  0.
<mgrwt>
<rscale>  2 0.45388922E+03</rscale>
<asrwt>0</asrwt>
<pdfrwt beam="1">  1       21 0.31102034E-01 0.45388922E+03</pdfrwt>
<pdfrwt beam="2">  1       21 0.35812376E-01 0.45388922E+03</pdfrwt>
<totfact> 0.69155379E+04</totfact>
</mgrwt>
</event>
<event>
 7    0  0.4784406E-002  0.4556968E+03  0.7546771E-02  0.1026037E+00
         21   -1    0    0  502  501  0.00000000000E+00  0.00000000000E+00  0.28034641006E+03  0.28034641006E+03  0.00000000000E+00 0.  1.
         21   -1    0    0  501  502 -0.00000000000E+00 -0.00000000000E+00 -0.18518122724E+03  0.18518122724E+03  0.00000000000E+00 0.  1.
      99926    2    1    2    0    0  0.00000000000E+00  0.00000000000E+00  0.95165182823E+02  0.46552763730E+03  0.45569679511E+03 0.  0.
      99925    2    3    3    0    0 -0.75798897683E+02  0.76740250866E+02  0.22792538095E+02  0.28519503682E+03  0.26302503729E+03 0.  0.
         25    1    3    3    0    0  0.75798897683E+02 -0.76740250866E+02  0.72372644728E+02  0.18033260049E+03  0.12509000000E+03 0.  0.
         25    1    4    4    0    0 -0.60089355497E+02  0.49421522194E+02  0.45574245004E+02  0.15420031585E+03  0.12509000000E+03 0.  0.
         25    1    4    4    0    0 -0.15709542187E+02  0.27318728671E+02 -0.22781706910E+02  0.13099472097E+03  0.12509000000E+03 0.  0.
<mgrwt>
<rscale>  2 0.45569680E+03</rscale>
<asrwt>0</asrwt>
<pdfrwt beam="1">  1       21 0.41227414E-01 0.45569680E+03</pdfrwt>
<pdfrwt beam="2">  1       21 0.27232533E-01 0.45569680E+03</pdfrwt>
<totfact> 0.67397069E+04</totfact>
</mgrwt>
</event>
<event>
 7    0  0.4784406E-002  0.4431554E+03  0.7546771E-02  0.1029783E+00
         21   -1    0    0  502  501  0.00000000000E+00  0.00000000000E+00  0.89225690390E+03  0.89225690390E+03  0.00000000000E+00 0. -1.
         21   -1    0    0  501  502 -0.00000000000E+00 -0.00000000000E+00 -0.55025261425E+02  0.55025261425E+02  0.00000000000E+00 0. -1.
      99926    2    1    2    0    0  0.00000000000E+00  0.00000000000E+00  0.83723164248E+03  0.94728216533E+03  0.44315536506E+03 0.  0.
      99925    2    3    3    0    0  0.66975531107E+02 -0.67084868160E+02  0.61116200721E+03  0.67207117464E+03  0.26301057665E+03 0.  0.
         25    1    4    4    0    0  0.26974334318E+02 -0.47229261535E+02  0.21878326768E+03  0.25782134158E+03  0.12509000000E+03 0.  0.
         25    1    3    3    0    0 -0.66975531107E+02  0.67084868160E+02  0.22606963527E+03  0.27521099069E+03  0.12509000000E+03 0.  0.
         25    1    4    4    0    0  0.40001196789E+02 -0.19855606625E+02  0.39237873953E+03  0.41424983306E+03  0.12509000000E+03 0.  0.
<mgrwt>
<rscale>  2 0.44315537E+03</rscale>
<asrwt>0</asrwt>
<pdfrwt beam="1">  1       21 0.13121424E+00 0.44315537E+03</pdfrwt>
<pdfrwt beam="2">  1       21 0.80919508E-02 0.44315537E+03</pdfrwt>
<totfact> 0.45303961E+04</totfact>
</mgrwt>
</event>
<event>
 7    0  0.4784406E-002  0.4488139E+03  0.7546771E-02  0.1028076E+00
         21   -1    0    0  502  501  0.00000000000E+00  0.00000000000E+00  0.16660148290E+03  0.16660148290E+03  0.00000000000E+00 0.  1.
         21   -1    0    0  501  502 -0.00000000000E+00 -0.00000000000E+00 -0.30226904731E+03  0.30226904731E+03  0.00000000000E+00 0.  1.
      99926    2    1    2    0    0  0.00000000000E+00  0.00000000000E+00 -0.13566756442E+03  0.46887053021E+03  0.44881386572E+03 0.  0.
      99925    2    3    3    0    0 -0.54813588234E+02  0.84587342290E+02 -0.42800187906E+02  0.28331351565E+03  0.26129512842E+03 0.  0.
         25    1    4    4    0    0 -0.54170326648E+01  0.14242713725E+02 -0.37376243922E+02  0.13144082641E+03  0.12509000000E+03 0.  0.
         25    1    3    3    0    0  0.54813588234E+02 -0.84587342290E+02 -0.92867376511E+02  0.18555701456E+03  0.12509000000E+03 0.  0.
         25    1    4    4    0    0 -0.49396555569E+02  0.70344628565E+02 -0.54239439840E+01  0.15187268924E+03  0.12509000000E+03 0.  0.
<mgrwt>
<rscale>  2 0.44881387E+03</rscale>
<asrwt>0</asrwt>
<pdfrwt beam="1">  1       21 0.24500219E-01 0.44881387E+03</pdfrwt>
<pdfrwt beam="2">  1       21 0.44451330E-01 0.44881387E+03</pdfrwt>
<totfact> 0.70938259E+04</totfact>
</mgrwt>
</event>
<event>
 7    0  0.4784406E-002  0.4546251E+03  0.7546771E-02  0.1026352E+00
         21   -1    0    0  502  501  0.00000000000E+00  0.00000000000E+00  0.42058608847E+03  0.42058608847E+03  0.00000000000E+00 0.  1.
         21   -1    0    0  501  502 -0.00000000000E+00 -0.00000000000E+00 -0.12285472760E+03  0.12285472760E+03  0.00000000000E+00 0.  1.
      99926    2    1    2    0    0 -0.71054273576E-14  0.14210854715E-13  0.29773136086E+03  0.54344081607E+03  0.45462507336E+03 0.  0.
      99925    2    3    3    0    0  0.46515380330E+02 -0.89711642261E+02  0.12733667808E+03  0.30914673722E+03  0.26295477973E+03 0.  0.
         25    1    4    4    0    0  0.34278564810E+02 -0.11372347086E+02  0.83573438171E+02  0.15471385830E+03  0.12509000000E+03 0.  0.
         25    1    3    3    0    0 -0.46515380330E+02  0.89711642261E+02  0.17039468278E+03  0.23429407885E+03  0.12509000000E+03 0.  0.
         25    1    4    4    0    0  0.12236815520E+02 -0.78339295176E+02  0.43763239908E+02  0.15443287891E+03  0.12509000000E+03 0.  0.
<mgrwt>
<rscale>  2 0.45462507E+03</rscale>
<asrwt>0</asrwt>
<pdfrwt beam="1">  1       21 0.61850895E-01 0.45462507E+03</pdfrwt>
<pdfrwt beam="2">  1       21 0.18066872E-01 0.45462507E+03</pdfrwt>
<totfact> 0.62487226E+04</totfact>
</mgrwt>
</event>
<event>
 7    0  0.4784406E-002  0.4756697E+03  0.7546771E-02  0.1020332E+00
         21   -1    0    0  502  501  0.00000000000E+00  0.00000000000E+00  0.25263713581E+03  0.25263713581E+03  0.00000000000E+00 0.  1.
         21   -1    0    0  501  502 -0.00000000000E+00 -0.00000000000E+00 -0.22389984272E+03  0.22389984272E+03  0.00000000000E+00 0.  1.
      99926    2    1    2    0    0  0.44408920985E-15 -0.71054273576E-14  0.28737293086E+02  0.47653697852E+03  0.47566969620E+03 0.  0.
      99925    2    3    3    0    0  0.36562334821E+01 -0.62572534230E+02 -0.98157505410E+02  0.28764947743E+03  0.26301831859E+03 0.  0.
         25    1    4    4    0    0 -0.14661167782E+01 -0.63998892520E+02 -0.78360891098E+02  0.16089109701E+03  0.12509000000E+03 0.  0.
         25    1    4    4    0    0  0.51223502603E+01  0.14263582909E+01 -0.19796614312E+02  0.12675838043E+03  0.12509000000E+03 0.  0.
         25    1    3    3    0    0 -0.36562334821E+01  0.62572534230E+02  0.12689479850E+03  0.18888750109E+03  0.12509000000E+03 0.  0.
<mgrwt>
<rscale>  2 0.47566970E+03</rscale>
<asrwt>0</asrwt>
<pdfrwt beam="1">  1       21 0.37152520E-01 0.47566970E+03</pdfrwt>
<pdfrwt beam="2">  1       21 0.32926447E-01 0.47566970E+03</pdfrwt>
<totfact> 0.56999502E+04</totfact>
</mgrwt>
</event>
<event>
 7    0  0.4784406E-002  0.4512660E+03  0.7546771E-02  0.1027345E+00
         21   -1    0    0  502  501  0.00000000000E+00  0.00000000000E+00  0.66475006983E+03  0.66475006983E+03  0.00000000000E+00 0.  1.
         21   -1    0    0  501  502 -0.00000000000E+00 -0.00000000000E+00 -0.76585555400E+02  0.76585555400E+02  0.00000000000E+00 0.  1.
      99926    2    1    2    0    0  0.00000000000E+00 -0.14210854715E-13  0.58816451443E+03  0.74133562523E+03  0.45126601157E+03 0.  0.
      99925    2    3    3    0    0  0.25395258920E+02  0.10420198090E+03  0.40875124621E+03  0.49773841484E+03  0.26298854790E+03 0.  0.
         25    1    4    4    0    0 -0.34140855279E+01  0.11807792421E+02  0.17256538570E+03  0.21348864228E+03  0.12509000000E+03 0.  0.
         25    1    4    4    0    0  0.28809344448E+02  0.92394188478E+02  0.23618586051E+03  0.28424977256E+03  0.12509000000E+03 0.  0.
         25    1    3    3    0    0 -0.25395258920E+02 -0.10420198090E+03  0.17941326822E+03  0.24359721040E+03  0.12509000000E+03 0.  0.
<mgrwt>
<rscale>  2 0.45126601E+03</rscale>
<asrwt>0</asrwt>
<pdfrwt beam="1">  1       21 0.97757360E-01 0.45126601E+03</pdfrwt>
<pdfrwt beam="2">  1       21 0.11262582E-01 0.45126601E+03</pdfrwt>
<totfact> 0.52231883E+04</totfact>
</mgrwt>
</event>
<event>
 7    0  0.4784406E-002  0.4560989E+03  0.7546771E-02  0.1025919E+00
         21   -1    0    0  502  501  0.00000000000E+00  0.00000000000E+00  0.10947901896E+03  0.10947901896E+03  0.00000000000E+00 0.  1.
         21   -1    0    0  501  502 -0.00000000000E+00 -0.00000000000E+00 -0.47503673057E+03  0.47503673057E+03  0.00000000000E+00 0.  1.
      99926    2    1    2    0    0  0.00000000000E+00  0.00000000000E+00 -0.36555771162E+03  0.58451574953E+03  0.45609891573E+03 0.  0.
      99925    2    3    3    0    0 -0.87305762789E+02 -0.71803534500E+02 -0.20813466818E+03  0.35384809578E+03  0.26288855244E+03 0.  0.
         25    1    4    4    0    0 -0.83369736987E+02 -0.25833539613E+02 -0.10290842072E+03  0.18399873904E+03  0.12509000000E+03 0.  0.
         25    1    3    3    0    0  0.87305762789E+02  0.71803534500E+02 -0.15742304344E+03  0.23066765376E+03  0.12509000000E+03 0.  0.
         25    1    4    4    0    0 -0.39360258025E+01 -0.45969994888E+02 -0.10522624746E+03  0.16984935673E+03  0.12509000000E+03 0.  0.
<mgrwt>
<rscale>  2 0.45609892E+03</rscale>
<asrwt>0</asrwt>
<pdfrwt beam="1">  1       21 0.16099856E-01 0.45609892E+03</pdfrwt>
<pdfrwt beam="2">  1       21 0.69858342E-01 0.45609892E+03</pdfrwt>
<totfact> 0.59126343E+04</totfact>
</mgrwt>
</event>
<event>
 7    0  0.4784406E-002  0.4483097E+03  0.7546771E-02  0.1028227E+00
         21   -1    0    0  502  501  0.00000000000E+00  0.00000000000E+00  0.73090228585E+03  0.73090228585E+03  0.00000000000E+00 0. -1.
         21   -1    0    0  501  502 -0.00000000000E+00 -0.00000000000E+00 -0.68744331544E+02  0.68744331544E+02  0.00000000000E+00 0. -1.
      99926    2    1    2    0    0  0.44408920985E-15  0.00000000000E+00  0.66215795430E+03  0.79964661739E+03  0.44830966559E+03 0.  0.
      99925    2    3    3    0    0  0.26374641995E+01 -0.90709328622E+02  0.31893483089E+03  0.42323625746E+03  0.26301019896E+03 0.  0.
         25    1    4    4    0    0  0.72103307929E+01 -0.39802678437E+02  0.96920739239E+02  0.16333211526E+03  0.12509000000E+03 0.  0.
         25    1    3    3    0    0 -0.26374641995E+01  0.90709328622E+02  0.34322312342E+03  0.37641035993E+03  0.12509000000E+03 0.  0.
         25    1    4    4    0    0 -0.45728665934E+01 -0.50906650185E+02  0.22201409165E+03  0.25990414220E+03  0.12509000000E+03 0.  0.
<mgrwt>
<rscale>  2 0.44830967E+03</rscale>
<asrwt>0</asrwt>
<pdfrwt beam="1">  1       21 0.10748563E+00 0.44830967E+03</pdfrwt>
<pdfrwt beam="2">  1       21 0.10109461E-01 0.44830967E+03</pdfrwt>
<totfact> 0.50375232E+04</totfact>
</mgrwt>
</event>
<event>
 7    0  0.4784406E-002  0.4527329E+03  0.7546771E-02  0.1026910E+00
         21   -1    0    0  502  501  0.00000000000E+00  0.00000000000E+00  0.11145588894E+03  0.11145588894E+03  0.00000000000E+00 0.  1.
         21   -1    0    0  501  502 -0.00000000000E+00 -0.00000000000E+00 -0.45974933307E+03  0.45974933307E+03  0.00000000000E+00 0.  1.
      99926    2    1    2    0    0  0.00000000000E+00  0.00000000000E+00 -0.34829344413E+03  0.57120522201E+03  0.45273290407E+03 0.  0.
      99925    2    3    3    0    0  0.23293513117E+02  0.22975545733E+02 -0.35346497785E+03  0.44180384521E+03  0.26302601320E+03 0.  0.
         25    1    4    4    0    0  0.41949122780E+02  0.20800957577E+02 -0.22402777537E+03  0.26082247022E+03  0.12509000000E+03 0.  0.
         25    1    4    4    0    0 -0.18655609664E+02  0.21745881560E+01 -0.12943720249E+03  0.18098137499E+03  0.12509000000E+03 0.  0.
         25    1    3    3    0    0 -0.23293513117E+02 -0.22975545733E+02  0.51715337216E+01  0.12940137679E+03  0.12509000000E+03 0.  0.
<mgrwt>
<rscale>  2 0.45273290E+03</rscale>
<asrwt>0</asrwt>
<pdfrwt beam="1">  1       21 0.16390572E-01 0.45273290E+03</pdfrwt>
<pdfrwt beam="2">  1       21 0.67610196E-01 0.45273290E+03</pdfrwt>
<totfact> 0.61583225E+04</totfact>
</mgrwt>
</event>
<event>
 7    0  0.4784406E-002  0.4569971E+03  0.7546771E-02  0.1025656E+00
         21   -1    0    0  502  501  0.00000000000E+00  0.00000000000E+00  0.20320773630E+03  0.20320773630E+03  0.00000000000E+00 0. -1.
         21   -1    0    0  501  502 -0.00000000000E+00 -0.00000000000E+00 -0.25693704242E+03  0.25693704242E+03  0.00000000000E+00 0. -1.
      99926    2    1    2    0    0 -0.14210854715E-13  0.71054273576E-14 -0.53729306122E+02  0.46014477872E+03  0.45699713243E+03 0.  0.
      99925    2    3    3    0    0 -0.10043361291E+03  0.47780157070E+02 -0.63225136539E+02  0.29249176531E+03  0.26302882137E+03 0.  0.
         25    1    4    4    0    0 -0.16196828325E+02 -0.20501353994E+01 -0.18609374421E+02  0.12751610572E+03  0.12509000000E+03 0.  0.
         25    1    3    3    0    0  0.10043361291E+03 -0.47780157070E+02  0.94958304170E+01  0.16765301342E+03  0.12509000000E+03 0.  0.
         25    1    4    4    0    0 -0.84236784589E+02  0.49830292469E+02 -0.44615762118E+02  0.16497565958E+03  0.12509000000E+03 0.  0.
<mgrwt>
<rscale>  2 0.45699713E+03</rscale>
<asrwt>0</asrwt>
<pdfrwt beam="1">  1       21 0.29883490E-01 0.45699713E+03</pdfrwt>
<pdfrwt beam="2">  1       21 0.37784859E-01 0.45699713E+03</pdfrwt>
<totfact> 0.67094942E+04</totfact>
</mgrwt>
</event>
<event>
 7    0  0.4784406E-002  0.4015167E+03  0.7546771E-02  0.1043256E+00
         21   -1    0    0  502  501  0.00000000000E+00  0.00000000000E+00  0.26975965526E+03  0.26975965526E+03  0.00000000000E+00 0.  1.
         21   -1    0    0  501  502 -0.00000000000E+00 -0.00000000000E+00 -0.14940676619E+03  0.14940676619E+03  0.00000000000E+00 0.  1.
      99926    2    1    2    0    0  0.00000000000E+00  0.00000000000E+00  0.12035288906E+03  0.41916642145E+03  0.40151671318E+03 0.  0.
      99925    2    3    3    0    0  0.46897223347E+02 -0.11355512382E+01  0.66796790227E+02  0.27523448317E+03  0.26285275442E+03 0.  0.
         25    1    4    4    0    0 -0.16175308396E+02  0.87337350155E+01  0.27298466200E+02  0.12934694850E+03  0.12509000000E+03 0.  0.
         25    1    3    3    0    0 -0.46897223347E+02  0.11355512382E+01  0.53556098835E+02  0.14393193828E+03  0.12509000000E+03 0.  0.
         25    1    4    4    0    0  0.63072531743E+02 -0.98692862537E+01  0.39498324027E+02  0.14588753467E+03  0.12509000000E+03 0.  0.
<mgrwt>
<rscale>  2 0.40151671E+03</rscale>
<asrwt>0</asrwt>
<pdfrwt beam="1">  1       21 0.39670538E-01 0.40151671E+03</pdfrwt>
<pdfrwt beam="2">  1       21 0.21971583E-01 0.40151671E+03</pdfrwt>
<totfact> 0.11185149E+05</totfact>
</mgrwt>
</event>
<event>
 7    0  0.4784406E-002  0.4475141E+03  0.7546771E-02  0.1028466E+00
         21   -1    0    0  502  501  0.00000000000E+00  0.00000000000E+00  0.75829733884E+02  0.75829733884E+02  0.00000000000E+00 0.  1.
         21   -1    0    0  501  502 -0.00000000000E+00 -0.00000000000E+00 -0.66025834380E+03  0.66025834380E+03  0.00000000000E+00 0.  1.
      99926    2    1    2    0    0  0.00000000000E+00  0.00000000000E+00 -0.58442860991E+03  0.73608807768E+03  0.44751408695E+03 0.  0.
      99925    2    3    3    0    0  0.38126939391E+02  0.61981641979E+02 -0.24330443118E+03  0.36553632574E+03  0.26291514174E+03 0.  0.
         25    1    4    4    0    0  0.18967829197E+02  0.29668330093E+02 -0.67242490307E+02  0.14631831381E+03  0.12509000000E+03 0.  0.
         25    1    4    4    0    0  0.19159110195E+02  0.32313311886E+02 -0.17606194087E+03  0.21921801192E+03  0.12509000000E+03 0.  0.
         25    1    3    3    0    0 -0.38126939391E+02 -0.61981641979E+02 -0.34112417873E+03  0.37055175194E+03  0.12509000000E+03 0.  0.
<mgrwt>
<rscale>  2 0.44751409E+03</rscale>
<asrwt>0</asrwt>
<pdfrwt beam="1">  1       21 0.11151431E-01 0.44751409E+03</pdfrwt>
<pdfrwt beam="2">  1       21 0.97096816E-01 0.44751409E+03</pdfrwt>
<totfact> 0.54101608E+04</totfact>
</mgrwt>
</event>
<event>
 7    0  0.4784406E-002  0.4541651E+03  0.7546771E-02  0.1026487E+00
         21   -1    0    0  502  501  0.00000000000E+00  0.00000000000E+00  0.63833160118E+03  0.63833160118E+03  0.00000000000E+00 0.  1.
         21   -1    0    0  501  502 -0.00000000000E+00 -0.00000000000E+00 -0.80783232332E+02  0.80783232332E+02  0.00000000000E+00 0.  1.
      99926    2    1    2    0    0  0.71054273576E-14  0.00000000000E+00  0.55754836885E+03  0.71911483352E+03  0.45416512435E+03 0.  0.
      99925    2    3    3    0    0  0.49171273557E+02  0.28118718900E+02  0.19757352340E+03  0.33383847303E+03  0.26306720135E+03 0.  0.
         25    1    4    4    0    0  0.12460505704E+02  0.41212019876E+02  0.64825335641E+02  0.14732116965E+03  0.12509000000E+03 0.  0.
         25    1    4    4    0    0  0.36710767853E+02 -0.13093300976E+02  0.13274818776E+03  0.18651730338E+03  0.12509000000E+03 0.  0.
         25    1    3    3    0    0 -0.49171273557E+02 -0.28118718900E+02  0.35997484545E+03  0.38527636049E+03  0.12509000000E+03 0.  0.
<mgrwt>
<rscale>  2 0.45416512E+03</rscale>
<asrwt>0</asrwt>
<pdfrwt beam="1">  1       21 0.93872292E-01 0.45416512E+03</pdfrwt>
<pdfrwt beam="2">  1       21 0.11879887E-01 0.45416512E+03</pdfrwt>
<totfact> 0.52219520E+04</totfact>
</mgrwt>
</event>
<event>
 7    0  0.4784406E-002  0.4574752E+03  0.7546771E-02  0.1025516E+00
         21   -1    0    0  502  501  0.00000000000E+00  0.00000000000E+00  0.26121509119E+02  0.26121509119E+02  0.00000000000E+00 0. -1.
         21   -1    0    0  501  502 -0.00000000000E+00 -0.00000000000E+00 -0.20029812607E+04  0.20029812607E+04  0.00000000000E+00 0. -1.
      99926    2    1    2    0    0  0.00000000000E+00  0.00000000000E+00 -0.19768597516E+04  0.20291027698E+04  0.45747521580E+03 0.  0.
      99925    2    3    3    0    0 -0.73593967761E+02  0.37820982831E+02 -0.88362219145E+03  0.92562537095E+03  0.26295940997E+03 0.  0.
         25    1    4    4    0    0 -0.57446903824E+01  0.31715700488E+02 -0.34184852577E+03  0.36544056944E+03  0.12509000000E+03 0.  0.
         25    1    3    3    0    0  0.73593967761E+02 -0.37820982831E+02 -0.10932375601E+04  0.11034773989E+04  0.12509000000E+03 0.  0.
         25    1    4    4    0    0 -0.67849277378E+02  0.61052823425E+01 -0.54177366568E+03  0.56018480151E+03  0.12509000000E+03 0.  0.
<mgrwt>
<rscale>  2 0.45747522E+03</rscale>
<asrwt>0</asrwt>
<pdfrwt beam="1">  1       21 0.38413966E-02 0.45747522E+03</pdfrwt>
<pdfrwt beam="2">  1       21 0.29455621E+00 0.45747522E+03</pdfrwt>
<totfact> 0.12988935E+04</totfact>
</mgrwt>
</event>
<event>
 7    0  0.4784406E-002  0.4538743E+03  0.7546771E-02  0.1026573E+00
         21   -1    0    0  502  501  0.00000000000E+00  0.00000000000E+00  0.12505318522E+03  0.12505318522E+03  0.00000000000E+00 0. -1.
         21   -1    0    0  501  502 -0.00000000000E+00 -0.00000000000E+00 -0.41182856705E+03  0.41182856705E+03  0.00000000000E+00 0. -1.
      99926    2    1    2    0    0 -0.35527136788E-14  0.14210854715E-13 -0.28677538183E+03  0.53688175227E+03  0.45387431773E+03 0.  0.
      99925    2    3    3    0    0  0.29321055588E+02 -0.99978300720E+02 -0.22960426997E+03  0.36433776064E+03  0.26299904586E+03 0.  0.
         25    1    4    4    0    0  0.74857674551E+01 -0.15769948020E+02 -0.73178594747E+02  0.14597034906E+03  0.12509000000E+03 0.  0.
         25    1    3    3    0    0 -0.29321055588E+02  0.99978300720E+02 -0.57171111859E+02  0.17254399163E+03  0.12509000000E+03 0.  0.
         25    1    4    4    0    0  0.21835288133E+02 -0.84208352701E+02 -0.15642567522E+03  0.21836741158E+03  0.12509000000E+03 0.  0.
<mgrwt>
<rscale>  2 0.45387432E+03</rscale>
<asrwt>0</asrwt>
<pdfrwt beam="1">  1       21 0.18390175E-01 0.45387432E+03</pdfrwt>
<pdfrwt beam="2">  1       21 0.60563023E-01 0.45387432E+03</pdfrwt>
<totfact> 0.63303897E+04</totfact>
</mgrwt>
</event>
<event>
 7    0  0.4784406E-002  0.4360790E+03  0.7546771E-02  0.1031957E+00
         21   -1    0    0  502  501  0.00000000000E+00  0.00000000000E+00  0.40903796175E+03  0.40903796175E+03  0.00000000000E+00 0. -1.
         21   -1    0    0  501  502 -0.00000000000E+00 -0.00000000000E+00 -0.11622690468E+03  0.11622690468E+03  0.00000000000E+00 0. -1.
      99926    2    1    2    0    0  0.00000000000E+00  0.00000000000E+00  0.29281105707E+03  0.52526486643E+03  0.43607896620E+03 0.  0.
      99925    2    3    3    0    0 -0.19543150331E+02  0.92104416893E+02  0.19312825993E+03  0.33965956888E+03  0.26306831738E+03 0.  0.
         25    1    4    4    0    0 -0.49732591914E+02  0.52959072494E+02  0.10724738689E+03  0.18007638422E+03  0.12509000000E+03 0.  0.
         25    1    4    4    0    0  0.30189441583E+02  0.39145344399E+02  0.85880873044E+02  0.15958318466E+03  0.12509000000E+03 0.  0.
         25    1    3    3    0    0  0.19543150331E+02 -0.92104416893E+02  0.99682797135E+02  0.18560529756E+03  0.12509000000E+03 0.  0.
<mgrwt>
<rscale>  2 0.43607897E+03</rscale>
<asrwt>0</asrwt>
<pdfrwt beam="1">  1       21 0.60152641E-01 0.43607897E+03</pdfrwt>
<pdfrwt beam="2">  1       21 0.17092192E-01 0.43607897E+03</pdfrwt>
<totfact> 0.74009863E+04</totfact>
</mgrwt>
</event>
<event>
 7    0  0.4784406E-002  0.3940820E+03  0.7546771E-02  0.1045848E+00
         21   -1    0    0  502  501  0.00000000000E+00  0.00000000000E+00  0.40093488743E+03  0.40093488743E+03  0.00000000000E+00 0.  1.
         21   -1    0    0  501  502 -0.00000000000E+00 -0.00000000000E+00 -0.96836563778E+02  0.96836563778E+02  0.00000000000E+00 0.  1.
      99926    2    1    2    0    0  0.00000000000E+00 -0.35527136788E-14  0.30409832365E+03  0.49777145121E+03  0.39408200567E+03 0.  0.
      99925    2    3    3    0    0  0.20842812234E+01  0.30823340792E+02  0.19289641813E+03  0.32757217255E+03  0.26294500857E+03 0.  0.
         25    1    4    4    0    0  0.19005607722E+01 -0.18646636070E+02  0.66106904660E+02  0.14271979579E+03  0.12509000000E+03 0.  0.
         25    1    4    4    0    0  0.18372045120E+00  0.49469976862E+02  0.12678951347E+03  0.18485237675E+03  0.12509000000E+03 0.  0.
         25    1    3    3    0    0 -0.20842812234E+01 -0.30823340792E+02  0.11120190551E+03  0.17019927866E+03  0.12509000000E+03 0.  0.
<mgrwt>
<rscale>  2 0.39408201E+03</rscale>
<asrwt>0</asrwt>
<pdfrwt beam="1">  1       21 0.58961012E-01 0.39408201E+03</pdfrwt>
<pdfrwt beam="2">  1       21 0.14240671E-01 0.39408201E+03</pdfrwt>
<totfact> 0.10948195E+05</totfact>
</mgrwt>
</event>
<event>
 7    0  0.4784406E-002  0.4368508E+03  0.7546771E-02  0.1031717E+00
         21   -1    0    0  502  501  0.00000000000E+00  0.00000000000E+00  0.32694765187E+02  0.32694765187E+02  0.00000000000E+00 0. -1.
         21   -1    0    0  501  502 -0.00000000000E+00 -0.00000000000E+00 -0.14592447772E+04  0.14592447772E+04  0.00000000000E+00 0. -1.
      99926    2    1    2    0    0  0.00000000000E+00 -0.71054273576E-14 -0.14265500121E+04  0.14919395424E+04  0.43685084568E+03 0.  0.
      99925    2    3    3    0    0  0.37258417249E+02  0.49018211358E+02 -0.66402394121E+03  0.71677214662E+03  0.26276137649E+03 0.  0.
         25    1    4    4    0    0 -0.70806677899E-01  0.95903047941E+01 -0.40583377964E+03  0.42478293722E+03  0.12509000000E+03 0.  0.
         25    1    3    3    0    0 -0.37258417249E+02 -0.49018211358E+02 -0.76252607085E+03  0.77516739581E+03  0.12509000000E+03 0.  0.
         25    1    4    4    0    0  0.37329223927E+02  0.39427906564E+02 -0.25819016157E+03  0.29198920940E+03  0.12509000000E+03 0.  0.
<mgrwt>
<rscale>  2 0.43685085E+03</rscale>
<asrwt>0</asrwt>
<pdfrwt beam="1">  1       21 0.48080551E-02 0.43685085E+03</pdfrwt>
<pdfrwt beam="2">  1       21 0.21459476E+00 0.43685085E+03</pdfrwt>
<totfact> 0.27678688E+04</totfact>
</mgrwt>
</event>
<event>
 7    0  0.4784406E-002  0.4552340E+03  0.7546771E-02  0.1026173E+00
         21   -1    0    0  502  501  0.00000000000E+00  0.00000000000E+00  0.30692500246E+02  0.30692500246E+02  0.00000000000E+00 0. -1.
         21   -1    0    0  501  502 -0.00000000000E+00 -0.00000000000E+00 -0.16880181861E+04  0.16880181861E+04  0.00000000000E+00 0. -1.
      99926    2    1    2    0    0  0.14210854715E-13  0.00000000000E+00 -0.16573256858E+04  0.17187106863E+04  0.45523399957E+03 0.  0.
      99925    2    3    3    0    0  0.87291066082E+02 -0.69333964464E+02 -0.96188418573E+03  0.10033692874E+04  0.26287223379E+03 0.  0.
         25    1    4    4    0    0  0.20471501332E+02 -0.27423784452E+02 -0.33372489284E+03  0.35803764959E+03  0.12509000000E+03 0.  0.
         25    1    4    4    0    0  0.66819564750E+02 -0.41910180012E+02 -0.62815929289E+03  0.64533163782E+03  0.12509000000E+03 0.  0.
         25    1    3    3    0    0 -0.87291066082E+02  0.69333964464E+02 -0.69544150009E+03  0.71534139890E+03  0.12509000000E+03 0.  0.
<mgrwt>
<rscale>  2 0.45523400E+03</rscale>
<asrwt>0</asrwt>
<pdfrwt beam="1">  1       21 0.45136021E-02 0.45523400E+03</pdfrwt>
<pdfrwt beam="2">  1       21 0.24823802E+00 0.45523400E+03</pdfrwt>
<totfact> 0.18840712E+04</totfact>
</mgrwt>
</event>
<event>
 7    0  0.4784406E-002  0.4595498E+03  0.7546771E-02  0.1024912E+00
         21   -1    0    0  502  501  0.00000000000E+00  0.00000000000E+00  0.15840798585E+03  0.15840798585E+03  0.00000000000E+00 0.  1.
         21   -1    0    0  501  502 -0.00000000000E+00 -0.00000000000E+00 -0.33329450154E+03  0.33329450154E+03  0.00000000000E+00 0.  1.
      99926    2    1    2    0    0  0.00000000000E+00  0.00000000000E+00 -0.17488651569E+03  0.49170248739E+03  0.45954982617E+03 0.  0.
      99925    2    3    3    0    0 -0.11186143584E+02 -0.15935473053E+02  0.14263973866E+02  0.26409650129E+03  0.26299131532E+03 0.  0.
         25    1    4    4    0    0  0.18043738253E+01 -0.30911962374E+01  0.46722897788E+02  0.13357899736E+03  0.12509000000E+03 0.  0.
         25    1    3    3    0    0  0.11186143584E+02  0.15935473053E+02 -0.18915048955E+03  0.22760598610E+03  0.12509000000E+03 0.  0.
         25    1    4    4    0    0 -0.12990517409E+02 -0.12844276816E+02 -0.32458923922E+02  0.13051750393E+03  0.12509000000E+03 0.  0.
<mgrwt>
<rscale>  2 0.45954983E+03</rscale>
<asrwt>0</asrwt>
<pdfrwt beam="1">  1       21 0.23295292E-01 0.45954983E+03</pdfrwt>
<pdfrwt beam="2">  1       21 0.49013897E-01 0.45954983E+03</pdfrwt>
<totfact> 0.63531683E+04</totfact>
</mgrwt>
</event>
<event>
 7    0  0.4784406E-002  0.4575389E+03  0.7546771E-02  0.1025497E+00
         21   -1    0    0  502  501  0.00000000000E+00  0.00000000000E+00  0.49177529450E+03  0.49177529450E+03  0.00000000000E+00 0. -1.
         21   -1    0    0  501  502 -0.00000000000E+00 -0.00000000000E+00 -0.10642151309E+03  0.10642151309E+03  0.00000000000E+00 0. -1.
      99926    2    1    2    0    0  0.00000000000E+00  0.00000000000E+00  0.38535378140E+03  0.59819680759E+03  0.45753894236E+03 0.  0.
      99925    2    3    3    0    0 -0.65000641455E+02  0.85046788575E+02  0.29876289691E+03  0.41217656941E+03  0.26300611431E+03 0.  0.
         25    1    4    4    0    0 -0.63077991631E+00  0.31975692381E+02  0.17475540867E+03  0.21727817136E+03  0.12509000000E+03 0.  0.
         25    1    3    3    0    0  0.65000641455E+02 -0.85046788575E+02  0.86590884492E+02  0.18602023818E+03  0.12509000000E+03 0.  0.
         25    1    4    4    0    0 -0.64369861538E+02  0.53071096194E+02  0.12400748824E+03  0.19489839806E+03  0.12509000000E+03 0.  0.
<mgrwt>
<rscale>  2 0.45753894E+03</rscale>
<asrwt>0</asrwt>
<pdfrwt beam="1">  1       21 0.72319895E-01 0.45753894E+03</pdfrwt>
<pdfrwt beam="2">  1       21 0.15650223E-01 0.45753894E+03</pdfrwt>
<totfact> 0.57624593E+04</totfact>
</mgrwt>
</event>
<event>
 7    0  0.4784406E-002  0.4550642E+03  0.7546771E-02  0.1026223E+00
         21   -1    0    0  502  501  0.00000000000E+00  0.00000000000E+00  0.26142235570E+03  0.26142235570E+03  0.00000000000E+00 0.  1.
         21   -1    0    0  501  502 -0.00000000000E+00 -0.00000000000E+00 -0.19803533192E+03  0.19803533192E+03  0.00000000000E+00 0.  1.
      99926    2    1    2    0    0 -0.17763568394E-14 -0.71054273576E-14  0.63387023781E+02  0.45945768762E+03  0.45506422836E+03 0.  0.
      99925    2    3    3    0    0  0.63457024342E+01  0.52546566725E+02  0.14087417922E+03  0.30308257141E+03  0.26308192850E+03 0.  0.
         25    1    4    4    0    0 -0.14783233481E+02 -0.67748875154E+01  0.85999434018E+02  0.15266909918E+03  0.12509000000E+03 0.  0.
         25    1    3    3    0    0 -0.63457024342E+01 -0.52546566725E+02 -0.77487155440E+02  0.15637511622E+03  0.12509000000E+03 0.  0.
         25    1    4    4    0    0  0.21128935915E+02  0.59321454240E+02  0.54874745203E+02  0.15041347223E+03  0.12509000000E+03 0.  0.
<mgrwt>
<rscale>  2 0.45506423E+03</rscale>
<asrwt>0</asrwt>
<pdfrwt beam="1">  1       21 0.38444464E-01 0.45506423E+03</pdfrwt>
<pdfrwt beam="2">  1       21 0.29122843E-01 0.45506423E+03</pdfrwt>
<totfact> 0.68185183E+04</totfact>
</mgrwt>
</event>
<event>
 7    0  0.4784406E-002  0.4593605E+03  0.7546771E-02  0.1024967E+00
         21   -1    0    0  502  501  0.00000000000E+00  0.00000000000E+00  0.14569290745E+03  0.14569290745E+03  0.00000000000E+00 0.  1.
         21   -1    0    0  501  502 -0.00000000000E+00 -0.00000000000E+00 -0.36208363348E+03  0.36208363348E+03  0.00000000000E+00 0.  1.
      99926    2    1    2    0    0  0.00000000000E+00 -0.17763568394E-14 -0.21639072604E+03  0.50777654093E+03  0.45936050027E+03 0.  0.
      99925    2    3    3    0    0 -0.10597325523E+02  0.15546361261E+02 -0.79775736466E+01  0.26397838088E+03  0.26318615319E+03 0.  0.
         25    1    4    4    0    0 -0.30562416937E+02  0.34197599292E+02 -0.22496017519E+02  0.13511889591E+03  0.12509000000E+03 0.  0.
         25    1    3    3    0    0  0.10597325523E+02 -0.15546361261E+02 -0.20841315239E+03  0.24379816005E+03  0.12509000000E+03 0.  0.
         25    1    4    4    0    0  0.19965091414E+02 -0.18651238031E+02  0.14518443873E+02  0.12885948497E+03  0.12509000000E+03 0.  0.
<mgrwt>
<rscale>  2 0.45936050E+03</rscale>
<asrwt>0</asrwt>
<pdfrwt beam="1">  1       21 0.21425428E-01 0.45936050E+03</pdfrwt>
<pdfrwt beam="2">  1       21 0.53247592E-01 0.45936050E+03</pdfrwt>
<totfact> 0.62535167E+04</totfact>
</mgrwt>
</event>
<event>
 7    0  0.4784406E-002  0.3999078E+03  0.7546771E-02  0.1043812E+00
         21   -1    0    0  502  501  0.00000000000E+00  0.00000000000E+00  0.77071772938E+03  0.77071772938E+03  0.00000000000E+00 0. -1.
         21   -1    0    0  501  502 -0.00000000000E+00 -0.00000000000E+00 -0.51875761390E+02  0.51875761390E+02  0.00000000000E+00 0. -1.
      99926    2    1    2    0    0  0.00000000000E+00  0.35527136788E-14  0.71884196799E+03  0.82259349077E+03  0.39990783452E+03 0.  0.
      99925    2    3    3    0    0 -0.40032065917E+02 -0.21317141437E+02  0.48202162259E+03  0.55095334109E+03  0.26295960259E+03 0.  0.
         25    1    4    4    0    0  0.44357601231E+01  0.21670306190E+02  0.24201382080E+03  0.27332668311E+03  0.12509000000E+03 0.  0.
         25    1    3    3    0    0  0.40032065917E+02  0.21317141437E+02  0.23682034540E+03  0.27164014967E+03  0.12509000000E+03 0.  0.
         25    1    4    4    0    0 -0.44467826040E+02 -0.42987447627E+02  0.24000780179E+03  0.27762665799E+03  0.12509000000E+03 0.  0.
<mgrwt>
<rscale>  2 0.39990783E+03</rscale>
<asrwt>0</asrwt>
<pdfrwt beam="1">  1       21 0.11334084E+00 0.39990783E+03</pdfrwt>
<pdfrwt beam="2">  1       21 0.76287889E-02 0.39990783E+03</pdfrwt>
<totfact> 0.73773014E+04</totfact>
</mgrwt>
</event>
<event>
 7    0  0.4784406E-002  0.4546598E+03  0.7546771E-02  0.1026342E+00
         21   -1    0    0  502  501  0.00000000000E+00  0.00000000000E+00  0.48774381327E+03  0.48774381327E+03  0.00000000000E+00 0. -1.
         21   -1    0    0  501  502 -0.00000000000E+00 -0.00000000000E+00 -0.10595495387E+03  0.10595495387E+03  0.00000000000E+00 0. -1.
      99926    2    1    2    0    0 -0.14210854715E-13  0.00000000000E+00  0.38178885940E+03  0.59369876714E+03  0.45465975514E+03 0.  0.
      99925    2    3    3    0    0 -0.84874017791E+02  0.71446927863E+02  0.21512526630E+03  0.35762139898E+03  0.26326018006E+03 0.  0.
         25    1    4    4    0    0 -0.20636771245E+01  0.41697991615E+02  0.11356879536E+03  0.17403551548E+03  0.12509000000E+03 0.  0.
         25    1    4    4    0    0 -0.82810340667E+02  0.29748936248E+02  0.10155647094E+03  0.18358588350E+03  0.12509000000E+03 0.  0.
         25    1    3    3    0    0  0.84874017791E+02 -0.71446927863E+02  0.16666359310E+03  0.23607736817E+03  0.12509000000E+03 0.  0.
<mgrwt>
<rscale>  2 0.45465976E+03</rscale>
<asrwt>0</asrwt>
<pdfrwt beam="1">  1       21 0.71727030E-01 0.45465976E+03</pdfrwt>
<pdfrwt beam="2">  1       21 0.15581611E-01 0.45465976E+03</pdfrwt>
<totfact> 0.59226901E+04</totfact>
</mgrwt>
</event>
<event>
 7    0  0.4784406E-002  0.4580167E+03  0.7546771E-02  0.1025358E+00
         21   -1    0    0  502  501  0.00000000000E+00  0.00000000000E+00  0.39922237696E+02  0.39922237696E+02  0.00000000000E+00 0. -1.
         21   -1    0    0  501  502 -0.00000000000E+00 -0.00000000000E+00 -0.13136744895E+04  0.13136744895E+04  0.00000000000E+00 0. -1.
      99926    2    1    2    0    0  0.00000000000E+00  0.00000000000E+00 -0.12737522518E+04  0.13535967272E+04  0.45801670374E+03 0.  0.
      99925    2    3    3    0    0  0.67598777073E+02 -0.91233513243E+02 -0.73119117651E+03  0.78534222689E+03  0.26311352706E+03 0.  0.
         25    1    3    3    0    0 -0.67598777073E+02  0.91233513243E+02 -0.54256107531E+03  0.56825450033E+03  0.12509000000E+03 0.  0.
         25    1    4    4    0    0  0.74146277213E+02 -0.37732040391E+02 -0.37161285317E+03  0.40083038562E+03  0.12509000000E+03 0.  0.
         25    1    4    4    0    0 -0.65475001407E+01 -0.53501472852E+02 -0.35957832335E+03  0.38451184127E+03  0.12509000000E+03 0.  0.
<mgrwt>
<rscale>  2 0.45801670E+03</rscale>
<asrwt>0</asrwt>
<pdfrwt beam="1">  1       21 0.58709182E-02 0.45801670E+03</pdfrwt>
<pdfrwt beam="2">  1       21 0.19318740E+00 0.45801670E+03</pdfrwt>
<totfact> 0.26957537E+04</totfact>
</mgrwt>
</event>
<event>
 7    0  0.4784406E-002  0.4436511E+03  0.7546771E-02  0.1029632E+00
         21   -1    0    0  502  501  0.00000000000E+00  0.00000000000E+00  0.15274508317E+03  0.15274508317E+03  0.00000000000E+00 0. -1.
         21   -1    0    0  501  502 -0.00000000000E+00 -0.00000000000E+00 -0.32214830069E+03  0.32214830069E+03  0.00000000000E+00 0. -1.
      99926    2    1    2    0    0 -0.14210854715E-13 -0.17763568394E-14 -0.16940321753E+03  0.47489338386E+03  0.44365107453E+03 0.  0.
      99925    2    3    3    0    0  0.10144659000E+03 -0.72682410080E+01 -0.11697461920E+03  0.30536313885E+03  0.26309569948E+03 0.  0.
         25    1    4    4    0    0  0.13444830961E+02  0.16141807331E+02 -0.43643366150E+02  0.13414012424E+03  0.12509000000E+03 0.  0.
         25    1    4    4    0    0  0.88001759043E+02 -0.23410048339E+02 -0.73331253047E+02  0.17122301461E+03  0.12509000000E+03 0.  0.
         25    1    3    3    0    0 -0.10144659000E+03  0.72682410080E+01 -0.52428598330E+02  0.16953024501E+03  0.12509000000E+03 0.  0.
<mgrwt>
<rscale>  2 0.44365107E+03</rscale>
<asrwt>0</asrwt>
<pdfrwt beam="1">  1       21 0.22462512E-01 0.44365107E+03</pdfrwt>
<pdfrwt beam="2">  1       21 0.47374750E-01 0.44365107E+03</pdfrwt>
<totfact> 0.73472717E+04</totfact>
</mgrwt>
</event>
<event>
 7    0  0.4784406E-002  0.4379038E+03  0.7546771E-02  0.1031392E+00
         21   -1    0    0  502  501  0.00000000000E+00  0.00000000000E+00  0.61252327072E+03  0.61252327072E+03  0.00000000000E+00 0.  1.
         21   -1    0    0  501  502 -0.00000000000E+00 -0.00000000000E+00 -0.78266304888E+02  0.78266304888E+02  0.00000000000E+00 0.  1.
      99926    2    1    2    0    0  0.00000000000E+00  0.00000000000E+00  0.53425696583E+03  0.69078957560E+03  0.43790379335E+03 0.  0.
      99925    2    3    3    0    0  0.42906248778E+02 -0.15208144252E+02  0.20804513979E+03  0.33846316816E+03  0.26306330450E+03 0.  0.
         25    1    3    3    0    0 -0.42906248778E+02  0.15208144252E+02  0.32621182604E+03  0.35232640744E+03  0.12509000000E+03 0.  0.
         25    1    4    4    0    0 -0.33701150120E+01 -0.20189727490E+02  0.13927661240E+03  0.18832011479E+03  0.12509000000E+03 0.  0.
         25    1    4    4    0    0  0.46276363790E+02  0.49815832382E+01  0.68768527393E+02  0.15014305338E+03  0.12509000000E+03 0.  0.
<mgrwt>
<rscale>  2 0.43790379E+03</rscale>
<asrwt>0</asrwt>
<pdfrwt beam="1">  1       21 0.90076949E-01 0.43790379E+03</pdfrwt>
<pdfrwt beam="2">  1       21 0.11509751E-01 0.43790379E+03</pdfrwt>
<totfact> 0.61240522E+04</totfact>
</mgrwt>
</event>
<event>
 7    0  0.4784406E-002  0.4541497E+03  0.7546771E-02  0.1026492E+00
         21   -1    0    0  502  501  0.00000000000E+00  0.00000000000E+00  0.81329656926E+03  0.81329656926E+03  0.00000000000E+00 0.  1.
         21   -1    0    0  501  502 -0.00000000000E+00 -0.00000000000E+00 -0.63399978120E+02  0.63399978120E+02  0.00000000000E+00 0.  1.
      99926    2    1    2    0    0  0.00000000000E+00  0.00000000000E+00  0.74989659114E+03  0.87669654737E+03  0.45414968764E+03 0.  0.
      99925    2    3    3    0    0 -0.91303212279E+02  0.63411667519E+02  0.50348276580E+03  0.57882980273E+03  0.26304320732E+03 0.  0.
         25    1    4    4    0    0 -0.48626514636E+02 -0.62169207085E+01  0.27120691141E+03  0.30266133702E+03  0.12509000000E+03 0.  0.
         25    1    4    4    0    0 -0.42676697642E+02  0.69628588227E+02  0.23227585439E+03  0.27616846571E+03  0.12509000000E+03 0.  0.
         25    1    3    3    0    0  0.91303212279E+02 -0.63411667519E+02  0.24641382533E+03  0.29786674465E+03  0.12509000000E+03 0.  0.
<mgrwt>
<rscale>  2 0.45414969E+03</rscale>
<asrwt>0</asrwt>
<pdfrwt beam="1">  1       21 0.11960243E+00 0.45414969E+03</pdfrwt>
<pdfrwt beam="2">  1       21 0.93235267E-02 0.45414969E+03</pdfrwt>
<totfact> 0.44552597E+04</totfact>
</mgrwt>
</event>
<event>
 7    0  0.4784406E-002  0.4561313E+03  0.7546771E-02  0.1025909E+00
         21   -1    0    0  502  501  0.00000000000E+00  0.00000000000E+00  0.10167691602E+03  0.10167691602E+03  0.00000000000E+00 0. -1.
         21   -1    0    0  501  502 -0.00000000000E+00 -0.00000000000E+00 -0.51156101919E+03  0.51156101919E+03  0.00000000000E+00 0. -1.
      99926    2    1    2    0    0  0.00000000000E+00  0.00000000000E+00 -0.40988410316E+03  0.61323793521E+03  0.45613132665E+03 0.  0.
      99925    2    3    3    0    0 -0.67451771953E+02 -0.87821500499E+02 -0.29537454575E+03  0.41069829877E+03  0.26299165927E+03 0.  0.
         25    1    4    4    0    0 -0.52349366363E+02 -0.13735828783E+02 -0.17177909276E+03  0.21928222445E+03  0.12509000000E+03 0.  0.
         25    1    3    3    0    0  0.67451771953E+02  0.87821500499E+02 -0.11450955741E+03  0.20253963644E+03  0.12509000000E+03 0.  0.
         25    1    4    4    0    0 -0.15102405590E+02 -0.74085671716E+02 -0.12359545300E+03  0.19141607432E+03  0.12509000000E+03 0.  0.
<mgrwt>
<rscale>  2 0.45613133E+03</rscale>
<asrwt>0</asrwt>
<pdfrwt beam="1">  1       21 0.14952487E-01 0.45613133E+03</pdfrwt>
<pdfrwt beam="2">  1       21 0.75229563E-01 0.45613133E+03</pdfrwt>
<totfact> 0.57356523E+04</totfact>
</mgrwt>
</event>
<event>
 7    0  0.4784406E-002  0.4561523E+03  0.7546771E-02  0.1025903E+00
         21   -1    0    0  502  501  0.00000000000E+00  0.00000000000E+00  0.18191075241E+03  0.18191075241E+03  0.00000000000E+00 0.  1.
         21   -1    0    0  501  502 -0.00000000000E+00 -0.00000000000E+00 -0.28595741628E+03  0.28595741628E+03  0.00000000000E+00 0.  1.
      99926    2    1    2    0    0  0.00000000000E+00  0.00000000000E+00 -0.10404666387E+03  0.46786816868E+03  0.45615229365E+03 0.  0.
      99925    2    3    3    0    0  0.47982106040E+02  0.79505784937E+02  0.31101554063E+01  0.27878209210E+03  0.26284278471E+03 0.  0.
         25    1    4    4    0    0 -0.53274594338E+01  0.61127225526E+02 -0.16005270567E+02  0.14024477285E+03  0.12509000000E+03 0.  0.
         25    1    3    3    0    0 -0.47982106040E+02 -0.79505784937E+02 -0.10715681928E+03  0.18908607658E+03  0.12509000000E+03 0.  0.
         25    1    4    4    0    0  0.53309565474E+02  0.18378559411E+02  0.19115425973E+02  0.13853731926E+03  0.12509000000E+03 0.  0.
<mgrwt>
<rscale>  2 0.45615229E+03</rscale>
<asrwt>0</asrwt>
<pdfrwt beam="1">  1       21 0.26751581E-01 0.45615229E+03</pdfrwt>
<pdfrwt beam="2">  1       21 0.42052561E-01 0.45615229E+03</pdfrwt>
<totfact> 0.66980566E+04</totfact>
</mgrwt>
</event>
<event>
 7    0  0.4784406E-002  0.4555465E+03  0.7546771E-02  0.1026081E+00
         21   -1    0    0  502  501  0.00000000000E+00  0.00000000000E+00  0.33502150478E+03  0.33502150478E+03  0.00000000000E+00 0.  1.
         21   -1    0    0  501  502 -0.00000000000E+00 -0.00000000000E+00 -0.15485769854E+03  0.15485769854E+03  0.00000000000E+00 0.  1.
      99926    2    1    2    0    0  0.35527136788E-14 -0.14210854715E-13  0.18016380624E+03  0.48987920332E+03  0.45554652536E+03 0.  0.
      99925    2    3    3    0    0 -0.28183003875E+02  0.81890659810E+02  0.19256339122E+03  0.33723052275E+03  0.26295133383E+03 0.  0.
         25    1    4    4    0    0 -0.31342454373E+02  0.54717860895E+01  0.10555041509E+03  0.16673538351E+03  0.12509000000E+03 0.  0.
         25    1    3    3    0    0  0.28183003875E+02 -0.81890659810E+02 -0.12399584981E+02  0.15264868057E+03  0.12509000000E+03 0.  0.
         25    1    4    4    0    0  0.31594504983E+01  0.76418873720E+02  0.87012976129E+02  0.17049513924E+03  0.12509000000E+03 0.  0.
<mgrwt>
<rscale>  2 0.45554653E+03</rscale>
<asrwt>0</asrwt>
<pdfrwt beam="1">  1       21 0.49267868E-01 0.45554653E+03</pdfrwt>
<pdfrwt beam="2">  1       21 0.22773191E-01 0.45554653E+03</pdfrwt>
<totfact> 0.65702169E+04</totfact>
</mgrwt>
</event>
<event>
 7    0  0.4784406E-002  0.4461576E+03  0.7546771E-02  0.1028874E+00
         21   -1    0    0  502  501  0.00000000000E+00  0.00000000000E+00  0.32651100379E+03  0.32651100379E+03  0.00000000000E+00 0. -1.
         21   -1    0    0  501  502 -0.00000000000E+00 -0.00000000000E+00 -0.15241186870E+03  0.15241186870E+03  0.00000000000E+00 0. -1.
      99926    2    1    2    0    0  0.00000000000E+00  0.00000000000E+00  0.17409913508E+03  0.47892287249E+03  0.44615760551E+03 0.  0.
      99925    2    3    3    0    0 -0.41371922707E+02  0.81239396362E+02  0.55488306835E+02  0.28391643109E+03  0.26309335251E+03 0.  0.
         25    1    4    4    0    0  0.77591511065E+01  0.85077354455E+01  0.26307737882E+02  0.12834403438E+03  0.12509000000E+03 0.  0.
         25    1    4    4    0    0 -0.49131073813E+02  0.72731660917E+02  0.29180568954E+02  0.15557239671E+03  0.12509000000E+03 0.  0.
         25    1    3    3    0    0  0.41371922707E+02 -0.81239396362E+02  0.11861082825E+03  0.19500644140E+03  0.12509000000E+03 0.  0.
<mgrwt>
<rscale>  2 0.44615761E+03</rscale>
<asrwt>0</asrwt>
<pdfrwt beam="1">  1       21 0.48016324E-01 0.44615761E+03</pdfrwt>
<pdfrwt beam="2">  1       21 0.22413510E-01 0.44615761E+03</pdfrwt>
<totfact> 0.71679349E+04</totfact>
</mgrwt>
</event>
<event>
 7    0  0.4784406E-002  0.4517324E+03  0.7546771E-02  0.1027207E+00
         21   -1    0    0  502  501  0.00000000000E+00  0.00000000000E+00  0.13248149998E+03  0.13248149998E+03  0.00000000000E+00 0.  1.
         21   -1    0    0  501  502 -0.00000000000E+00 -0.00000000000E+00 -0.38507670296E+03  0.38507670296E+03  0.00000000000E+00 0.  1.
      99926    2    1    2    0    0  0.00000000000E+00  0.00000000000E+00 -0.25259520298E+03  0.51755820295E+03  0.45173239519E+03 0.  0.
      99925    2    3    3    0    0 -0.96729074398E+02  0.48024505772E+02 -0.13469073890E+03  0.31455121356E+03  0.26294106530E+03 0.  0.
         25    1    4    4    0    0 -0.25773799983E+02  0.46179078567E+02 -0.93707643885E+02  0.16500129298E+03  0.12509000000E+03 0.  0.
         25    1    3    3    0    0  0.96729074398E+02 -0.48024505772E+02 -0.11790446408E+03  0.20300698938E+03  0.12509000000E+03 0.  0.
         25    1    4    4    0    0 -0.70955274415E+02  0.18454272051E+01 -0.40983095012E+02  0.14954992058E+03  0.12509000000E+03 0.  0.
<mgrwt>
<rscale>  2 0.45173240E+03</rscale>
<asrwt>0</asrwt>
<pdfrwt beam="1">  1       21 0.19482574E-01 0.45173240E+03</pdfrwt>
<pdfrwt beam="2">  1       21 0.56628925E-01 0.45173240E+03</pdfrwt>
<totfact> 0.65741824E+04</totfact>
</mgrwt>
</event>
<event>
 7    0  0.4784406E-002  0.4502567E+03  0.7546771E-02  0.1027646E+00
         21   -1    0    0  502  501  0.00000000000E+00  0.00000000000E+00  0.11558578661E+03  0.11558578661E+03  0.00000000000E+00 0. -1.
         21   -1    0    0  501  502 -0.00000000000E+00 -0.00000000000E+00 -0.43848623320E+03  0.43848623320E+03  0.00000000000E+00 0. -1.
      99926    2    1    2    0    0  0.00000000000E+00  0.13322676296E-14 -0.32290044660E+03  0.55407201981E+03  0.45025670981E+03 0.  0.
      99925    2    3    3    0    0  0.10802246119E+03  0.21453752373E+01 -0.21961163288E+03  0.35916295923E+03  0.26285986234E+03 0.  0.
         25    1    3    3    0    0 -0.10802246119E+03 -0.21453752373E+01 -0.10328881372E+03  0.19490906058E+03  0.12509000000E+03 0.  0.
         25    1    4    4    0    0  0.91237059634E+02 -0.19804792511E+02 -0.12147162266E+03  0.19778598046E+03  0.12509000000E+03 0.  0.
         25    1    4    4    0    0  0.16785401559E+02  0.21950167748E+02 -0.98140010218E+02  0.16137697876E+03  0.12509000000E+03 0.  0.
<mgrwt>
<rscale>  2 0.45025671E+03</rscale>
<asrwt>0</asrwt>
<pdfrwt beam="1">  1       21 0.16997910E-01 0.45025671E+03</pdfrwt>
<pdfrwt beam="2">  1       21 0.64483270E-01 0.45025671E+03</pdfrwt>
<totfact> 0.63964883E+04</totfact>
</mgrwt>
</event>
<event>
 7    0  0.4784406E-002  0.4565599E+03  0.7546771E-02  0.1025784E+00
         21   -1    0    0  502  501  0.00000000000E+00  0.00000000000E+00  0.66823500804E+03  0.66823500804E+03  0.00000000000E+00 0.  1.
         21   -1    0    0  501  502 -0.00000000000E+00 -0.00000000000E+00 -0.77984148850E+02  0.77984148850E+02  0.00000000000E+00 0.  1.
      99926    2    1    2    0    0 -0.14210854715E-13 -0.17763568394E-14  0.59025085919E+03  0.74621915689E+03  0.45655991210E+03 0.  0.
      99925    2    3    3    0    0 -0.83418102849E+02 -0.12726358656E+02  0.24440977525E+03  0.36889422592E+03  0.26310885883E+03 0.  0.
         25    1    4    4    0    0 -0.56753986109E+02 -0.34133232114E+02  0.16256103950E+03  0.21554510465E+03  0.12509000000E+03 0.  0.
         25    1    4    4    0    0 -0.26664116740E+02  0.21406873458E+02  0.81848735751E+02  0.15334912128E+03  0.12509000000E+03 0.  0.
         25    1    3    3    0    0  0.83418102849E+02  0.12726358656E+02  0.34584108394E+03  0.37732493097E+03  0.12509000000E+03 0.  0.
<mgrwt>
<rscale>  2 0.45655991E+03</rscale>
<asrwt>0</asrwt>
<pdfrwt beam="1">  1       21 0.98269851E-01 0.45655991E+03</pdfrwt>
<pdfrwt beam="2">  1       21 0.11468258E-01 0.45655991E+03</pdfrwt>
<totfact> 0.49850300E+04</totfact>
</mgrwt>
</event>
<event>
 7    0  0.4784406E-002  0.4519129E+03  0.7546771E-02  0.1027153E+00
         21   -1    0    0  502  501  0.00000000000E+00  0.00000000000E+00  0.70945450374E+03  0.70945450374E+03  0.00000000000E+00 0. -1.
         21   -1    0    0  501  502 -0.00000000000E+00 -0.00000000000E+00 -0.71965611181E+02  0.71965611181E+02  0.00000000000E+00 0. -1.
      99926    2    1    2    0    0  0.00000000000E+00  0.71054273576E-14  0.63748889256E+03  0.78142011492E+03  0.45191294280E+03 0.  0.
      99925    2    3    3    0    0  0.10503362101E+03 -0.33573612072E+02  0.40550308392E+03  0.49572067061E+03  0.26295813969E+03 0.  0.
         25    1    3    3    0    0 -0.10503362101E+03  0.33573612072E+02  0.23198580863E+03  0.28569944431E+03  0.12509000000E+03 0.  0.
         25    1    4    4    0    0  0.35269770518E+02  0.23992196758E+00  0.24909191221E+03  0.28095961116E+03  0.12509000000E+03 0.  0.
         25    1    4    4    0    0  0.69763850492E+02 -0.33813534039E+02  0.15641117171E+03  0.21476105945E+03  0.12509000000E+03 0.  0.
<mgrwt>
<rscale>  2 0.45191294E+03</rscale>
<asrwt>0</asrwt>
<pdfrwt beam="1">  1       21 0.10433154E+00 0.45191294E+03</pdfrwt>
<pdfrwt beam="2">  1       21 0.10583179E-01 0.45191294E+03</pdfrwt>
<totfact> 0.49874216E+04</totfact>
</mgrwt>
</event>
<event>
 7    0  0.4784406E-002  0.4566408E+03  0.7546771E-02  0.1025760E+00
         21   -1    0    0  502  501  0.00000000000E+00  0.00000000000E+00  0.46799724217E+02  0.46799724217E+02  0.00000000000E+00 0. -1.
         21   -1    0    0  501  502 -0.00000000000E+00 -0.00000000000E+00 -0.11138998691E+04  0.11138998691E+04  0.00000000000E+00 0. -1.
      99926    2    1    2    0    0  0.00000000000E+00  0.00000000000E+00 -0.10671001449E+04  0.11606995933E+04  0.45664080711E+03 0.  0.
      99925    2    3    3    0    0 -0.23402042669E+02  0.34816195227E+02 -0.94184858024E+03  0.97877849615E+03  0.26299956916E+03 0.  0.
         25    1    4    4    0    0 -0.36361098235E+02  0.48707758861E+02 -0.52907942858E+03  0.54705312821E+03  0.12509000000E+03 0.  0.
         25    1    3    3    0    0  0.23402042669E+02 -0.34816195227E+02 -0.12525156467E+03  0.18192109719E+03  0.12509000000E+03 0.  0.
         25    1    4    4    0    0  0.12959055565E+02 -0.13891563634E+02 -0.41276915167E+03  0.43172536795E+03  0.12509000000E+03 0.  0.
<mgrwt>
<rscale>  2 0.45664081E+03</rscale>
<asrwt>0</asrwt>
<pdfrwt beam="1">  1       21 0.68823136E-02 0.45664081E+03</pdfrwt>
<pdfrwt beam="2">  1       21 0.16380877E+00 0.45664081E+03</pdfrwt>
<totfact> 0.33003117E+04</totfact>
</mgrwt>
</event>
<event>
 7    0  0.4784406E-002  0.4647054E+03  0.7546771E-02  0.1023425E+00
         21   -1    0    0  502  501  0.00000000000E+00  0.00000000000E+00  0.27265109906E+02  0.27265109906E+02  0.00000000000E+00 0. -1.
         21   -1    0    0  501  502 -0.00000000000E+00 -0.00000000000E+00 -0.19801050196E+04  0.19801050196E+04  0.00000000000E+00 0. -1.
      99926    2    1    2    0    0  0.00000000000E+00  0.00000000000E+00 -0.19528399097E+04  0.20073701295E+04  0.46470541630E+03 0.  0.
      99925    2    3    3    0    0 -0.87823692278E+02  0.31092758320E+02 -0.87805724848E+03  0.92132913696E+03  0.26302677898E+03 0.  0.
         25    1    4    4    0    0 -0.44262927950E+02 -0.25282552690E+02 -0.42809224708E+03  0.44889742077E+03  0.12509000000E+03 0.  0.
         25    1    4    4    0    0 -0.43560764328E+02  0.56375311009E+02 -0.44996500140E+03  0.47243171619E+03  0.12509000000E+03 0.  0.
         25    1    3    3    0    0  0.87823692278E+02 -0.31092758320E+02 -0.10747826612E+04  0.10860409926E+04  0.12509000000E+03 0.  0.
<mgrwt>
<rscale>  2 0.46470542E+03</rscale>
<asrwt>0</asrwt>
<pdfrwt beam="1">  1       21 0.40095759E-02 0.46470542E+03</pdfrwt>
<pdfrwt beam="2">  1       21 0.29119185E+00 0.46470542E+03</pdfrwt>
<totfact> 0.12612480E+04</totfact>
</mgrwt>
</event>
<event>
 7    0  0.4784406E-002  0.4513393E+03  0.7546771E-02  0.1027323E+00
         21   -1    0    0  502  501  0.00000000000E+00  0.00000000000E+00  0.58484132825E+03  0.58484132825E+03  0.00000000000E+00 0. -1.
         21   -1    0    0  501  502 -0.00000000000E+00 -0.00000000000E+00 -0.87077957936E+02  0.87077957936E+02  0.00000000000E+00 0. -1.
      99926    2    1    2    0    0  0.00000000000E+00  0.71054273576E-14  0.49776337032E+03  0.67191928619E+03  0.45133928959E+03 0.  0.
      99925    2    3    3    0    0 -0.71794449187E+02 -0.36195943194E+02  0.42536703816E+03  0.50653087593E+03  0.26300536473E+03 0.  0.
         25    1    3    3    0    0  0.71794449187E+02  0.36195943194E+02  0.72396332153E+02  0.16538841026E+03  0.12509000000E+03 0.  0.
         25    1    4    4    0    0 -0.59725993951E+02  0.11786595286E+02  0.24159409031E+03  0.27878545650E+03  0.12509000000E+03 0.  0.
         25    1    4    4    0    0 -0.12068455236E+02 -0.47982538481E+02  0.18377294785E+03  0.22774541943E+03  0.12509000000E+03 0.  0.
<mgrwt>
<rscale>  2 0.45133929E+03</rscale>
<asrwt>0</asrwt>
<pdfrwt beam="1">  1       21 0.86006076E-01 0.45133929E+03</pdfrwt>
<pdfrwt beam="2">  1       21 0.12805582E-01 0.45133929E+03</pdfrwt>
<totfact> 0.56053851E+04</totfact>
</mgrwt>
</event>
<event>
 7    0  0.4784406E-002  0.4499379E+03  0.7546771E-02  0.1027741E+00
         21   -1    0    0  502  501  0.00000000000E+00  0.00000000000E+00  0.57301522900E+02  0.57301522900E+02  0.00000000000E+00 0. -1.
         21   -1    0    0  501  502 -0.00000000000E+00 -0.00000000000E+00 -0.88324053900E+03  0.88324053900E+03  0.00000000000E+00 0. -1.
      99926    2    1    2    0    0  0.14210854715E-13  0.00000000000E+00 -0.82593901610E+03  0.94054206190E+03  0.44993789781E+03 0.  0.
      99925    2    3    3    0    0  0.10810238687E+03 -0.43670393654E+01 -0.52635098878E+03  0.59833497358E+03  0.26316188961E+03 0.  0.
         25    1    4    4    0    0  0.77687637661E+02 -0.21714048726E+02 -0.22041867112E+03  0.26596760636E+03  0.12509000000E+03 0.  0.
         25    1    3    3    0    0 -0.10810238687E+03  0.43670393654E+01 -0.29958802732E+03  0.34220708831E+03  0.12509000000E+03 0.  0.
         25    1    4    4    0    0  0.30414749210E+02  0.17347009361E+02 -0.30593231766E+03  0.33236736722E+03  0.12509000000E+03 0.  0.
<mgrwt>
<rscale>  2 0.44993790E+03</rscale>
<asrwt>0</asrwt>
<pdfrwt beam="1">  1       21 0.84266951E-02 0.44993790E+03</pdfrwt>
<pdfrwt beam="2">  1       21 0.12988831E+00 0.44993790E+03</pdfrwt>
<totfact> 0.43211653E+04</totfact>
</mgrwt>
</event>
<event>
 7    0  0.4784406E-002  0.4552581E+03  0.7546771E-02  0.1026166E+00
         21   -1    0    0  502  501  0.00000000000E+00  0.00000000000E+00  0.57568001869E+03  0.57568001869E+03  0.00000000000E+00 0.  1.
         21   -1    0    0  501  502 -0.00000000000E+00 -0.00000000000E+00 -0.90006560305E+02  0.90006560305E+02  0.00000000000E+00 0.  1.
      99926    2    1    2    0    0  0.35527136788E-14  0.00000000000E+00  0.48567345838E+03  0.66568657899E+03  0.45525807327E+03 0.  0.
      99925    2    3    3    0    0  0.14591586580E+02 -0.36060978508E+02  0.15044242590E+03  0.30576900258E+03  0.26334094034E+03 0.  0.
         25    1    4    4    0    0  0.41078258983E+02 -0.28285453770E+02  0.10151906581E+03  0.16864494976E+03  0.12509000000E+03 0.  0.
         25    1    4    4    0    0 -0.26486672403E+02 -0.77755247383E+01  0.48923360084E+02  0.13712405282E+03  0.12509000000E+03 0.  0.
         25    1    3    3    0    0 -0.14591586580E+02  0.36060978508E+02  0.33523103248E+03  0.35991757641E+03  0.12509000000E+03 0.  0.
<mgrwt>
<rscale>  2 0.45525807E+03</rscale>
<asrwt>0</asrwt>
<pdfrwt beam="1">  1       21 0.84658824E-01 0.45525807E+03</pdfrwt>
<pdfrwt beam="2">  1       21 0.13236259E-01 0.45525807E+03</pdfrwt>
<totfact> 0.54694319E+04</totfact>
</mgrwt>
</event>
<event>
 7    0  0.4784406E-002  0.4580599E+03  0.7546771E-02  0.1025345E+00
         21   -1    0    0  502  501  0.00000000000E+00  0.00000000000E+00  0.28857364043E+02  0.28857364043E+02  0.00000000000E+00 0.  1.
         21   -1    0    0  501  502 -0.00000000000E+00 -0.00000000000E+00 -0.18177240115E+04  0.18177240115E+04  0.00000000000E+00 0.  1.
      99926    2    1    2    0    0  0.00000000000E+00 -0.33306690739E-15 -0.17888666475E+04  0.18465813756E+04  0.45805992416E+03 0.  0.
      99925    2    3    3    0    0  0.11252830377E+03  0.45793794867E+00 -0.12348846568E+04  0.12676112701E+04  0.26312618224E+03 0.  0.
         25    1    4    4    0    0  0.62406614849E+02  0.34443457263E+01 -0.44965305990E+03  0.47089471379E+03  0.12509000000E+03 0.  0.
         25    1    4    4    0    0  0.50121688919E+02 -0.29864077777E+01 -0.78523159686E+03  0.79671655633E+03  0.12509000000E+03 0.  0.
         25    1    3    3    0    0 -0.11252830377E+03 -0.45793794867E+00 -0.55398199072E+03  0.57897010544E+03  0.12509000000E+03 0.  0.
<mgrwt>
<rscale>  2 0.45805992E+03</rscale>
<asrwt>0</asrwt>
<pdfrwt beam="1">  1       21 0.42437288E-02 0.45805992E+03</pdfrwt>
<pdfrwt beam="2">  1       21 0.26731243E+00 0.45805992E+03</pdfrwt>
<totfact> 0.15997401E+04</totfact>
</mgrwt>
</event>
<event>
 7    0  0.4784406E-002  0.4502155E+03  0.7546771E-02  0.1027658E+00
         21   -1    0    0  502  501  0.00000000000E+00  0.00000000000E+00  0.14625718174E+03  0.14625718174E+03  0.00000000000E+00 0. -1.
         21   -1    0    0  501  502 -0.00000000000E+00 -0.00000000000E+00 -0.34646838598E+03  0.34646838598E+03  0.00000000000E+00 0. -1.
      99926    2    1    2    0    0  0.00000000000E+00  0.00000000000E+00 -0.20021120424E+03  0.49272556772E+03  0.45021545818E+03 0.  0.
      99925    2    3    3    0    0  0.45002028948E+02 -0.23285484359E+02 -0.21353416528E+02  0.26866081655E+03  0.26297389521E+03 0.  0.
         25    1    3    3    0    0 -0.45002028948E+02  0.23285484359E+02 -0.17885778771E+03  0.22406475117E+03  0.12509000000E+03 0.  0.
         25    1    4    4    0    0  0.33183090265E+01 -0.60568019044E+01  0.25170003295E+02  0.12778393166E+03  0.12509000000E+03 0.  0.
         25    1    4    4    0    0  0.41683719921E+02 -0.17228682455E+02 -0.46523419824E+02  0.14087688489E+03  0.12509000000E+03 0.  0.
<mgrwt>
<rscale>  2 0.45021546E+03</rscale>
<asrwt>0</asrwt>
<pdfrwt beam="1">  1       21 0.21508409E-01 0.45021546E+03</pdfrwt>
<pdfrwt beam="2">  1       21 0.50951233E-01 0.45021546E+03</pdfrwt>
<totfact> 0.68343982E+04</totfact>
</mgrwt>
</event>
<event>
 7    0  0.4784406E-002  0.4544306E+03  0.7546771E-02  0.1026409E+00
         21   -1    0    0  502  501  0.00000000000E+00  0.00000000000E+00  0.36769573234E+03  0.36769573234E+03  0.00000000000E+00 0.  1.
         21   -1    0    0  501  502 -0.00000000000E+00 -0.00000000000E+00 -0.14040627697E+03  0.14040627697E+03  0.00000000000E+00 0.  1.
      99926    2    1    2    0    0  0.00000000000E+00  0.00000000000E+00  0.22728945537E+03  0.50810200931E+03  0.45443058364E+03 0.  0.
      99925    2    3    3    0    0 -0.10976689379E+03  0.11498717986E+02  0.11810101272E+03  0.30872644512E+03  0.26302695152E+03 0.  0.
         25    1    4    4    0    0 -0.31971430172E+02 -0.91495085664E+01  0.21096106613E+02  0.13114282164E+03  0.12509000000E+03 0.  0.
         25    1    4    4    0    0 -0.77795463618E+02  0.20648226553E+02  0.97004906105E+02  0.17758362348E+03  0.12509000000E+03 0.  0.
         25    1    3    3    0    0  0.10976689379E+03 -0.11498717986E+02  0.10918844265E+03  0.19937556419E+03  0.12509000000E+03 0.  0.
<mgrwt>
<rscale>  2 0.45443058E+03</rscale>
<asrwt>0</asrwt>
<pdfrwt beam="1">  1       21 0.54072901E-01 0.45443058E+03</pdfrwt>
<pdfrwt beam="2">  1       21 0.20647982E-01 0.45443058E+03</pdfrwt>
<totfact> 0.64998384E+04</totfact>
</mgrwt>
</event>
<event>
 7    0  0.4784406E-002  0.5608818E+03  0.7546771E-02  0.9990061E-01
         21   -1    0    0  502  501  0.00000000000E+00  0.00000000000E+00  0.12055312612E+03  0.12055312612E+03  0.00000000000E+00 0.  1.
         21   -1    0    0  501  502 -0.00000000000E+00 -0.00000000000E+00 -0.65238544431E+03  0.65238544431E+03  0.00000000000E+00 0.  1.
      99926    2    1    2    0    0  0.00000000000E+00  0.00000000000E+00 -0.53183231818E+03  0.77293857043E+03  0.56088182266E+03 0.  0.
      99925    2    3    3    0    0  0.13395947834E+03 -0.55430834469E+01 -0.11360370723E+03  0.31627836116E+03  0.26296450679E+03 0.  0.
         25    1    3    3    0    0 -0.13395947834E+03  0.55430834469E+01 -0.41822861096E+03  0.45666020927E+03  0.12509000000E+03 0.  0.
         25    1    4    4    0    0  0.25221047512E+02 -0.12717978184E+02 -0.62679939311E+02  0.14273798058E+03  0.12509000000E+03 0.  0.
         25    1    4    4    0    0  0.10873843083E+03  0.71748947366E+01 -0.50923767916E+02  0.17354038058E+03  0.12509000000E+03 0.  0.
<mgrwt>
<rscale>  2 0.56088182E+03</rscale>
<asrwt>0</asrwt>
<pdfrwt beam="1">  1       21 0.17728401E-01 0.56088182E+03</pdfrwt>
<pdfrwt beam="2">  1       21 0.95939035E-01 0.56088182E+03</pdfrwt>
<totfact> 0.23050579E+04</totfact>
</mgrwt>
</event>
<event>
 7    0  0.4784406E-002  0.4538698E+03  0.7546771E-02  0.1026574E+00
         21   -1    0    0  502  501  0.00000000000E+00  0.00000000000E+00  0.88850903554E+02  0.88850903554E+02  0.00000000000E+00 0. -1.
         21   -1    0    0  501  502 -0.00000000000E+00 -0.00000000000E+00 -0.57961640802E+03  0.57961640802E+03  0.00000000000E+00 0. -1.
      99926    2    1    2    0    0 -0.14210854715E-13  0.00000000000E+00 -0.49076550446E+03  0.66846731157E+03  0.45386976796E+03 0.  0.
      99925    2    3    3    0    0  0.10414683140E+03  0.41292159803E+02 -0.30130303486E+03  0.41529713079E+03  0.26293836363E+03 0.  0.
         25    1    4    4    0    0  0.43802784827E+02  0.21509873296E+02 -0.20528722667E+03  0.24529922980E+03  0.12509000000E+03 0.  0.
         25    1    3    3    0    0 -0.10414683140E+03 -0.41292159803E+02 -0.18946246960E+03  0.25317018079E+03  0.12509000000E+03 0.  0.
         25    1    4    4    0    0  0.60344046571E+02  0.19782286507E+02 -0.96015808191E+02  0.16999790098E+03  0.12509000000E+03 0.  0.
<mgrwt>
<rscale>  2 0.45386977E+03</rscale>
<asrwt>0</asrwt>
<pdfrwt beam="1">  1       21 0.13066309E-01 0.45386977E+03</pdfrwt>
<pdfrwt beam="2">  1       21 0.85237712E-01 0.45386977E+03</pdfrwt>
<totfact> 0.55138268E+04</totfact>
</mgrwt>
</event>
<event>
 7    0  0.4784406E-002  0.4686553E+03  0.7546771E-02  0.1022300E+00
         21   -1    0    0  502  501  0.00000000000E+00  0.00000000000E+00  0.32803241132E+03  0.32803241132E+03  0.00000000000E+00 0. -1.
         21   -1    0    0  501  502 -0.00000000000E+00 -0.00000000000E+00 -0.16739031391E+03  0.16739031391E+03  0.00000000000E+00 0. -1.
      99926    2    1    2    0    0  0.00000000000E+00  0.00000000000E+00  0.16064209741E+03  0.49542272523E+03  0.46865530320E+03 0.  0.
      99925    2    3    3    0    0 -0.95972344717E+02  0.44979769952E+02  0.17097370091E+03  0.33114210925E+03  0.26303843723E+03 0.  0.
         25    1    3    3    0    0  0.95972344717E+02 -0.44979769952E+02 -0.10331603504E+02  0.16428061598E+03  0.12509000000E+03 0.  0.
         25    1    4    4    0    0 -0.24569042208E+02  0.40627642186E+02  0.49459024870E+02  0.14264622808E+03  0.12509000000E+03 0.  0.
         25    1    4    4    0    0 -0.71403302509E+02  0.43521277660E+01  0.12151467604E+03  0.18849588117E+03  0.12509000000E+03 0.  0.
<mgrwt>
<rscale>  2 0.46865530E+03</rscale>
<asrwt>0</asrwt>
<pdfrwt beam="1">  1       21 0.48240061E-01 0.46865530E+03</pdfrwt>
<pdfrwt beam="2">  1       21 0.24616223E-01 0.46865530E+03</pdfrwt>
<totfact> 0.58940358E+04</totfact>
</mgrwt>
</event>
<event>
 7    0  0.4784406E-002  0.4479796E+03  0.7546771E-02  0.1028326E+00
         21   -1    0    0  502  501  0.00000000000E+00  0.00000000000E+00  0.27857915206E+03  0.27857915206E+03  0.00000000000E+00 0.  1.
         21   -1    0    0  501  502 -0.00000000000E+00 -0.00000000000E+00 -0.18009761132E+03  0.18009761132E+03  0.00000000000E+00 0.  1.
      99926    2    1    2    0    0 -0.71054273576E-14 -0.14210854715E-13  0.98481540739E+02  0.45867676338E+03  0.44797964173E+03 0.  0.
      99925    2    3    3    0    0  0.46396491252E+02  0.91635602674E+02  0.90275606109E+02  0.29661330809E+03  0.26321103967E+03 0.  0.
         25    1    3    3    0    0 -0.46396491252E+02 -0.91635602674E+02  0.82059346294E+01  0.16206345529E+03  0.12509000000E+03 0.  0.
         25    1    4    4    0    0 -0.16567622849E+02  0.33132902936E+02  0.34807439991E+02  0.13502348449E+03  0.12509000000E+03 0.  0.
         25    1    4    4    0    0  0.62964114101E+02  0.58502699738E+02  0.55468166118E+02  0.16158982361E+03  0.12509000000E+03 0.  0.
<mgrwt>
<rscale>  2 0.44797964E+03</rscale>
<asrwt>0</asrwt>
<pdfrwt beam="1">  1       21 0.40967522E-01 0.44797964E+03</pdfrwt>
<pdfrwt beam="2">  1       21 0.26484943E-01 0.44797964E+03</pdfrwt>
<totfact> 0.72226577E+04</totfact>
</mgrwt>
</event>
<event>
 7    0  0.4784406E-002  0.4581687E+03  0.7546771E-02  0.1025314E+00
         21   -1    0    0  502  501  0.00000000000E+00  0.00000000000E+00  0.44533554723E+03  0.44533554723E+03  0.00000000000E+00 0. -1.
         21   -1    0    0  501  502 -0.00000000000E+00 -0.00000000000E+00 -0.11784290669E+03  0.11784290669E+03  0.00000000000E+00 0. -1.
      99926    2    1    2    0    0 -0.88817841970E-15  0.71054273576E-14  0.32749264054E+03  0.56317845392E+03  0.45816868221E+03 0.  0.
      99925    2    3    3    0    0  0.22514110959E+01 -0.57057763791E+02  0.81187917519E+02  0.28108949288E+03  0.26298130693E+03 0.  0.
         25    1    3    3    0    0 -0.22514110959E+01  0.57057763791E+02  0.24630472302E+03  0.28208896104E+03  0.12509000000E+03 0.  0.
         25    1    4    4    0    0 -0.66115000545E+01 -0.29523942000E+02  0.82175901069E+02  0.15269499632E+03  0.12509000000E+03 0.  0.
         25    1    4    4    0    0  0.88629111504E+01 -0.27533821791E+02 -0.98798354953E+00  0.12839449656E+03  0.12509000000E+03 0.  0.
<mgrwt>
<rscale>  2 0.45816868E+03</rscale>
<asrwt>0</asrwt>
<pdfrwt beam="1">  1       21 0.65490521E-01 0.45816868E+03</pdfrwt>
<pdfrwt beam="2">  1       21 0.17329839E-01 0.45816868E+03</pdfrwt>
<totfact> 0.59498738E+04</totfact>
</mgrwt>
</event>
<event>
 7    0  0.4784406E-002  0.4486878E+03  0.7546771E-02  0.1028114E+00
         21   -1    0    0  502  501  0.00000000000E+00  0.00000000000E+00  0.41338237544E+03  0.41338237544E+03  0.00000000000E+00 0. -1.
         21   -1    0    0  501  502 -0.00000000000E+00 -0.00000000000E+00 -0.12175210517E+03  0.12175210517E+03  0.00000000000E+00 0. -1.
      99926    2    1    2    0    0  0.00000000000E+00  0.71054273576E-14  0.29163027026E+03  0.53513448061E+03  0.44868775090E+03 0.  0.
      99925    2    3    3    0    0 -0.83142565161E+02  0.63142062187E+02  0.21327360918E+03  0.35433934629E+03  0.26300405661E+03 0.  0.
         25    1    4    4    0    0 -0.46400508811E+02  0.12928185799E+00  0.13470282100E+03  0.18959267395E+03  0.12509000000E+03 0.  0.
         25    1    4    4    0    0 -0.36742056350E+02  0.63012780329E+02  0.78570788179E+02  0.16474667233E+03  0.12509000000E+03 0.  0.
         25    1    3    3    0    0  0.83142565161E+02 -0.63142062187E+02  0.78356661081E+02  0.18079513432E+03  0.12509000000E+03 0.  0.
<mgrwt>
<rscale>  2 0.44868775E+03</rscale>
<asrwt>0</asrwt>
<pdfrwt beam="1">  1       21 0.60791525E-01 0.44868775E+03</pdfrwt>
<pdfrwt beam="2">  1       21 0.17904721E-01 0.44868775E+03</pdfrwt>
<totfact> 0.66100679E+04</totfact>
</mgrwt>
</event>
<event>
 7    0  0.4784406E-002  0.4519271E+03  0.7546771E-02  0.1027149E+00
         21   -1    0    0  502  501  0.00000000000E+00  0.00000000000E+00  0.19368644070E+03  0.19368644070E+03  0.00000000000E+00 0. -1.
         21   -1    0    0  501  502 -0.00000000000E+00 -0.00000000000E+00 -0.26361950110E+03  0.26361950110E+03  0.00000000000E+00 0. -1.
      99926    2    1    2    0    0  0.00000000000E+00  0.00000000000E+00 -0.69933060392E+02  0.45730594180E+03  0.45192708645E+03 0.  0.
      99925    2    3    3    0    0  0.96011197894E+02  0.54401955058E+02 -0.44904516428E+02  0.28862974624E+03  0.26289349932E+03 0.  0.
         25    1    4    4    0    0  0.47680067086E+02  0.94503829171E+00  0.98415892847E+01  0.13423355346E+03  0.12509000000E+03 0.  0.
         25    1    4    4    0    0  0.48331130807E+02  0.53456916766E+02 -0.54746105713E+02  0.15439619278E+03  0.12509000000E+03 0.  0.
         25    1    3    3    0    0 -0.96011197894E+02 -0.54401955058E+02 -0.25028543963E+02  0.16867619556E+03  0.12509000000E+03 0.  0.
<mgrwt>
<rscale>  2 0.45192709E+03</rscale>
<asrwt>0</asrwt>
<pdfrwt beam="1">  1       21 0.28483300E-01 0.45192709E+03</pdfrwt>
<pdfrwt beam="2">  1       21 0.38767573E-01 0.45192709E+03</pdfrwt>
<totfact> 0.70078959E+04</totfact>
</mgrwt>
</event>
<event>
 7    0  0.4784406E-002  0.4567691E+03  0.7546771E-02  0.1025722E+00
         21   -1    0    0  502  501  0.00000000000E+00  0.00000000000E+00  0.12505619860E+03  0.12505619860E+03  0.00000000000E+00 0. -1.
         21   -1    0    0  501  502 -0.00000000000E+00 -0.00000000000E+00 -0.41708850802E+03  0.41708850802E+03  0.00000000000E+00 0. -1.
      99926    2    1    2    0    0  0.00000000000E+00  0.00000000000E+00 -0.29203230942E+03  0.54214470662E+03  0.45676910269E+03 0.  0.
      99925    2    3    3    0    0  0.50781799681E+02 -0.38103939146E+02 -0.70061003897E+02  0.27956239585E+03  0.26308912472E+03 0.  0.
         25    1    3    3    0    0 -0.50781799681E+02  0.38103939146E+02 -0.22197130552E+03  0.26258231078E+03  0.12509000000E+03 0.  0.
         25    1    4    4    0    0  0.49952766317E+02  0.66347540883E+01 -0.55800337290E+02  0.14594685528E+03  0.12509000000E+03 0.  0.
         25    1    4    4    0    0  0.82903336468E+00 -0.44738693235E+02 -0.14260666607E+02  0.13361554057E+03  0.12509000000E+03 0.  0.
<mgrwt>
<rscale>  2 0.45676910E+03</rscale>
<asrwt>0</asrwt>
<pdfrwt beam="1">  1       21 0.18390618E-01 0.45676910E+03</pdfrwt>
<pdfrwt beam="2">  1       21 0.61336545E-01 0.45676910E+03</pdfrwt>
<totfact> 0.61522757E+04</totfact>
</mgrwt>
</event>
<event>
 7    0  0.4784406E-002  0.4553812E+03  0.7546771E-02  0.1026129E+00
         21   -1    0    0  502  501  0.00000000000E+00  0.00000000000E+00  0.29989568135E+02  0.29989568135E+02  0.00000000000E+00 0.  1.
         21   -1    0    0  501  502 -0.00000000000E+00 -0.00000000000E+00 -0.17287011563E+04  0.17287011563E+04  0.00000000000E+00 0.  1.
      99926    2    1    2    0    0  0.35527136788E-14  0.00000000000E+00 -0.16987115882E+04  0.17586907244E+04  0.45538116391E+03 0.  0.
      99925    2    3    3    0    0 -0.11087392138E+02 -0.60099997601E+02 -0.14380614367E+04  0.14631895408E+04  0.26299809234E+03 0.  0.
         25    1    4    4    0    0 -0.45797068283E+02 -0.27058876108E+02 -0.74608960167E+03  0.75837112027E+03  0.12509000000E+03 0.  0.
         25    1    3    3    0    0  0.11087392138E+02  0.60099997601E+02 -0.26065015145E+03  0.29550118363E+03  0.12509000000E+03 0.  0.
         25    1    4    4    0    0  0.34709676146E+02 -0.33041121493E+02 -0.69197183505E+03  0.70481842054E+03  0.12509000000E+03 0.  0.
<mgrwt>
<rscale>  2 0.45538116E+03</rscale>
<asrwt>0</asrwt>
<pdfrwt beam="1">  1       21 0.44102302E-02 0.45538116E+03</pdfrwt>
<pdfrwt beam="2">  1       21 0.25422078E+00 0.45538116E+03</pdfrwt>
<totfact> 0.18013511E+04</totfact>
</mgrwt>
</event>
<event>
 7    0  0.4784406E-002  0.4540469E+03  0.7546771E-02  0.1026522E+00
         21   -1    0    0  502  501  0.00000000000E+00  0.00000000000E+00  0.49381222835E+03  0.49381222835E+03  0.00000000000E+00 0.  1.
         21   -1    0    0  501  502 -0.00000000000E+00 -0.00000000000E+00 -0.10437093242E+03  0.10437093242E+03  0.00000000000E+00 0.  1.
      99926    2    1    2    0    0  0.00000000000E+00  0.00000000000E+00  0.38944129594E+03  0.59818316077E+03  0.45404688178E+03 0.  0.
      99925    2    3    3    0    0  0.22083237869E+02  0.76916685629E+02  0.34892691209E+03  0.44425860353E+03  0.26308149101E+03 0.  0.
         25    1    4    4    0    0  0.26159032984E+02  0.39078440680E+02  0.23728512868E+03  0.27232913896E+03  0.12509000000E+03 0.  0.
         25    1    3    3    0    0 -0.22083237869E+02 -0.76916685629E+02  0.40514383850E+02  0.15392455724E+03  0.12509000000E+03 0.  0.
         25    1    4    4    0    0 -0.40757951145E+01  0.37838244949E+02  0.11164178341E+03  0.17192946458E+03  0.12509000000E+03 0.  0.
<mgrwt>
<rscale>  2 0.45404688E+03</rscale>
<asrwt>0</asrwt>
<pdfrwt beam="1">  1       21 0.72619444E-01 0.45404688E+03</pdfrwt>
<pdfrwt beam="2">  1       21 0.15348667E-01 0.45404688E+03</pdfrwt>
<totfact> 0.59235090E+04</totfact>
</mgrwt>
</event>
<event>
 7    0  0.4784406E-002  0.4586072E+03  0.7546771E-02  0.1025186E+00
         21   -1    0    0  502  501  0.00000000000E+00  0.00000000000E+00  0.28634319181E+03  0.28634319181E+03  0.00000000000E+00 0. -1.
         21   -1    0    0  501  502 -0.00000000000E+00 -0.00000000000E+00 -0.18362626094E+03  0.18362626094E+03  0.00000000000E+00 0. -1.
      99926    2    1    2    0    0  0.00000000000E+00  0.00000000000E+00  0.10271693087E+03  0.46996945274E+03  0.45860715064E+03 0.  0.
      99925    2    3    3    0    0  0.89506344999E+01 -0.89706494884E+02 -0.11268312795E+02  0.27822088572E+03  0.26296866219E+03 0.  0.
         25    1    4    4    0    0  0.13028705686E+02 -0.33267995822E+02 -0.43541255976E+02  0.13718547952E+03  0.12509000000E+03 0.  0.
         25    1    3    3    0    0 -0.89506344999E+01  0.89706494884E+02  0.11398524366E+03  0.19174856702E+03  0.12509000000E+03 0.  0.
         25    1    4    4    0    0 -0.40780711865E+01 -0.56438499062E+02  0.32272943181E+02  0.14103540620E+03  0.12509000000E+03 0.  0.
<mgrwt>
<rscale>  2 0.45860715E+03</rscale>
<asrwt>0</asrwt>
<pdfrwt beam="1">  1       21 0.42109293E-01 0.45860715E+03</pdfrwt>
<pdfrwt beam="2">  1       21 0.27003862E-01 0.45860715E+03</pdfrwt>
<totfact> 0.65542746E+04</totfact>
</mgrwt>
</event>
<event>
 7    0  0.4784406E-002  0.4565291E+03  0.7546771E-02  0.1025793E+00
         21   -1    0    0  502  501  0.00000000000E+00  0.00000000000E+00  0.52311713101E+02  0.52311713101E+02  0.00000000000E+00 0.  1.
         21   -1    0    0  501  502 -0.00000000000E+00 -0.00000000000E+00 -0.99604271228E+03  0.99604271228E+03  0.00000000000E+00 0.  1.
      99926    2    1    2    0    0  0.00000000000E+00  0.00000000000E+00 -0.94373099918E+03  0.10483544254E+04  0.45652908166E+03 0.  0.
      99925    2    3    3    0    0  0.19418921934E+02 -0.74433865536E+02 -0.39984514663E+03  0.48499235391E+03  0.26348424469E+03 0.  0.
         25    1    3    3    0    0 -0.19418921934E+02  0.74433865536E+02 -0.54388585255E+03  0.56336207147E+03  0.12509000000E+03 0.  0.
         25    1    4    4    0    0  0.28330383006E+02 -0.75554989928E+02 -0.22652538414E+03  0.27105797325E+03  0.12509000000E+03 0.  0.
         25    1    4    4    0    0 -0.89114610717E+01  0.11211243918E+01 -0.17331976249E+03  0.21393438066E+03  0.12509000000E+03 0.  0.
<mgrwt>
<rscale>  2 0.45652908E+03</rscale>
<asrwt>0</asrwt>
<pdfrwt beam="1">  1       21 0.76928988E-02 0.45652908E+03</pdfrwt>
<pdfrwt beam="2">  1       21 0.14647687E+00 0.45652908E+03</pdfrwt>
<totfact> 0.36895503E+04</totfact>
</mgrwt>
</event>
<event>
 7    0  0.4784406E-002  0.4473031E+03  0.7546771E-02  0.1028529E+00
         21   -1    0    0  502  501  0.00000000000E+00  0.00000000000E+00  0.12481293628E+03  0.12481293628E+03  0.00000000000E+00 0.  1.
         21   -1    0    0  501  502 -0.00000000000E+00 -0.00000000000E+00 -0.40075990210E+03  0.40075990210E+03  0.00000000000E+00 0.  1.
      99926    2    1    2    0    0  0.00000000000E+00  0.17763568394E-14 -0.27594696581E+03  0.52557283838E+03  0.44730311926E+03 0.  0.
      99925    2    3    3    0    0  0.66802825865E+02 -0.11399867169E+02 -0.27037809325E+03  0.38319624284E+03  0.26294956304E+03 0.  0.
         25    1    4    4    0    0  0.46390231610E+02 -0.44281274248E+02 -0.14282923480E+03  0.20040105601E+03  0.12509000000E+03 0.  0.
         25    1    3    3    0    0 -0.66802825865E+02  0.11399867169E+02 -0.55688725583E+01  0.14237659554E+03  0.12509000000E+03 0.  0.
         25    1    4    4    0    0  0.20412594255E+02  0.32881407079E+02 -0.12754885846E+03  0.18279518683E+03  0.12509000000E+03 0.  0.
<mgrwt>
<rscale>  2 0.44730312E+03</rscale>
<asrwt>0</asrwt>
<pdfrwt beam="1">  1       21 0.18354843E-01 0.44730312E+03</pdfrwt>
<pdfrwt beam="2">  1       21 0.58935280E-01 0.44730312E+03</pdfrwt>
<totfact> 0.67531996E+04</totfact>
</mgrwt>
</event>
<event>
 7    0  0.4784406E-002  0.4526116E+03  0.7546771E-02  0.1026946E+00
         21   -1    0    0  502  501  0.00000000000E+00  0.00000000000E+00  0.16953650575E+03  0.16953650575E+03  0.00000000000E+00 0. -1.
         21   -1    0    0  501  502 -0.00000000000E+00 -0.00000000000E+00 -0.30208423592E+03  0.30208423592E+03  0.00000000000E+00 0. -1.
      99926    2    1    2    0    0  0.00000000000E+00  0.00000000000E+00 -0.13254773017E+03  0.47162074167E+03  0.45261155885E+03 0.  0.
      99925    2    3    3    0    0 -0.41253167992E+02  0.31657095681E+02  0.18627525783E+02  0.26862945691E+03  0.26288933951E+03 0.  0.
         25    1    4    4    0    0  0.11344816239E+01  0.39393035335E+01 -0.23310892006E+02  0.12730950847E+03  0.12509000000E+03 0.  0.
         25    1    4    4    0    0 -0.42387649616E+02  0.27717792147E+02  0.41938417790E+02  0.14131994844E+03  0.12509000000E+03 0.  0.
         25    1    3    3    0    0  0.41253167992E+02 -0.31657095681E+02 -0.15117525595E+03  0.20299128476E+03  0.12509000000E+03 0.  0.
<mgrwt>
<rscale>  2 0.45261156E+03</rscale>
<asrwt>0</asrwt>
<pdfrwt beam="1">  1       21 0.24931839E-01 0.45261156E+03</pdfrwt>
<pdfrwt beam="2">  1       21 0.44424152E-01 0.45261156E+03</pdfrwt>
<totfact> 0.68606384E+04</totfact>
</mgrwt>
</event>
<event>
 7    0  0.4784406E-002  0.4549839E+03  0.7546771E-02  0.1026246E+00
         21   -1    0    0  502  501  0.00000000000E+00  0.00000000000E+00  0.79194140463E+02  0.79194140463E+02  0.00000000000E+00 0.  1.
         21   -1    0    0  501  502 -0.00000000000E+00 -0.00000000000E+00 -0.65349000162E+03  0.65349000162E+03  0.00000000000E+00 0.  1.
      99926    2    1    2    0    0  0.00000000000E+00  0.00000000000E+00 -0.57429586115E+03  0.73268414208E+03  0.45498386336E+03 0.  0.
      99925    2    3    3    0    0  0.77436595302E+02 -0.40984314400E+02 -0.47661812272E+03  0.55139821046E+03  0.26305704946E+03 0.  0.
         25    1    3    3    0    0 -0.77436595302E+02  0.40984314400E+02 -0.97677738437E+02  0.18128593162E+03  0.12509000000E+03 0.  0.
         25    1    4    4    0    0  0.20009518987E+02 -0.52866103459E+02 -0.20583662115E+03  0.24740943485E+03  0.12509000000E+03 0.  0.
         25    1    4    4    0    0  0.57427076315E+02  0.11881789059E+02 -0.27078150156E+03  0.30398877561E+03  0.12509000000E+03 0.  0.
<mgrwt>
<rscale>  2 0.45498386E+03</rscale>
<asrwt>0</asrwt>
<pdfrwt beam="1">  1       21 0.11646198E-01 0.45498386E+03</pdfrwt>
<pdfrwt beam="2">  1       21 0.96101466E-01 0.45498386E+03</pdfrwt>
<totfact> 0.51170607E+04</totfact>
</mgrwt>
</event>
<event>
 7    0  0.4784406E-002  0.4552819E+03  0.7546771E-02  0.1026159E+00
         21   -1    0    0  502  501  0.00000000000E+00  0.00000000000E+00  0.12789468656E+04  0.12789468656E+04  0.00000000000E+00 0. -1.
         21   -1    0    0  501  502 -0.00000000000E+00 -0.00000000000E+00 -0.40518017957E+02  0.40518017957E+02  0.00000000000E+00 0. -1.
      99926    2    1    2    0    0  0.71054273576E-14  0.00000000000E+00  0.12384288477E+04  0.13194648836E+04  0.45528185585E+03 0.  0.
      99925    2    3    3    0    0  0.49986615179E+02 -0.10060367317E+03  0.82477853035E+03  0.87295188952E+03  0.26299356747E+03 0.  0.
         25    1    4    4    0    0 -0.55152710042E+01 -0.74041144186E+02  0.45954621917E+03  0.48201944453E+03  0.12509000000E+03 0.  0.
         25    1    3    3    0    0 -0.49986615179E+02  0.10060367317E+03  0.41365031732E+03  0.44651299407E+03  0.12509000000E+03 0.  0.
         25    1    4    4    0    0  0.55501886183E+02 -0.26562528987E+02  0.36523231118E+03  0.39093244499E+03  0.12509000000E+03 0.  0.
<mgrwt>
<rscale>  2 0.45528186E+03</rscale>
<asrwt>0</asrwt>
<pdfrwt beam="1">  1       21 0.18808039E+00 0.45528186E+03</pdfrwt>
<pdfrwt beam="2">  1       21 0.59585329E-02 0.45528186E+03</pdfrwt>
<totfact> 0.28492111E+04</totfact>
</mgrwt>
</event>
<event>
 7    0  0.4784406E-002  0.4507497E+03  0.7546771E-02  0.1027499E+00
         21   -1    0    0  502  501  0.00000000000E+00  0.00000000000E+00  0.25537952094E+03  0.25537952094E+03  0.00000000000E+00 0.  1.
         21   -1    0    0  501  502 -0.00000000000E+00 -0.00000000000E+00 -0.19889545934E+03  0.19889545934E+03  0.00000000000E+00 0.  1.
      99926    2    1    2    0    0  0.71054273576E-14  0.00000000000E+00  0.56484061601E+02  0.45427498027E+03  0.45074971823E+03 0.  0.
      99925    2    3    3    0    0  0.50281585824E+02  0.87785368446E+02 -0.51453062763E+01  0.28199556806E+03  0.26317393002E+03 0.  0.
         25    1    4    4    0    0  0.59234205483E+02  0.35161971768E+02  0.18353689010E+02  0.14397715568E+03  0.12509000000E+03 0.  0.
         25    1    3    3    0    0 -0.50281585824E+02 -0.87785368446E+02  0.61629367877E+02  0.17227941221E+03  0.12509000000E+03 0.  0.
         25    1    4    4    0    0 -0.89526196588E+01  0.52623396678E+02 -0.23498995286E+02  0.13801841238E+03  0.12509000000E+03 0.  0.
<mgrwt>
<rscale>  2 0.45074972E+03</rscale>
<asrwt>0</asrwt>
<pdfrwt beam="1">  1       21 0.37555812E-01 0.45074972E+03</pdfrwt>
<pdfrwt beam="2">  1       21 0.29249332E-01 0.45074972E+03</pdfrwt>
<totfact> 0.70975193E+04</totfact>
</mgrwt>
</event>
<event>
 7    0  0.4784406E-002  0.4589627E+03  0.7546771E-02  0.1025082E+00
         21   -1    0    0  502  501  0.00000000000E+00  0.00000000000E+00  0.11950363127E+03  0.11950363127E+03  0.00000000000E+00 0. -1.
         21   -1    0    0  501  502 -0.00000000000E+00 -0.00000000000E+00 -0.44067023809E+03  0.44067023809E+03  0.00000000000E+00 0. -1.
      99926    2    1    2    0    0  0.00000000000E+00  0.00000000000E+00 -0.32116660682E+03  0.56017386935E+03  0.45896271588E+03 0.  0.
      99925    2    3    3    0    0  0.10260613075E+03  0.54446818436E+02 -0.21672065543E+03  0.36005155933E+03  0.26301484517E+03 0.  0.
         25    1    4    4    0    0  0.57845002247E+02  0.11106392369E+02 -0.15373913490E+03  0.20676708137E+03  0.12509000000E+03 0.  0.
         25    1    3    3    0    0 -0.10260613075E+03 -0.54446818436E+02 -0.10444595139E+03  0.20012231002E+03  0.12509000000E+03 0.  0.
         25    1    4    4    0    0  0.44761128506E+02  0.43340426068E+02 -0.62981520528E+02  0.15328447796E+03  0.12509000000E+03 0.  0.
<mgrwt>
<rscale>  2 0.45896272E+03</rscale>
<asrwt>0</asrwt>
<pdfrwt beam="1">  1       21 0.17574063E-01 0.45896272E+03</pdfrwt>
<pdfrwt beam="2">  1       21 0.64804447E-01 0.45896272E+03</pdfrwt>
<totfact> 0.59317893E+04</totfact>
</mgrwt>
</event>
<event>
 7    0  0.4784406E-002  0.4548300E+03  0.7546771E-02  0.1026291E+00
         21   -1    0    0  502  501  0.00000000000E+00  0.00000000000E+00  0.12490758701E+03  0.12490758701E+03  0.00000000000E+00 0.  1.
         21   -1    0    0  501  502 -0.00000000000E+00 -0.00000000000E+00 -0.41404675911E+03  0.41404675911E+03  0.00000000000E+00 0.  1.
      99926    2    1    2    0    0  0.00000000000E+00  0.00000000000E+00 -0.28913917210E+03  0.53895434612E+03  0.45482999721E+03 0.  0.
      99925    2    3    3    0    0 -0.33123050611E+02  0.29118630385E+02 -0.30521020291E+03  0.40534739552E+03  0.26307453693E+03 0.  0.
         25    1    4    4    0    0 -0.25828678664E+02 -0.24813089563E+02 -0.15709990860E+03  0.20398700801E+03  0.12509000000E+03 0.  0.
         25    1    4    4    0    0 -0.72943719475E+01  0.53931719948E+02 -0.14811029431E+03  0.20136038752E+03  0.12509000000E+03 0.  0.
         25    1    3    3    0    0  0.33123050611E+02 -0.29118630385E+02  0.16071030813E+02  0.13360695060E+03  0.12509000000E+03 0.  0.
<mgrwt>
<rscale>  2 0.45483000E+03</rscale>
<asrwt>0</asrwt>
<pdfrwt beam="1">  1       21 0.18368763E-01 0.45483000E+03</pdfrwt>
<pdfrwt beam="2">  1       21 0.60889228E-01 0.45483000E+03</pdfrwt>
<totfact> 0.62686670E+04</totfact>
</mgrwt>
</event>
<event>
 7    0  0.4784406E-002  0.4562825E+03  0.7546771E-02  0.1025865E+00
         21   -1    0    0  502  501  0.00000000000E+00  0.00000000000E+00  0.99933137447E+03  0.99933137447E+03  0.00000000000E+00 0.  1.
         21   -1    0    0  501  502 -0.00000000000E+00 -0.00000000000E+00 -0.52083263093E+02  0.52083263093E+02  0.00000000000E+00 0.  1.
      99926    2    1    2    0    0  0.44408920985E-15  0.00000000000E+00  0.94724811138E+03  0.10514146376E+04  0.45628253920E+03 0.  0.
      99925    2    3    3    0    0 -0.17179732685E+01 -0.10100464784E+03  0.47160939308E+03  0.54933437629E+03  0.26295997227E+03 0.  0.
         25    1    3    3    0    0  0.17179732685E+01  0.10100464784E+03  0.47563871830E+03  0.50208026127E+03  0.12509000000E+03 0.  0.
         25    1    4    4    0    0  0.15489089726E+02 -0.11054924187E+02  0.22046050860E+03  0.25418982513E+03  0.12509000000E+03 0.  0.
         25    1    4    4    0    0 -0.17207062994E+02 -0.89949723651E+02  0.25114888449E+03  0.29514455116E+03  0.12509000000E+03 0.  0.
<mgrwt>
<rscale>  2 0.45628254E+03</rscale>
<asrwt>0</asrwt>
<pdfrwt beam="1">  1       21 0.14696048E+00 0.45628254E+03</pdfrwt>
<pdfrwt beam="2">  1       21 0.76593040E-02 0.45628254E+03</pdfrwt>
<totfact> 0.36855204E+04</totfact>
</mgrwt>
</event>
<event>
 7    0  0.4784406E-002  0.4585363E+03  0.7546771E-02  0.1025207E+00
         21   -1    0    0  502  501  0.00000000000E+00  0.00000000000E+00  0.19459616003E+03  0.19459616003E+03  0.00000000000E+00 0. -1.
         21   -1    0    0  501  502 -0.00000000000E+00 -0.00000000000E+00 -0.27011774562E+03  0.27011774562E+03  0.00000000000E+00 0. -1.
      99926    2    1    2    0    0  0.00000000000E+00  0.00000000000E+00 -0.75521585585E+02  0.46471390565E+03  0.45853626270E+03 0.  0.
      99925    2    3    3    0    0  0.13382411890E+02  0.63349578179E+02  0.50554663415E+02  0.27567690751E+03  0.26315342547E+03 0.  0.
         25    1    3    3    0    0 -0.13382411890E+02 -0.63349578179E+02 -0.12607624900E+03  0.18903699814E+03  0.12509000000E+03 0.  0.
         25    1    4    4    0    0 -0.31789098836E+02  0.18266431850E+02  0.18789507145E+02  0.13169951790E+03  0.12509000000E+03 0.  0.
         25    1    4    4    0    0  0.45171510726E+02  0.45083146330E+02  0.31765156270E+02  0.14397738960E+03  0.12509000000E+03 0.  0.
<mgrwt>
<rscale>  2 0.45853626E+03</rscale>
<asrwt>0</asrwt>
<pdfrwt beam="1">  1       21 0.28617083E-01 0.45853626E+03</pdfrwt>
<pdfrwt beam="2">  1       21 0.39723198E-01 0.45853626E+03</pdfrwt>
<totfact> 0.65957599E+04</totfact>
</mgrwt>
</event>
<event>
 7    0  0.4784406E-002  0.4609313E+03  0.7546771E-02  0.1024511E+00
         21   -1    0    0  502  501  0.00000000000E+00  0.00000000000E+00  0.26891664076E+03  0.26891664076E+03  0.00000000000E+00 0.  1.
         21   -1    0    0  501  502 -0.00000000000E+00 -0.00000000000E+00 -0.19751260199E+03  0.19751260199E+03  0.00000000000E+00 0.  1.
      99926    2    1    2    0    0  0.00000000000E+00  0.00000000000E+00  0.71404038767E+02  0.46642924275E+03  0.46093134168E+03 0.  0.
      99925    2    3    3    0    0  0.10823643800E+03 -0.45398903329E+02  0.27116340090E+02  0.28927085235E+03  0.26299456874E+03 0.  0.
         25    1    4    4    0    0  0.25783541634E+02  0.24776493742E+01  0.32790009927E+02  0.13188488396E+03  0.12509000000E+03 0.  0.
         25    1    3    3    0    0 -0.10823643800E+03  0.45398903329E+02  0.44287698678E+02  0.17715839040E+03  0.12509000000E+03 0.  0.
         25    1    4    4    0    0  0.82452896367E+02 -0.47876552703E+02 -0.56736698368E+01  0.15738596839E+03  0.12509000000E+03 0.  0.
<mgrwt>
<rscale>  2 0.46093134E+03</rscale>
<asrwt>0</asrwt>
<pdfrwt beam="1">  1       21 0.39546565E-01 0.46093134E+03</pdfrwt>
<pdfrwt beam="2">  1       21 0.29045971E-01 0.46093134E+03</pdfrwt>
<totfact> 0.64603870E+04</totfact>
</mgrwt>
</event>
<event>
 7    0  0.4784406E-002  0.4544330E+03  0.7546771E-02  0.1026408E+00
         21   -1    0    0  502  501  0.00000000000E+00  0.00000000000E+00  0.10692580423E+04  0.10692580423E+04  0.00000000000E+00 0.  1.
         21   -1    0    0  501  502 -0.00000000000E+00 -0.00000000000E+00 -0.48283320452E+02  0.48283320452E+02  0.00000000000E+00 0.  1.
      99926    2    1    2    0    0 -0.17763568394E-14  0.00000000000E+00  0.10209747218E+04  0.11175413627E+04  0.45443295964E+03 0.  0.
      99925    2    3    3    0    0 -0.83069260375E+01 -0.74755427707E+02  0.84892470125E+03  0.89191756817E+03  0.26303311773E+03 0.  0.
         25    1    3    3    0    0  0.83069260375E+01  0.74755427707E+02  0.17205002057E+03  0.22562379456E+03  0.12509000000E+03 0.  0.
         25    1    4    4    0    0  0.44720492363E+01 -0.77833565490E+02  0.43388351585E+03  0.45823626719E+03  0.12509000000E+03 0.  0.
         25    1    4    4    0    0 -0.12778975274E+02  0.30781377827E+01  0.41504118540E+03  0.43368130098E+03  0.12509000000E+03 0.  0.
<mgrwt>
<rscale>  2 0.45443296E+03</rscale>
<asrwt>0</asrwt>
<pdfrwt beam="1">  1       21 0.15724381E+00 0.45443296E+03</pdfrwt>
<pdfrwt beam="2">  1       21 0.71004890E-02 0.45443296E+03</pdfrwt>
<totfact> 0.35039378E+04</totfact>
</mgrwt>
</event>
<event>
 6    0  0.4784406E-002  0.4551490E+03  0.7546771E-02  0.1026198E+00
         21   -1    0    0  502  501  0.00000000000E+00  0.00000000000E+00  0.84472899438E+03  0.84472899438E+03  0.00000000000E+00 0.  1.
         21   -1    0    0  501  502 -0.00000000000E+00 -0.00000000000E+00 -0.61309791585E+02  0.61309791585E+02  0.00000000000E+00 0.  1.
      99926    2    1    2    0    0  0.00000000000E+00 -0.71054273576E-14  0.78341920279E+03  0.90603878597E+03  0.45514902435E+03 0.  0.
         25    1    3    3    0    0 -0.55062174494E+02  0.62646406921E+02  0.42723372684E+03  0.45291564426E+03  0.12509000000E+03 0.  0.
         25    1    3    3    0    0  0.13651855749E+02 -0.70169126489E+02  0.22396824401E+03  0.26630689420E+03  0.12509000000E+03 0.  0.
         25    1    3    3    0    0  0.41410318745E+02  0.75227195675E+01  0.13221723194E+03  0.18681624750E+03  0.12509000000E+03 0.  0.
<mgrwt>
<rscale>  2 0.45514902E+03</rscale>
<asrwt>0</asrwt>
<pdfrwt beam="1">  1       21 0.12422485E+00 0.45514902E+03</pdfrwt>
<pdfrwt beam="2">  1       21 0.90161463E-02 0.45514902E+03</pdfrwt>
<totfact> 0.42923547E+04</totfact>
</mgrwt>
</event>
<event>
 7    0  0.4784406E-002  0.4486998E+03  0.7546771E-02  0.1028110E+00
         21   -1    0    0  502  501  0.00000000000E+00  0.00000000000E+00  0.53316539379E+03  0.53316539379E+03  0.00000000000E+00 0.  1.
         21   -1    0    0  501  502 -0.00000000000E+00 -0.00000000000E+00 -0.94403856846E+02  0.94403856846E+02  0.00000000000E+00 0.  1.
      99926    2    1    2    0    0  0.00000000000E+00  0.17763568394E-14  0.43876153694E+03  0.62756925064E+03  0.44869976381E+03 0.  0.
      99925    2    3    3    0    0  0.10441743568E+02 -0.40525505459E+01  0.42643622396E+03  0.50137545279E+03  0.26344646208E+03 0.  0.
         25    1    4    4    0    0 -0.26427971328E+02 -0.18970908280E+02  0.17284406844E+03  0.21582611780E+03  0.12509000000E+03 0.  0.
         25    1    3    3    0    0 -0.10441743568E+02  0.40525505459E+01  0.12325312986E+02  0.12619379785E+03  0.12509000000E+03 0.  0.
         25    1    4    4    0    0  0.36869714896E+02  0.14918357734E+02  0.25359215551E+03  0.28554933499E+03  0.12509000000E+03 0.  0.
<mgrwt>
<rscale>  2 0.44869976E+03</rscale>
<asrwt>0</asrwt>
<pdfrwt beam="1">  1       21 0.78406674E-01 0.44869976E+03</pdfrwt>
<pdfrwt beam="2">  1       21 0.13882920E-01 0.44869976E+03</pdfrwt>
<totfact> 0.59938544E+04</totfact>
</mgrwt>
</event>
<event>
 7    0  0.4784406E-002  0.4531565E+03  0.7546771E-02  0.1026785E+00
         21   -1    0    0  502  501  0.00000000000E+00  0.00000000000E+00  0.10904303721E+04  0.10904303721E+04  0.00000000000E+00 0.  1.
         21   -1    0    0  501  502 -0.00000000000E+00 -0.00000000000E+00 -0.47080217958E+02  0.47080217958E+02  0.00000000000E+00 0.  1.
      99926    2    1    2    0    0  0.00000000000E+00  0.00000000000E+00  0.10433501541E+04  0.11375105901E+04  0.45315648329E+03 0.  0.
      99925    2    3    3    0    0 -0.41983865765E+02  0.92469748112E+02  0.54205996579E+03  0.61096271917E+03  0.26293181322E+03 0.  0.
         25    1    4    4    0    0 -0.43621053198E+02  0.32287922329E+02  0.33483799833E+03  0.36153741084E+03  0.12509000000E+03 0.  0.
         25    1    3    3    0    0  0.41983865765E+02 -0.92469748112E+02  0.50129018835E+03  0.52654787089E+03  0.12509000000E+03 0.  0.
         25    1    4    4    0    0  0.16371874332E+01  0.60181825783E+02  0.20722196746E+03  0.24942530833E+03  0.12509000000E+03 0.  0.
<mgrwt>
<rscale>  2 0.45315648E+03</rscale>
<asrwt>0</asrwt>
<pdfrwt beam="1">  1       21 0.16035739E+00 0.45315648E+03</pdfrwt>
<pdfrwt beam="2">  1       21 0.69235621E-02 0.45315648E+03</pdfrwt>
<totfact> 0.34698036E+04</totfact>
</mgrwt>
</event>
<event>
 7    0  0.4784406E-002  0.4484435E+03  0.7546771E-02  0.1028187E+00
         21   -1    0    0  502  501  0.00000000000E+00  0.00000000000E+00  0.17290654432E+03  0.17290654432E+03  0.00000000000E+00 0. -1.
         21   -1    0    0  501  502 -0.00000000000E+00 -0.00000000000E+00 -0.29076630261E+03  0.29076630261E+03  0.00000000000E+00 0. -1.
      99926    2    1    2    0    0 -0.35527136788E-14  0.35527136788E-14 -0.11785975829E+03  0.46367284692E+03  0.44844351523E+03 0.  0.
      99925    2    3    3    0    0 -0.27928493639E+02  0.16720098046E+02  0.30702290193E+02  0.26675217054E+03  0.26297248417E+03 0.  0.
         25    1    4    4    0    0  0.92581568129E+01 -0.65542404840E+01 -0.15088975567E+02  0.12650635091E+03  0.12509000000E+03 0.  0.
         25    1    3    3    0    0  0.27928493639E+02 -0.16720098046E+02 -0.14856204848E+03  0.19692067638E+03  0.12509000000E+03 0.  0.
         25    1    4    4    0    0 -0.37186650452E+02  0.23274338530E+02  0.45791265761E+02  0.14024581964E+03  0.12509000000E+03 0.  0.
<mgrwt>
<rscale>  2 0.44844352E+03</rscale>
<asrwt>0</asrwt>
<pdfrwt beam="1">  1       21 0.25427433E-01 0.44844352E+03</pdfrwt>
<pdfrwt beam="2">  1       21 0.42759750E-01 0.44844352E+03</pdfrwt>
<totfact> 0.71559253E+04</totfact>
</mgrwt>
</event>
<event>
 7    0  0.4784406E-002  0.4535674E+03  0.7546771E-02  0.1026664E+00
         21   -1    0    0  502  501  0.00000000000E+00  0.00000000000E+00  0.13041508830E+04  0.13041508830E+04  0.00000000000E+00 0.  1.
         21   -1    0    0  501  502 -0.00000000000E+00 -0.00000000000E+00 -0.39436264758E+02  0.39436264758E+02  0.00000000000E+00 0.  1.
      99926    2    1    2    0    0 -0.35527136788E-14  0.00000000000E+00  0.12647146183E+04  0.13435871478E+04  0.45356736879E+03 0.  0.
      99925    2    3    3    0    0 -0.23070169396E+02  0.91994284734E+02  0.62004283840E+03  0.68007799714E+03  0.26278846929E+03 0.  0.
         25    1    3    3    0    0  0.23070169396E+02 -0.91994284734E+02  0.64467177986E+03  0.66350915065E+03  0.12509000000E+03 0.  0.
         25    1    4    4    0    0  0.13505985974E+02  0.61609048192E+02  0.24992867016E+03  0.28651341110E+03  0.12509000000E+03 0.  0.
         25    1    4    4    0    0 -0.36576155370E+02  0.30385236542E+02  0.37011416825E+03  0.39356458603E+03  0.12509000000E+03 0.  0.
<mgrwt>
<rscale>  2 0.45356737E+03</rscale>
<asrwt>0</asrwt>
<pdfrwt beam="1">  1       21 0.19178687E+00 0.45356737E+03</pdfrwt>
<pdfrwt beam="2">  1       21 0.57994515E-02 0.45356737E+03</pdfrwt>
<totfact> 0.28187348E+04</totfact>
</mgrwt>
</event>
<event>
 7    0  0.4784406E-002  0.4349771E+03  0.7546771E-02  0.1032299E+00
         21   -1    0    0  502  501  0.00000000000E+00  0.00000000000E+00  0.10632840872E+03  0.10632840872E+03  0.00000000000E+00 0.  1.
         21   -1    0    0  501  502 -0.00000000000E+00 -0.00000000000E+00 -0.44486011149E+03  0.44486011149E+03  0.00000000000E+00 0.  1.
      99926    2    1    2    0    0  0.14210854715E-13 -0.71054273576E-14 -0.33853170276E+03  0.55118852021E+03  0.43497709254E+03 0.  0.
      99925    2    3    3    0    0  0.78405109181E+02 -0.50427139947E+02 -0.21617697670E+03  0.35292494645E+03  0.26293207295E+03 0.  0.
         25    1    4    4    0    0  0.80049843151E+02 -0.28158926021E+02 -0.10456166962E+03  0.18379758801E+03  0.12509000000E+03 0.  0.
         25    1    4    4    0    0 -0.16447339703E+01 -0.22268213926E+02 -0.11161530708E+03  0.16912735845E+03  0.12509000000E+03 0.  0.
         25    1    3    3    0    0 -0.78405109181E+02  0.50427139947E+02 -0.12235472607E+03  0.19826357376E+03  0.12509000000E+03 0.  0.
<mgrwt>
<rscale>  2 0.43497709E+03</rscale>
<asrwt>0</asrwt>
<pdfrwt beam="1">  1       21 0.15636531E-01 0.43497709E+03</pdfrwt>
<pdfrwt beam="2">  1       21 0.65420604E-01 0.43497709E+03</pdfrwt>
<totfact> 0.72627206E+04</totfact>
</mgrwt>
</event>
<event>
 7    0  0.4784406E-002  0.4358606E+03  0.7546771E-02  0.1032024E+00
         21   -1    0    0  502  501  0.00000000000E+00  0.00000000000E+00  0.19444230779E+03  0.19444230779E+03  0.00000000000E+00 0.  1.
         21   -1    0    0  501  502 -0.00000000000E+00 -0.00000000000E+00 -0.24425558561E+03  0.24425558561E+03  0.00000000000E+00 0.  1.
      99926    2    1    2    0    0  0.00000000000E+00  0.00000000000E+00 -0.49813277818E+02  0.43869789340E+03  0.43586061880E+03 0.  0.
      99925    2    3    3    0    0  0.63569165012E+02  0.51803440364E+02  0.16091246574E+02  0.27524897291E+03  0.26225642737E+03 0.  0.
         25    1    4    4    0    0  0.36123106618E+02  0.43634952418E+02  0.43470242652E+02  0.14403491938E+03  0.12509000000E+03 0.  0.
         25    1    4    4    0    0  0.27446058393E+02  0.81684879465E+01 -0.27378996078E+02  0.13121405353E+03  0.12509000000E+03 0.  0.
         25    1    3    3    0    0 -0.63569165012E+02 -0.51803440364E+02 -0.65904524392E+02  0.16344892049E+03  0.12509000000E+03 0.  0.
<mgrwt>
<rscale>  2 0.43586062E+03</rscale>
<asrwt>0</asrwt>
<pdfrwt beam="1">  1       21 0.28594457E-01 0.43586062E+03</pdfrwt>
<pdfrwt beam="2">  1       21 0.35919939E-01 0.43586062E+03</pdfrwt>
<totfact> 0.81510516E+04</totfact>
</mgrwt>
</event>
<event>
 7    0  0.4784406E-002  0.4519667E+03  0.7546771E-02  0.1027137E+00
         21   -1    0    0  502  501  0.00000000000E+00  0.00000000000E+00  0.31688874306E+03  0.31688874306E+03  0.00000000000E+00 0.  1.
         21   -1    0    0  501  502 -0.00000000000E+00 -0.00000000000E+00 -0.16115582959E+03  0.16115582959E+03  0.00000000000E+00 0.  1.
      99926    2    1    2    0    0  0.71054273576E-14  0.00000000000E+00  0.15573291347E+03  0.47804457265E+03  0.45196667255E+03 0.  0.
      99925    2    3    3    0    0 -0.33008152810E+02  0.25197282012E+02  0.20632073978E+03  0.33686710475E+03  0.26303375720E+03 0.  0.
         25    1    4    4    0    0 -0.53301212840E+02  0.30890483617E+02  0.10754553228E+03  0.17609313127E+03  0.12509000000E+03 0.  0.
         25    1    4    4    0    0  0.20293060029E+02 -0.56932016047E+01  0.98775207503E+02  0.16077397348E+03  0.12509000000E+03 0.  0.
         25    1    3    3    0    0  0.33008152810E+02 -0.25197282012E+02 -0.50587826304E+02  0.14117746790E+03  0.12509000000E+03 0.  0.
<mgrwt>
<rscale>  2 0.45196667E+03</rscale>
<asrwt>0</asrwt>
<pdfrwt beam="1">  1       21 0.46601286E-01 0.45196667E+03</pdfrwt>
<pdfrwt beam="2">  1       21 0.23699387E-01 0.45196667E+03</pdfrwt>
<totfact> 0.68476612E+04</totfact>
</mgrwt>
</event>
<event>
 7    0  0.4784406E-002  0.4567468E+03  0.7546771E-02  0.1025729E+00
         21   -1    0    0  502  501  0.00000000000E+00  0.00000000000E+00  0.99333966932E+03  0.99333966932E+03  0.00000000000E+00 0. -1.
         21   -1    0    0  501  502 -0.00000000000E+00 -0.00000000000E+00 -0.52504096736E+02  0.52504096736E+02  0.00000000000E+00 0. -1.
      99926    2    1    2    0    0  0.00000000000E+00  0.00000000000E+00  0.94083557258E+03  0.10458437661E+04  0.45674676611E+03 0.  0.
      99925    2    3    3    0    0 -0.43766494700E+02 -0.86081767408E+02  0.73377429100E+03  0.78536831775E+03  0.26277957998E+03 0.  0.
         25    1    4    4    0    0  0.13707385041E+02 -0.60279564452E+02  0.34597297044E+03  0.37305002704E+03  0.12509000000E+03 0.  0.
         25    1    3    3    0    0  0.43766494700E+02  0.86081767408E+02  0.20706128158E+03  0.26047544830E+03  0.12509000000E+03 0.  0.
         25    1    4    4    0    0 -0.57473879741E+02 -0.25802202957E+02  0.38780132056E+03  0.41231829071E+03  0.12509000000E+03 0.  0.
<mgrwt>
<rscale>  2 0.45674677E+03</rscale>
<asrwt>0</asrwt>
<pdfrwt beam="1">  1       21 0.14607935E+00 0.45674677E+03</pdfrwt>
<pdfrwt beam="2">  1       21 0.77211913E-02 0.45674677E+03</pdfrwt>
<totfact> 0.36924245E+04</totfact>
</mgrwt>
</event>
<event>
 7    0  0.4784406E-002  0.4563174E+03  0.7546771E-02  0.1025855E+00
         21   -1    0    0  502  501  0.00000000000E+00  0.00000000000E+00  0.30019146742E+03  0.30019146742E+03  0.00000000000E+00 0.  1.
         21   -1    0    0  501  502 -0.00000000000E+00 -0.00000000000E+00 -0.17341066619E+03  0.17341066619E+03  0.00000000000E+00 0.  1.
      99926    2    1    2    0    0  0.00000000000E+00  0.71054273576E-14  0.12678080124E+03  0.47360213361E+03  0.45631744367E+03 0.  0.
      99925    2    3    3    0    0 -0.97499392442E+02 -0.59445310101E+02  0.72463555910E+02  0.29573210336E+03  0.26299550111E+03 0.  0.
         25    1    4    4    0    0 -0.84586166199E+01 -0.28449217171E+02  0.47797483541E+02  0.13716053983E+03  0.12509000000E+03 0.  0.
         25    1    4    4    0    0 -0.89040775822E+02 -0.30996092931E+02  0.24666072369E+02  0.15857156354E+03  0.12509000000E+03 0.  0.
         25    1    3    3    0    0  0.97499392442E+02  0.59445310101E+02  0.54317245326E+02  0.17787003025E+03  0.12509000000E+03 0.  0.
<mgrwt>
<rscale>  2 0.45631744E+03</rscale>
<asrwt>0</asrwt>
<pdfrwt beam="1">  1       21 0.44145804E-01 0.45631744E+03</pdfrwt>
<pdfrwt beam="2">  1       21 0.25501569E-01 0.45631744E+03</pdfrwt>
<totfact> 0.66471297E+04</totfact>
</mgrwt>
</event>
<event>
 7    0  0.4784406E-002  0.4566418E+03  0.7546771E-02  0.1025760E+00
         21   -1    0    0  502  501  0.00000000000E+00  0.00000000000E+00  0.16135363939E+04  0.16135363939E+04  0.00000000000E+00 0.  1.
         21   -1    0    0  501  502 -0.00000000000E+00 -0.00000000000E+00 -0.32308180853E+02  0.32308180853E+02  0.00000000000E+00 0.  1.
      99926    2    1    2    0    0 -0.71054273576E-14 -0.14210854715E-13  0.15812282131E+04  0.16458445748E+04  0.45664176606E+03 0.  0.
      99925    2    3    3    0    0  0.52531267242E+02  0.98138514103E+02  0.89420226457E+03  0.93870748482E+03  0.26302728013E+03 0.  0.
         25    1    4    4    0    0 -0.27051548352E+01  0.24417509413E+02  0.46894854978E+03  0.48596685388E+03  0.12509000000E+03 0.  0.
         25    1    4    4    0    0  0.55236422077E+02  0.73721004690E+02  0.42525371479E+03  0.45274063094E+03  0.12509000000E+03 0.  0.
         25    1    3    3    0    0 -0.52531267242E+02 -0.98138514103E+02  0.68702594850E+03  0.70713708996E+03  0.12509000000E+03 0.  0.
<mgrwt>
<rscale>  2 0.45664177E+03</rscale>
<asrwt>0</asrwt>
<pdfrwt beam="1">  1       21 0.23728471E+00 0.45664177E+03</pdfrwt>
<pdfrwt beam="2">  1       21 0.47512042E-02 0.45664177E+03</pdfrwt>
<totfact> 0.20155203E+04</totfact>
</mgrwt>
</event>
<event>
 7    0  0.4784406E-002  0.4440584E+03  0.7546771E-02  0.1029509E+00
         21   -1    0    0  502  501  0.00000000000E+00  0.00000000000E+00  0.18079755079E+02  0.18079755079E+02  0.00000000000E+00 0. -1.
         21   -1    0    0  501  502 -0.00000000000E+00 -0.00000000000E+00 -0.27266392981E+04  0.27266392981E+04  0.00000000000E+00 0. -1.
      99926    2    1    2    0    0 -0.71054273576E-14  0.00000000000E+00 -0.27085595431E+04  0.27447190532E+04  0.44405842272E+03 0.  0.
      99925    2    3    3    0    0 -0.38972485386E+02 -0.75851702053E+02 -0.20738939195E+04  0.20922466039E+04  0.26303521963E+03 0.  0.
         25    1    4    4    0    0  0.74180608716E+01 -0.11730984274E+02 -0.10981518149E+04  0.11053404725E+04  0.12509000000E+03 0.  0.
         25    1    3    3    0    0  0.38972485386E+02  0.75851702053E+02 -0.63466562355E+03  0.65247244933E+03  0.12509000000E+03 0.  0.
         25    1    4    4    0    0 -0.46390546258E+02 -0.64120717779E+02 -0.97574210463E+03  0.98690613134E+03  0.12509000000E+03 0.  0.
<mgrwt>
<rscale>  2 0.44405842E+03</rscale>
<asrwt>0</asrwt>
<pdfrwt beam="1">  1       21 0.26587871E-02 0.44405842E+03</pdfrwt>
<pdfrwt beam="2">  1       21 0.40097644E+00 0.44405842E+03</pdfrwt>
<totfact> 0.53816807E+03</totfact>
</mgrwt>
</event>
<event>
 7    0  0.4784406E-002  0.4565867E+03  0.7546771E-02  0.1025776E+00
         21   -1    0    0  502  501  0.00000000000E+00  0.00000000000E+00  0.47965940532E+02  0.47965940532E+02  0.00000000000E+00 0. -1.
         21   -1    0    0  501  502 -0.00000000000E+00 -0.00000000000E+00 -0.10865597720E+04  0.10865597720E+04  0.00000000000E+00 0. -1.
      99926    2    1    2    0    0  0.00000000000E+00  0.00000000000E+00 -0.10385938315E+04  0.11345257125E+04  0.45658673396E+03 0.  0.
      99925    2    3    3    0    0 -0.65577749914E+02  0.36149611894E+02 -0.43688583896E+03  0.51540758804E+03  0.26299906806E+03 0.  0.
         25    1    3    3    0    0  0.65577749914E+02 -0.36149611894E+02 -0.60170799250E+03  0.61911812448E+03  0.12509000000E+03 0.  0.
         25    1    4    4    0    0 -0.73236851290E+01  0.13190279237E+02 -0.26778829883E+03  0.29594881469E+03  0.12509000000E+03 0.  0.
         25    1    4    4    0    0 -0.58254064785E+02  0.22959332656E+02 -0.16909754014E+03  0.21945877335E+03  0.12509000000E+03 0.  0.
<mgrwt>
<rscale>  2 0.45658673E+03</rscale>
<asrwt>0</asrwt>
<pdfrwt beam="1">  1       21 0.70538155E-02 0.45658673E+03</pdfrwt>
<pdfrwt beam="2">  1       21 0.15978819E+00 0.45658673E+03</pdfrwt>
<totfact> 0.33882232E+04</totfact>
</mgrwt>
</event>
<event>
 7    0  0.4784406E-002  0.4539155E+03  0.7546771E-02  0.1026561E+00
         21   -1    0    0  502  501  0.00000000000E+00  0.00000000000E+00  0.96559854885E+02  0.96559854885E+02  0.00000000000E+00 0. -1.
         21   -1    0    0  501  502 -0.00000000000E+00 -0.00000000000E+00 -0.53344960632E+03  0.53344960632E+03  0.00000000000E+00 0. -1.
      99926    2    1    2    0    0  0.00000000000E+00  0.00000000000E+00 -0.43688975144E+03  0.63000946121E+03  0.45391548365E+03 0.  0.
      99925    2    3    3    0    0  0.31275013499E+02 -0.82934771730E+02 -0.37059822664E+03  0.46298138815E+03  0.26296847215E+03 0.  0.
         25    1    4    4    0    0  0.43990388233E+02 -0.18314135076E+02 -0.15073808938E+03  0.20159375360E+03  0.12509000000E+03 0.  0.
         25    1    3    3    0    0 -0.31275013499E+02  0.82934771730E+02 -0.66291524793E+02  0.16702807306E+03  0.12509000000E+03 0.  0.
         25    1    4    4    0    0 -0.12715374734E+02 -0.64620636654E+02 -0.21986013726E+03  0.26138763455E+03  0.12509000000E+03 0.  0.
<mgrwt>
<rscale>  2 0.45391548E+03</rscale>
<asrwt>0</asrwt>
<pdfrwt beam="1">  1       21 0.14199978E-01 0.45391548E+03</pdfrwt>
<pdfrwt beam="2">  1       21 0.78448473E-01 0.45391548E+03</pdfrwt>
<totfact> 0.57357575E+04</totfact>
</mgrwt>
</event>
<event>
 7    0  0.4784406E-002  0.4646522E+03  0.7546771E-02  0.1023441E+00
         21   -1    0    0  502  501  0.00000000000E+00  0.00000000000E+00  0.11271231364E+03  0.11271231364E+03  0.00000000000E+00 0. -1.
         21   -1    0    0  501  502 -0.00000000000E+00 -0.00000000000E+00 -0.47887765278E+03  0.47887765278E+03  0.00000000000E+00 0. -1.
      99926    2    1    2    0    0 -0.71054273576E-14  0.00000000000E+00 -0.36616533914E+03  0.59158996642E+03  0.46465216322E+03 0.  0.
      99925    2    3    3    0    0  0.51436862396E+02  0.10739991296E+03 -0.19510138977E+03  0.34850381916E+03  0.26307768351E+03 0.  0.
         25    1    4    4    0    0  0.47010717504E+02  0.83931386228E+02 -0.13506361816E+03  0.20771175751E+03  0.12509000000E+03 0.  0.
         25    1    3    3    0    0 -0.51436862396E+02 -0.10739991296E+03 -0.17106394937E+03  0.24308614726E+03  0.12509000000E+03 0.  0.
         25    1    4    4    0    0  0.44261448919E+01  0.23468526730E+02 -0.60037771608E+02  0.14079206166E+03  0.12509000000E+03 0.  0.
<mgrwt>
<rscale>  2 0.46465216E+03</rscale>
<asrwt>0</asrwt>
<pdfrwt beam="1">  1       21 0.16575341E-01 0.46465216E+03</pdfrwt>
<pdfrwt beam="2">  1       21 0.70423182E-01 0.46465216E+03</pdfrwt>
<totfact> 0.54890206E+04</totfact>
</mgrwt>
</event>
<event>
 7    0  0.4784406E-002  0.4657983E+03  0.7546771E-02  0.1023113E+00
         21   -1    0    0  502  501  0.00000000000E+00  0.00000000000E+00  0.46162640349E+03  0.46162640349E+03  0.00000000000E+00 0.  1.
         21   -1    0    0  501  502 -0.00000000000E+00 -0.00000000000E+00 -0.11750196247E+03  0.11750196247E+03  0.00000000000E+00 0.  1.
      99926    2    1    2    0    0  0.14210854715E-13 -0.71054273576E-14  0.34412444102E+03  0.57912836596E+03  0.46579827538E+03 0.  0.
      99925    2    3    3    0    0 -0.11278054878E+03  0.31083958586E+02  0.25990899003E+03  0.38827393203E+03  0.26366322939E+03 0.  0.
         25    1    4    4    0    0 -0.26754236702E+02  0.14763733318E+02  0.77098429670E+02  0.15008475259E+03  0.12509000000E+03 0.  0.
         25    1    4    4    0    0 -0.86026312079E+02  0.16320225268E+02  0.18281056036E+03  0.23818917944E+03  0.12509000000E+03 0.  0.
         25    1    3    3    0    0  0.11278054878E+03 -0.31083958586E+02  0.84215450992E+02  0.19085443393E+03  0.12509000000E+03 0.  0.
<mgrwt>
<rscale>  2 0.46579828E+03</rscale>
<asrwt>0</asrwt>
<pdfrwt beam="1">  1       21 0.67886235E-01 0.46579828E+03</pdfrwt>
<pdfrwt beam="2">  1       21 0.17279700E-01 0.46579828E+03</pdfrwt>
<totfact> 0.55122802E+04</totfact>
</mgrwt>
</event>
<event>
 7    0  0.4784406E-002  0.4502176E+03  0.7546771E-02  0.1027657E+00
         21   -1    0    0  502  501  0.00000000000E+00  0.00000000000E+00  0.77814352588E+02  0.77814352588E+02  0.00000000000E+00 0.  1.
         21   -1    0    0  501  502 -0.00000000000E+00 -0.00000000000E+00 -0.65121613273E+03  0.65121613273E+03  0.00000000000E+00 0.  1.
      99926    2    1    2    0    0 -0.14210854715E-13 -0.71054273576E-14 -0.57340178014E+03  0.72903048532E+03  0.45021755525E+03 0.  0.
      99925    2    3    3    0    0  0.80314304935E+02  0.55134192622E+02 -0.28440515454E+03  0.39939929067E+03  0.26295120211E+03 0.  0.
         25    1    3    3    0    0 -0.80314304935E+02 -0.55134192622E+02 -0.28899662560E+03  0.32963119464E+03  0.12509000000E+03 0.  0.
         25    1    4    4    0    0  0.66828909761E+02  0.28794802454E+01 -0.17071310003E+03  0.22195689944E+03  0.12509000000E+03 0.  0.
         25    1    4    4    0    0  0.13485395174E+02  0.52254712377E+02 -0.11369205451E+03  0.17744239123E+03  0.12509000000E+03 0.  0.
<mgrwt>
<rscale>  2 0.45021756E+03</rscale>
<asrwt>0</asrwt>
<pdfrwt beam="1">  1       21 0.11443287E-01 0.45021756E+03</pdfrwt>
<pdfrwt beam="2">  1       21 0.95767081E-01 0.45021756E+03</pdfrwt>
<totfact> 0.53332593E+04</totfact>
</mgrwt>
</event>
<event>
 7    0  0.4784406E-002  0.4579537E+03  0.7546771E-02  0.1025376E+00
         21   -1    0    0  502  501  0.00000000000E+00  0.00000000000E+00  0.11719699326E+04  0.11719699326E+04  0.00000000000E+00 0.  1.
         21   -1    0    0  501  502 -0.00000000000E+00 -0.00000000000E+00 -0.44736991535E+02  0.44736991535E+02  0.00000000000E+00 0.  1.
      99926    2    1    2    0    0  0.00000000000E+00  0.14210854715E-13  0.11272329411E+04  0.12167069241E+04  0.45795374856E+03 0.  0.
      99925    2    3    3    0    0 -0.10848892119E+02 -0.65301233955E+02  0.96025153642E+03  0.99781826017E+03  0.26301391125E+03 0.  0.
         25    1    3    3    0    0  0.10848892119E+02  0.65301233955E+02  0.16698140465E+03  0.21888866397E+03  0.12509000000E+03 0.  0.
         25    1    4    4    0    0  0.28002751769E+01 -0.69459550713E+02  0.44695164611E+03  0.46930347622E+03  0.12509000000E+03 0.  0.
         25    1    4    4    0    0 -0.13649167296E+02  0.41583167577E+01  0.51329989030E+03  0.52851478395E+03  0.12509000000E+03 0.  0.
<mgrwt>
<rscale>  2 0.45795375E+03</rscale>
<asrwt>0</asrwt>
<pdfrwt beam="1">  1       21 0.17234850E+00 0.45795375E+03</pdfrwt>
<pdfrwt beam="2">  1       21 0.65789701E-02 0.45795375E+03</pdfrwt>
<totfact> 0.30913531E+04</totfact>
</mgrwt>
</event>
<event>
 7    0  0.4784406E-002  0.4497972E+03  0.7546771E-02  0.1027783E+00
         21   -1    0    0  502  501  0.00000000000E+00  0.00000000000E+00  0.13003868952E+04  0.13003868952E+04  0.00000000000E+00 0. -1.
         21   -1    0    0  501  502 -0.00000000000E+00 -0.00000000000E+00 -0.38895644932E+02  0.38895644932E+02  0.00000000000E+00 0. -1.
      99926    2    1    2    0    0  0.00000000000E+00  0.00000000000E+00  0.12614912503E+04  0.13392825402E+04  0.44979722966E+03 0.  0.
      99925    2    3    3    0    0  0.10153106035E+03 -0.35114531992E+02  0.83556661420E+03  0.88255407564E+03  0.26303715152E+03 0.  0.
         25    1    4    4    0    0  0.96188946075E+01 -0.67646420386E+01  0.40125951001E+03  0.42046995849E+03  0.12509000000E+03 0.  0.
         25    1    3    3    0    0 -0.10153106035E+03  0.35114531992E+02  0.42592463612E+03  0.45672846454E+03  0.12509000000E+03 0.  0.
         25    1    4    4    0    0  0.91912165747E+02 -0.28349889954E+02  0.43430710419E+03  0.46208411715E+03  0.12509000000E+03 0.  0.
<mgrwt>
<rscale>  2 0.44979723E+03</rscale>
<asrwt>0</asrwt>
<pdfrwt beam="1">  1       21 0.19123334E+00 0.44979723E+03</pdfrwt>
<pdfrwt beam="2">  1       21 0.57199486E-02 0.44979723E+03</pdfrwt>
<totfact> 0.29156625E+04</totfact>
</mgrwt>
</event>
<event>
 7    0  0.4784406E-002  0.4517555E+03  0.7546771E-02  0.1027200E+00
         21   -1    0    0  502  501  0.00000000000E+00  0.00000000000E+00  0.18398886069E+03  0.18398886069E+03  0.00000000000E+00 0.  1.
         21   -1    0    0  501  502 -0.00000000000E+00 -0.00000000000E+00 -0.27730352657E+03  0.27730352657E+03  0.00000000000E+00 0.  1.
      99926    2    1    2    0    0  0.00000000000E+00 -0.17763568394E-14 -0.93314665874E+02  0.46129238726E+03  0.45175550874E+03 0.  0.
      99925    2    3    3    0    0  0.10089012452E+03 -0.11075126677E+02 -0.17879347048E+02  0.28341751247E+03  0.26401579435E+03 0.  0.
         25    1    3    3    0    0 -0.10089012452E+03  0.11075126677E+02 -0.75435318827E+02  0.17787487479E+03  0.12509000000E+03 0.  0.
         25    1    4    4    0    0  0.27291569759E+02  0.24944617411E+02 -0.28448920771E+02  0.13350622798E+03  0.12509000000E+03 0.  0.
         25    1    4    4    0    0  0.73598554759E+02 -0.36019744087E+02  0.10569573723E+02  0.14991128448E+03  0.12509000000E+03 0.  0.
<mgrwt>
<rscale>  2 0.45175551E+03</rscale>
<asrwt>0</asrwt>
<pdfrwt beam="1">  1       21 0.27057185E-01 0.45175551E+03</pdfrwt>
<pdfrwt beam="2">  1       21 0.40779930E-01 0.45175551E+03</pdfrwt>
<totfact> 0.69870546E+04</totfact>
</mgrwt>
</event>
<event>
 7    0  0.4784406E-002  0.4506061E+03  0.7546771E-02  0.1027541E+00
         21   -1    0    0  502  501  0.00000000000E+00  0.00000000000E+00  0.15012259327E+03  0.15012259327E+03  0.00000000000E+00 0. -1.
         21   -1    0    0  501  502 -0.00000000000E+00 -0.00000000000E+00 -0.33813343492E+03  0.33813343492E+03  0.00000000000E+00 0. -1.
      99926    2    1    2    0    0 -0.17763568394E-14  0.00000000000E+00 -0.18801084165E+03  0.48825602819E+03  0.45060611679E+03 0.  0.
      99925    2    3    3    0    0  0.11772839079E+02  0.55257226596E+02 -0.17845708651E+02  0.26963388517E+03  0.26304372618E+03 0.  0.
         25    1    4    4    0    0 -0.18702609434E+02  0.31226494051E+02 -0.41112080501E+02  0.13661110055E+03  0.12509000000E+03 0.  0.
         25    1    3    3    0    0 -0.11772839079E+02 -0.55257226596E+02 -0.17016513300E+03  0.21862214302E+03  0.12509000000E+03 0.  0.
         25    1    4    4    0    0  0.30475448514E+02  0.24030732545E+02  0.23266371851E+02  0.13302278462E+03  0.12509000000E+03 0.  0.
<mgrwt>
<rscale>  2 0.45060612E+03</rscale>
<asrwt>0</asrwt>
<pdfrwt beam="1">  1       21 0.22076852E-01 0.45060612E+03</pdfrwt>
<pdfrwt beam="2">  1       21 0.49725505E-01 0.45060612E+03</pdfrwt>
<totfact> 0.68460899E+04</totfact>
</mgrwt>
</event>
<event>
 7    0  0.4784406E-002  0.4389886E+03  0.7546771E-02  0.1031058E+00
         21   -1    0    0  502  501  0.00000000000E+00  0.00000000000E+00  0.44910680902E+03  0.44910680902E+03  0.00000000000E+00 0. -1.
         21   -1    0    0  501  502 -0.00000000000E+00 -0.00000000000E+00 -0.10727459696E+03  0.10727459696E+03  0.00000000000E+00 0. -1.
      99926    2    1    2    0    0  0.71054273576E-14  0.00000000000E+00  0.34183221206E+03  0.55638140598E+03  0.43898861912E+03 0.  0.
      99925    2    3    3    0    0 -0.55846221154E+02  0.17657312993E+02  0.11968075887E+03  0.29479135003E+03  0.26295983513E+03 0.  0.
         25    1    3    3    0    0  0.55846221154E+02 -0.17657312993E+02  0.22215145318E+03  0.26159005595E+03  0.12509000000E+03 0.  0.
         25    1    4    4    0    0 -0.45192300033E+02  0.45771208651E+02  0.66374578182E+02  0.15553276263E+03  0.12509000000E+03 0.  0.
         25    1    4    4    0    0 -0.10653921122E+02 -0.28113895658E+02  0.53306180693E+02  0.13925858740E+03  0.12509000000E+03 0.  0.
<mgrwt>
<rscale>  2 0.43898862E+03</rscale>
<asrwt>0</asrwt>
<pdfrwt beam="1">  1       21 0.66045119E-01 0.43898862E+03</pdfrwt>
<pdfrwt beam="2">  1       21 0.15775676E-01 0.43898862E+03</pdfrwt>
<totfact> 0.69886654E+04</totfact>
</mgrwt>
</event>
<event>
 7    0  0.4784406E-002  0.4552582E+03  0.7546771E-02  0.1026165E+00
         21   -1    0    0  502  501  0.00000000000E+00  0.00000000000E+00  0.39325779003E+03  0.39325779003E+03  0.00000000000E+00 0. -1.
         21   -1    0    0  501  502 -0.00000000000E+00 -0.00000000000E+00 -0.13175838079E+03  0.13175838079E+03  0.00000000000E+00 0. -1.
      99926    2    1    2    0    0 -0.35527136788E-14  0.00000000000E+00  0.26149940924E+03  0.52501617082E+03  0.45525821090E+03 0.  0.
      99925    2    3    3    0    0  0.19211533965E+02 -0.15434915541E+02  0.35772278093E+02  0.26577195104E+03  0.26219792986E+03 0.  0.
         25    1    4    4    0    0  0.46505854849E+02 -0.20999765276E+02  0.22056891343E+02  0.13688608122E+03  0.12509000000E+03 0.  0.
         25    1    4    4    0    0 -0.27294320884E+02  0.55648497352E+01  0.13715386750E+02  0.12888586982E+03  0.12509000000E+03 0.  0.
         25    1    3    3    0    0 -0.19211533965E+02  0.15434915541E+02  0.22572713115E+03  0.25924421978E+03  0.12509000000E+03 0.  0.
<mgrwt>
<rscale>  2 0.45525821E+03</rscale>
<asrwt>0</asrwt>
<pdfrwt beam="1">  1       21 0.57832028E-01 0.45525821E+03</pdfrwt>
<pdfrwt beam="2">  1       21 0.19376233E-01 0.45525821E+03</pdfrwt>
<totfact> 0.63415247E+04</totfact>
</mgrwt>
</event>
<event>
 7    0  0.4784406E-002  0.4609489E+03  0.7546771E-02  0.1024506E+00
         21   -1    0    0  502  501  0.00000000000E+00  0.00000000000E+00  0.13455682850E+03  0.13455682850E+03  0.00000000000E+00 0.  1.
         21   -1    0    0  501  502 -0.00000000000E+00 -0.00000000000E+00 -0.39476601375E+03  0.39476601375E+03  0.00000000000E+00 0.  1.
      99926    2    1    2    0    0  0.00000000000E+00  0.71054273576E-14 -0.26020918525E+03  0.52932284225E+03  0.46094885968E+03 0.  0.
      99925    2    3    3    0    0  0.47622803828E+02 -0.47625552212E+02 -0.50485868328E+02  0.27600979002E+03  0.26286204865E+03 0.  0.
         25    1    4    4    0    0  0.20704590207E+02 -0.64424588120E+02 -0.23099487521E+02  0.14408435735E+03  0.12509000000E+03 0.  0.
         25    1    3    3    0    0 -0.47622803828E+02  0.47625552212E+02 -0.20972331692E+03  0.25331305223E+03  0.12509000000E+03 0.  0.
         25    1    4    4    0    0  0.26918213621E+02  0.16799035907E+02 -0.27386380807E+02  0.13192543267E+03  0.12509000000E+03 0.  0.
<mgrwt>
<rscale>  2 0.46094886E+03</rscale>
<asrwt>0</asrwt>
<pdfrwt beam="1">  1       21 0.19787769E-01 0.46094886E+03</pdfrwt>
<pdfrwt beam="2">  1       21 0.58053826E-01 0.46094886E+03</pdfrwt>
<totfact> 0.60355601E+04</totfact>
</mgrwt>
</event>
<event>
 7    0  0.4784406E-002  0.4613849E+03  0.7546771E-02  0.1024380E+00
         21   -1    0    0  502  501  0.00000000000E+00  0.00000000000E+00  0.15498618685E+03  0.15498618685E+03  0.00000000000E+00 0.  1.
         21   -1    0    0  501  502 -0.00000000000E+00 -0.00000000000E+00 -0.34337899477E+03  0.34337899477E+03  0.00000000000E+00 0.  1.
      99926    2    1    2    0    0  0.35527136788E-14  0.00000000000E+00 -0.18839280792E+03  0.49836518162E+03  0.46138487641E+03 0.  0.
      99925    2    3    3    0    0  0.91714286603E+01  0.11133223417E+03 -0.73382167588E+02  0.29500850738E+03  0.26299447796E+03 0.  0.
         25    1    4    4    0    0 -0.35734021161E+02  0.58378001411E+02 -0.33200108117E+02  0.14640582842E+03  0.12509000000E+03 0.  0.
         25    1    4    4    0    0  0.44905449821E+02  0.52954232756E+02 -0.40182059472E+02  0.14860267896E+03  0.12509000000E+03 0.  0.
         25    1    3    3    0    0 -0.91714286603E+01 -0.11133223417E+03 -0.11501064033E+03  0.20335667424E+03  0.12509000000E+03 0.  0.
<mgrwt>
<rscale>  2 0.46138488E+03</rscale>
<asrwt>0</asrwt>
<pdfrwt beam="1">  1       21 0.22792087E-01 0.46138488E+03</pdfrwt>
<pdfrwt beam="2">  1       21 0.50496910E-01 0.46138488E+03</pdfrwt>
<totfact> 0.62174013E+04</totfact>
</mgrwt>
</event>
<event>
 7    0  0.4784406E-002  0.4557188E+03  0.7546771E-02  0.1026030E+00
         21   -1    0    0  502  501  0.00000000000E+00  0.00000000000E+00  0.24872574462E+03  0.24872574462E+03  0.00000000000E+00 0. -1.
         21   -1    0    0  501  502 -0.00000000000E+00 -0.00000000000E+00 -0.20874361406E+03  0.20874361406E+03  0.00000000000E+00 0. -1.
      99926    2    1    2    0    0  0.00000000000E+00 -0.71054273576E-14  0.39982130562E+02  0.45746935868E+03  0.45571882051E+03 0.  0.
      99925    2    3    3    0    0 -0.50606396304E+02 -0.53739611032E+02  0.11208524716E+03  0.29531103893E+03  0.26305237870E+03 0.  0.
         25    1    4    4    0    0 -0.11765799820E+02 -0.65278674329E+02  0.62775327470E+02  0.15488056433E+03  0.12509000000E+03 0.  0.
         25    1    4    4    0    0 -0.38840596483E+02  0.11539063296E+02  0.49309919695E+02  0.14043047460E+03  0.12509000000E+03 0.  0.
         25    1    3    3    0    0  0.50606396304E+02  0.53739611032E+02 -0.72103116603E+02  0.16215831975E+03  0.12509000000E+03 0.  0.
<mgrwt>
<rscale>  2 0.45571882E+03</rscale>
<asrwt>0</asrwt>
<pdfrwt beam="1">  1       21 0.36577315E-01 0.45571882E+03</pdfrwt>
<pdfrwt beam="2">  1       21 0.30697590E-01 0.45571882E+03</pdfrwt>
<totfact> 0.67974603E+04</totfact>
</mgrwt>
</event>
<event>
 7    0  0.4784406E-002  0.4574127E+03  0.7546771E-02  0.1025534E+00
         21   -1    0    0  502  501  0.00000000000E+00  0.00000000000E+00  0.13376295662E+03  0.13376295662E+03  0.00000000000E+00 0. -1.
         21   -1    0    0  501  502 -0.00000000000E+00 -0.00000000000E+00 -0.39103946652E+03  0.39103946652E+03  0.00000000000E+00 0. -1.
      99926    2    1    2    0    0  0.00000000000E+00  0.14210854715E-13 -0.25727650990E+03  0.52480242315E+03  0.45741270292E+03 0.  0.
      99925    2    3    3    0    0  0.42514492834E+02 -0.87318785429E+02 -0.90128640210E+02  0.29454610764E+03  0.26306308245E+03 0.  0.
         25    1    3    3    0    0 -0.42514492834E+02  0.87318785429E+02 -0.16714786969E+03  0.23025631551E+03  0.12509000000E+03 0.  0.
         25    1    4    4    0    0 -0.15910453372E+02 -0.43525823960E+02 -0.61548022001E+02  0.14691258282E+03  0.12509000000E+03 0.  0.
         25    1    4    4    0    0  0.58424946206E+02 -0.43792961469E+02 -0.28580618210E+02  0.14763352482E+03  0.12509000000E+03 0.  0.
<mgrwt>
<rscale>  2 0.45741270E+03</rscale>
<asrwt>0</asrwt>
<pdfrwt beam="1">  1       21 0.19671023E-01 0.45741270E+03</pdfrwt>
<pdfrwt beam="2">  1       21 0.57505803E-01 0.45741270E+03</pdfrwt>
<totfact> 0.62358413E+04</totfact>
</mgrwt>
</event>
<event>
 7    0  0.4784406E-002  0.4578595E+03  0.7546771E-02  0.1025404E+00
         21   -1    0    0  502  501  0.00000000000E+00  0.00000000000E+00  0.12110931176E+03  0.12110931176E+03  0.00000000000E+00 0.  1.
         21   -1    0    0  501  502 -0.00000000000E+00 -0.00000000000E+00 -0.43273980504E+03  0.43273980504E+03  0.00000000000E+00 0.  1.
      99926    2    1    2    0    0  0.00000000000E+00  0.00000000000E+00 -0.31163049328E+03  0.55384911680E+03  0.45785945423E+03 0.  0.
      99925    2    3    3    0    0 -0.82708116813E+02 -0.80806560054E+02 -0.20338658660E+03  0.35202101130E+03  0.26302539051E+03 0.  0.
         25    1    4    4    0    0 -0.58264915856E+02 -0.44761174854E+01 -0.11016243745E+03  0.17662985810E+03  0.12509000000E+03 0.  0.
         25    1    4    4    0    0 -0.24443200956E+02 -0.76330442569E+02 -0.93224149157E+02  0.17539115320E+03  0.12509000000E+03 0.  0.
         25    1    3    3    0    0  0.82708116813E+02  0.80806560054E+02 -0.10824390668E+03  0.20182810549E+03  0.12509000000E+03 0.  0.
<mgrwt>
<rscale>  2 0.45785945E+03</rscale>
<asrwt>0</asrwt>
<pdfrwt beam="1">  1       21 0.17810193E-01 0.45785945E+03</pdfrwt>
<pdfrwt beam="2">  1       21 0.63638207E-01 0.45785945E+03</pdfrwt>
<totfact> 0.60238568E+04</totfact>
</mgrwt>
</event>
<event>
 7    0  0.4784406E-002  0.4176010E+03  0.7546771E-02  0.1037850E+00
         21   -1    0    0  502  501  0.00000000000E+00  0.00000000000E+00  0.11125338880E+04  0.11125338880E+04  0.00000000000E+00 0.  1.
         21   -1    0    0  501  502 -0.00000000000E+00 -0.00000000000E+00 -0.39187710930E+02  0.39187710930E+02  0.00000000000E+00 0.  1.
      99926    2    1    2    0    0  0.00000000000E+00  0.00000000000E+00  0.10733461770E+04  0.11517215989E+04  0.41760103640E+03 0.  0.
      99925    2    3    3    0    0 -0.67589991311E+02 -0.26257845136E+02  0.68756640559E+03  0.73973686433E+03  0.26306878378E+03 0.  0.
         25    1    4    4    0    0 -0.40000092515E+02 -0.15193280843E+02  0.23924743884E+03  0.27334536447E+03  0.12509000000E+03 0.  0.
         25    1    4    4    0    0 -0.27589898796E+02 -0.11064564293E+02  0.44831896675E+03  0.46639149987E+03  0.12509000000E+03 0.  0.
         25    1    3    3    0    0  0.67589991311E+02  0.26257845136E+02  0.38577977144E+03  0.41198473456E+03  0.12509000000E+03 0.  0.
<mgrwt>
<rscale>  2 0.41760104E+03</rscale>
<asrwt>0</asrwt>
<pdfrwt beam="1">  1       21 0.16360790E+00 0.41760104E+03</pdfrwt>
<pdfrwt beam="2">  1       21 0.57628994E-02 0.41760104E+03</pdfrwt>
<totfact> 0.45645755E+04</totfact>
</mgrwt>
</event>
<event>
 7    0  0.4784406E-002  0.4513983E+03  0.7546771E-02  0.1027306E+00
         21   -1    0    0  502  501  0.00000000000E+00  0.00000000000E+00  0.17995579991E+04  0.17995579991E+04  0.00000000000E+00 0. -1.
         21   -1    0    0  501  502 -0.00000000000E+00 -0.00000000000E+00 -0.28307014970E+02  0.28307014970E+02  0.00000000000E+00 0. -1.
      99926    2    1    2    0    0 -0.14210854715E-13 -0.71054273576E-14  0.17712509841E+04  0.18278650140E+04  0.45139833947E+03 0.  0.
      99925    2    3    3    0    0  0.91779360026E+02  0.47487764072E+02  0.12667334186E+04  0.12978989579E+04  0.26315321100E+03 0.  0.
         25    1    4    4    0    0  0.65315934403E+02  0.61045746926E+02  0.72347693204E+03  0.73963445958E+03  0.12509000000E+03 0.  0.
         25    1    3    3    0    0 -0.91779360026E+02 -0.47487764072E+02  0.50451756554E+03  0.52996605618E+03  0.12509000000E+03 0.  0.
         25    1    4    4    0    0  0.26463425623E+02 -0.13557982855E+02  0.54325648652E+03  0.55826449828E+03  0.12509000000E+03 0.  0.
<mgrwt>
<rscale>  2 0.45139834E+03</rscale>
<asrwt>0</asrwt>
<pdfrwt beam="1">  1       21 0.26464081E+00 0.45139834E+03</pdfrwt>
<pdfrwt beam="2">  1       21 0.41627975E-02 0.45139834E+03</pdfrwt>
<totfact> 0.17206093E+04</totfact>
</mgrwt>
</event>
<event>
 7    0  0.4784406E-002  0.4479005E+03  0.7546771E-02  0.1028350E+00
         21   -1    0    0  502  501  0.00000000000E+00  0.00000000000E+00  0.79468319991E+03  0.79468319991E+03  0.00000000000E+00 0. -1.
         21   -1    0    0  501  502 -0.00000000000E+00 -0.00000000000E+00 -0.63111571713E+02  0.63111571713E+02  0.00000000000E+00 0. -1.
      99926    2    1    2    0    0  0.00000000000E+00  0.00000000000E+00  0.73157162820E+03  0.85779477163E+03  0.44790046109E+03 0.  0.
      99925    2    3    3    0    0 -0.55656600047E+02 -0.81745785025E+02  0.53796814811E+03  0.60697641883E+03  0.26311711106E+03 0.  0.
         25    1    4    4    0    0  0.45474734682E+01 -0.29842229351E+02  0.30270539767E+03  0.32892142533E+03  0.12509000000E+03 0.  0.
         25    1    4    4    0    0 -0.60204073516E+02 -0.51903555674E+02  0.23526275045E+03  0.27805499349E+03  0.12509000000E+03 0.  0.
         25    1    3    3    0    0  0.55656600047E+02  0.81745785025E+02  0.19360348009E+03  0.25081835280E+03  0.12509000000E+03 0.  0.
<mgrwt>
<rscale>  2 0.44790046E+03</rscale>
<asrwt>0</asrwt>
<pdfrwt beam="1">  1       21 0.11686517E+00 0.44790046E+03</pdfrwt>
<pdfrwt beam="2">  1       21 0.92811139E-02 0.44790046E+03</pdfrwt>
<totfact> 0.47693569E+04</totfact>
</mgrwt>
</event>
<event>
 7    0  0.4784406E-002  0.4592075E+03  0.7546771E-02  0.1025011E+00
         21   -1    0    0  502  501  0.00000000000E+00  0.00000000000E+00  0.49435393938E+02  0.49435393938E+02  0.00000000000E+00 0.  1.
         21   -1    0    0  501  502 -0.00000000000E+00 -0.00000000000E+00 -0.10663996553E+04  0.10663996553E+04  0.00000000000E+00 0.  1.
      99926    2    1    2    0    0  0.71054273576E-14  0.00000000000E+00 -0.10169642614E+04  0.11158350493E+04  0.45920752196E+03 0.  0.
      99925    2    3    3    0    0 -0.33677919404E+02 -0.38633040273E+02 -0.38156236638E+03  0.46621224306E+03  0.26293973090E+03 0.  0.
         25    1    3    3    0    0  0.33677919404E+02  0.38633040273E+02 -0.63540189503E+03  0.64962280622E+03  0.12509000000E+03 0.  0.
         25    1    4    4    0    0 -0.21307980144E+02 -0.57824187569E+02 -0.22227549844E+03  0.26239583075E+03  0.12509000000E+03 0.  0.
         25    1    4    4    0    0 -0.12369939260E+02  0.19191147296E+02 -0.15928686793E+03  0.20381641231E+03  0.12509000000E+03 0.  0.
<mgrwt>
<rscale>  2 0.45920752E+03</rscale>
<asrwt>0</asrwt>
<pdfrwt beam="1">  1       21 0.72699110E-02 0.45920752E+03</pdfrwt>
<pdfrwt beam="2">  1       21 0.15682347E+00 0.45920752E+03</pdfrwt>
<totfact> 0.33820558E+04</totfact>
</mgrwt>
</event>
<event>
 7    0  0.4784406E-002  0.4444162E+03  0.7546771E-02  0.1029400E+00
         21   -1    0    0  502  501  0.00000000000E+00  0.00000000000E+00  0.33690768596E+03  0.33690768596E+03  0.00000000000E+00 0.  1.
         21   -1    0    0  501  502 -0.00000000000E+00 -0.00000000000E+00 -0.14655777409E+03  0.14655777409E+03  0.00000000000E+00 0.  1.
      99926    2    1    2    0    0  0.35527136788E-14  0.35527136788E-14  0.19034991186E+03  0.48346546005E+03  0.44441620370E+03 0.  0.
      99925    2    3    3    0    0 -0.22679069172E+02  0.18338786516E+02  0.13225564528E+02  0.26467059313E+03  0.26272600945E+03 0.  0.
         25    1    3    3    0    0  0.22679069172E+02 -0.18338786516E+02  0.17712434733E+03  0.21879486691E+03  0.12509000000E+03 0.  0.
         25    1    4    4    0    0  0.11025271576E+02 -0.15648475975E+02 -0.16089124401E+02  0.12756488325E+03  0.12509000000E+03 0.  0.
         25    1    4    4    0    0 -0.33704340747E+02  0.33987262490E+02  0.29314688929E+02  0.13710570989E+03  0.12509000000E+03 0.  0.
<mgrwt>
<rscale>  2 0.44441620E+03</rscale>
<asrwt>0</asrwt>
<pdfrwt beam="1">  1       21 0.49545248E-01 0.44441620E+03</pdfrwt>
<pdfrwt beam="2">  1       21 0.21552614E-01 0.44441620E+03</pdfrwt>
<totfact> 0.72338205E+04</totfact>
</mgrwt>
</event>
<event>
 7    0  0.4784406E-002  0.4588494E+03  0.7546771E-02  0.1025115E+00
         21   -1    0    0  502  501  0.00000000000E+00  0.00000000000E+00  0.24609294533E+03  0.24609294533E+03  0.00000000000E+00 0.  1.
         21   -1    0    0  501  502 -0.00000000000E+00 -0.00000000000E+00 -0.21388540796E+03  0.21388540796E+03  0.00000000000E+00 0.  1.
      99926    2    1    2    0    0  0.00000000000E+00  0.00000000000E+00  0.32207537367E+02  0.45997835329E+03  0.45884938709E+03 0.  0.
      99925    2    3    3    0    0 -0.10586465165E+03 -0.44841766212E+02 -0.22285111813E+00  0.28701203673E+03  0.26297861339E+03 0.  0.
         25    1    4    4    0    0 -0.53425062528E+02 -0.51966108117E+02 -0.28253840275E+02  0.14832565958E+03  0.12509000000E+03 0.  0.
         25    1    3    3    0    0  0.10586465165E+03  0.44841766212E+02  0.32430388485E+02  0.17296631656E+03  0.12509000000E+03 0.  0.
         25    1    4    4    0    0 -0.52439589120E+02  0.71243419042E+01  0.28030989156E+02  0.13868637715E+03  0.12509000000E+03 0.  0.
<mgrwt>
<rscale>  2 0.45884939E+03</rscale>
<asrwt>0</asrwt>
<pdfrwt beam="1">  1       21 0.36190139E-01 0.45884939E+03</pdfrwt>
<pdfrwt beam="2">  1       21 0.31453736E-01 0.45884939E+03</pdfrwt>
<totfact> 0.66128172E+04</totfact>
</mgrwt>
</event>
<event>
 7    0  0.4784406E-002  0.4027938E+03  0.7546771E-02  0.1042817E+00
         21   -1    0    0  502  501  0.00000000000E+00  0.00000000000E+00  0.82673739380E+02  0.82673739380E+02  0.00000000000E+00 0. -1.
         21   -1    0    0  501  502 -0.00000000000E+00 -0.00000000000E+00 -0.49061176032E+03  0.49061176032E+03  0.00000000000E+00 0. -1.
      99926    2    1    2    0    0 -0.71054273576E-14 -0.41633363423E-16 -0.40793802094E+03  0.57328549970E+03  0.40279378749E+03 0.  0.
      99925    2    3    3    0    0  0.49536364251E+02  0.62530437473E-01 -0.27988562473E+03  0.38754702881E+03  0.26344426605E+03 0.  0.
         25    1    3    3    0    0 -0.49536364251E+02 -0.62530437473E-01 -0.12805239621E+03  0.18573847089E+03  0.12509000000E+03 0.  0.
         25    1    4    4    0    0 -0.61627190784E+01  0.14008567017E+02 -0.16890896523E+03  0.21074146647E+03  0.12509000000E+03 0.  0.
         25    1    4    4    0    0  0.55699083329E+02 -0.13946036579E+02 -0.11097665950E+03  0.17680556234E+03  0.12509000000E+03 0.  0.
<mgrwt>
<rscale>  2 0.40279379E+03</rscale>
<asrwt>0</asrwt>
<pdfrwt beam="1">  1       21 0.12157902E-01 0.40279379E+03</pdfrwt>
<pdfrwt beam="2">  1       21 0.72148791E-01 0.40279379E+03</pdfrwt>
<totfact> 0.93296338E+04</totfact>
</mgrwt>
</event>
<event>
 7    0  0.4784406E-002  0.4497413E+03  0.7546771E-02  0.1027799E+00
         21   -1    0    0  502  501  0.00000000000E+00  0.00000000000E+00  0.35001828668E+03  0.35001828668E+03  0.00000000000E+00 0. -1.
         21   -1    0    0  501  502 -0.00000000000E+00 -0.00000000000E+00 -0.14446902281E+03  0.14446902281E+03  0.00000000000E+00 0. -1.
      99926    2    1    2    0    0  0.00000000000E+00  0.00000000000E+00  0.20554926387E+03  0.49448730949E+03  0.44974125825E+03 0.  0.
      99925    2    3    3    0    0  0.52559677646E+02 -0.53241059328E+02  0.44160408919E+02  0.27702236815E+03  0.26304775351E+03 0.  0.
         25    1    4    4    0    0  0.54546771894E+02 -0.52137388897E+02  0.41567311461E+02  0.15188484825E+03  0.12509000000E+03 0.  0.
         25    1    4    4    0    0 -0.19870942474E+01 -0.11036704314E+01  0.25930974579E+01  0.12513751990E+03  0.12509000000E+03 0.  0.
         25    1    3    3    0    0 -0.52559677646E+02  0.53241059328E+02  0.16138885495E+03  0.21746494135E+03  0.12509000000E+03 0.  0.
<mgrwt>
<rscale>  2 0.44974126E+03</rscale>
<asrwt>0</asrwt>
<pdfrwt beam="1">  1       21 0.51473277E-01 0.44974126E+03</pdfrwt>
<pdfrwt beam="2">  1       21 0.21245445E-01 0.44974126E+03</pdfrwt>
<totfact> 0.68473848E+04</totfact>
</mgrwt>
</event>
<event>
 7    0  0.4784406E-002  0.4533977E+03  0.7546771E-02  0.1026714E+00
         21   -1    0    0  502  501  0.00000000000E+00  0.00000000000E+00  0.39842475033E+03  0.39842475033E+03  0.00000000000E+00 0. -1.
         21   -1    0    0  501  502 -0.00000000000E+00 -0.00000000000E+00 -0.12898891178E+03  0.12898891178E+03  0.00000000000E+00 0. -1.
      99926    2    1    2    0    0  0.00000000000E+00  0.00000000000E+00  0.26943583855E+03  0.52741366211E+03  0.45339772814E+03 0.  0.
      99925    2    3    3    0    0  0.10870567202E+03 -0.15593533480E+02  0.14602005575E+03  0.32019627635E+03  0.26295192962E+03 0.  0.
         25    1    3    3    0    0 -0.10870567202E+03  0.15593533480E+02  0.12341578280E+03  0.20721738576E+03  0.12509000000E+03 0.  0.
         25    1    4    4    0    0  0.34343242360E+02 -0.16795785857E+02  0.10840537527E+03  0.16988463793E+03  0.12509000000E+03 0.  0.
         25    1    4    4    0    0  0.74362429661E+02  0.12022523770E+01  0.37614680478E+02  0.15031163842E+03  0.12509000000E+03 0.  0.
<mgrwt>
<rscale>  2 0.45339773E+03</rscale>
<asrwt>0</asrwt>
<pdfrwt beam="1">  1       21 0.58591875E-01 0.45339773E+03</pdfrwt>
<pdfrwt beam="2">  1       21 0.18968958E-01 0.45339773E+03</pdfrwt>
<totfact> 0.64193364E+04</totfact>
</mgrwt>
</event>
<event>
 7    0  0.4784406E-002  0.4495632E+03  0.7546771E-02  0.1027852E+00
         21   -1    0    0  502  501  0.00000000000E+00  0.00000000000E+00  0.37366697918E+03  0.37366697918E+03  0.00000000000E+00 0.  1.
         21   -1    0    0  501  502 -0.00000000000E+00 -0.00000000000E+00 -0.13521869655E+03  0.13521869655E+03  0.00000000000E+00 0.  1.
      99926    2    1    2    0    0  0.00000000000E+00  0.00000000000E+00  0.23844828263E+03  0.50888567574E+03  0.44956317407E+03 0.  0.
      99925    2    3    3    0    0 -0.26101382927E+02  0.10402765504E+03  0.16523136747E+03  0.32857688513E+03  0.26297971299E+03 0.  0.
         25    1    3    3    0    0  0.26101382927E+02 -0.10402765504E+03  0.73216915159E+02  0.18030879060E+03  0.12509000000E+03 0.  0.
         25    1    4    4    0    0 -0.19113852852E+02  0.81850547887E+02  0.55627579323E+02  0.16064491041E+03  0.12509000000E+03 0.  0.
         25    1    4    4    0    0 -0.69875300743E+01  0.22177107149E+02  0.10960378814E+03  0.16793197472E+03  0.12509000000E+03 0.  0.
<mgrwt>
<rscale>  2 0.44956317E+03</rscale>
<asrwt>0</asrwt>
<pdfrwt beam="1">  1       21 0.54951026E-01 0.44956317E+03</pdfrwt>
<pdfrwt beam="2">  1       21 0.19885102E-01 0.44956317E+03</pdfrwt>
<totfact> 0.67517199E+04</totfact>
</mgrwt>
</event>
<event>
 7    0  0.4784406E-002  0.4670876E+03  0.7546771E-02  0.1022745E+00
         21   -1    0    0  502  501  0.00000000000E+00  0.00000000000E+00  0.67640207878E+03  0.67640207878E+03  0.00000000000E+00 0. -1.
         21   -1    0    0  501  502 -0.00000000000E+00 -0.00000000000E+00 -0.80636503644E+02  0.80636503644E+02  0.00000000000E+00 0. -1.
      99926    2    1    2    0    0  0.88817841970E-15  0.00000000000E+00  0.59576557513E+03  0.75703858242E+03  0.46708756648E+03 0.  0.
      99925    2    3    3    0    0  0.74491646921E+01  0.66794807681E+02  0.54009167777E+03  0.60451275728E+03  0.26309621231E+03 0.  0.
         25    1    3    3    0    0 -0.74491646921E+01 -0.66794807681E+02  0.55673897365E+02  0.15252582514E+03  0.12509000000E+03 0.  0.
         25    1    4    4    0    0  0.22736645602E+02 -0.52490168615E-01  0.22048718471E+03  0.25451731676E+03  0.12509000000E+03 0.  0.
         25    1    4    4    0    0 -0.15287480910E+02  0.66847297849E+02  0.31960449306E+03  0.34999544052E+03  0.12509000000E+03 0.  0.
<mgrwt>
<rscale>  2 0.46708757E+03</rscale>
<asrwt>0</asrwt>
<pdfrwt beam="1">  1       21 0.99470891E-01 0.46708757E+03</pdfrwt>
<pdfrwt beam="2">  1       21 0.11858310E-01 0.46708757E+03</pdfrwt>
<totfact> 0.45440635E+04</totfact>
</mgrwt>
</event>
<event>
 7    0  0.4784406E-002  0.4570646E+03  0.7546771E-02  0.1025636E+00
         21   -1    0    0  502  501  0.00000000000E+00  0.00000000000E+00  0.39421364579E+03  0.39421364579E+03  0.00000000000E+00 0. -1.
         21   -1    0    0  501  502 -0.00000000000E+00 -0.00000000000E+00 -0.13248405667E+03  0.13248405667E+03  0.00000000000E+00 0. -1.
      99926    2    1    2    0    0  0.00000000000E+00  0.00000000000E+00  0.26172958912E+03  0.52669770246E+03  0.45706464746E+03 0.  0.
      99925    2    3    3    0    0  0.36230566937E+02  0.10491289274E+03  0.19922172150E+03  0.34816448242E+03  0.26307763770E+03 0.  0.
         25    1    4    4    0    0 -0.13136685891E+02  0.23249149255E+02  0.81529363970E+02  0.15168269758E+03  0.12509000000E+03 0.  0.
         25    1    4    4    0    0  0.49367252828E+02  0.81663743485E+02  0.11769235753E+03  0.19648178484E+03  0.12509000000E+03 0.  0.
         25    1    3    3    0    0 -0.36230566937E+02 -0.10491289274E+03  0.62507867617E+02  0.17853322004E+03  0.12509000000E+03 0.  0.
<mgrwt>
<rscale>  2 0.45706465E+03</rscale>
<asrwt>0</asrwt>
<pdfrwt beam="1">  1       21 0.57972595E-01 0.45706465E+03</pdfrwt>
<pdfrwt beam="2">  1       21 0.19482950E-01 0.45706465E+03</pdfrwt>
<totfact> 0.62403021E+04</totfact>
</mgrwt>
</event>
<event>
 7    0  0.4784406E-002  0.4504890E+03  0.7546771E-02  0.1027576E+00
         21   -1    0    0  502  501  0.00000000000E+00  0.00000000000E+00  0.19049881937E+03  0.19049881937E+03  0.00000000000E+00 0.  1.
         21   -1    0    0  501  502 -0.00000000000E+00 -0.00000000000E+00 -0.26632760538E+03  0.26632760538E+03  0.00000000000E+00 0.  1.
      99926    2    1    2    0    0  0.00000000000E+00  0.00000000000E+00 -0.75828786007E+02  0.45682642474E+03  0.45048904266E+03 0.  0.
      99925    2    3    3    0    0  0.88418828910E+02  0.63563232476E+02 -0.49850158392E+02  0.28895572742E+03  0.26296805944E+03 0.  0.
         25    1    4    4    0    0  0.57823910587E+02 -0.30623985205E+00 -0.32565645583E+01  0.13784705920E+03  0.12509000000E+03 0.  0.
         25    1    4    4    0    0  0.30594918323E+02  0.63869472328E+02 -0.46593593833E+02  0.15110866821E+03  0.12509000000E+03 0.  0.
         25    1    3    3    0    0 -0.88418828910E+02 -0.63563232476E+02 -0.25978627615E+02  0.16787069733E+03  0.12509000000E+03 0.  0.
<mgrwt>
<rscale>  2 0.45048904E+03</rscale>
<asrwt>0</asrwt>
<pdfrwt beam="1">  1       21 0.28014532E-01 0.45048904E+03</pdfrwt>
<pdfrwt beam="2">  1       21 0.39165824E-01 0.45048904E+03</pdfrwt>
<totfact> 0.70929749E+04</totfact>
</mgrwt>
</event>
<event>
 7    0  0.4784406E-002  0.4839111E+03  0.7546771E-02  0.1018066E+00
         21   -1    0    0  502  501  0.00000000000E+00  0.00000000000E+00  0.24049694612E+03  0.24049694612E+03  0.00000000000E+00 0.  1.
         21   -1    0    0  501  502 -0.00000000000E+00 -0.00000000000E+00 -0.24342296273E+03  0.24342296273E+03  0.00000000000E+00 0.  1.
      99926    2    1    2    0    0  0.00000000000E+00  0.71054273576E-14 -0.29260166139E+01  0.48391990885E+03  0.48391106271E+03 0.  0.
      99925    2    3    3    0    0 -0.42006742152E+02 -0.37282429670E+02  0.12495199163E+03  0.29642367145E+03  0.26286773639E+03 0.  0.
         25    1    4    4    0    0 -0.31031168677E+02  0.12383157829E+02  0.87573139708E+02  0.15631007301E+03  0.12509000000E+03 0.  0.
         25    1    3    3    0    0  0.42006742152E+02  0.37282429670E+02 -0.12787800825E+03  0.18749623741E+03  0.12509000000E+03 0.  0.
         25    1    4    4    0    0 -0.10975573474E+02 -0.49665587500E+02  0.37378851926E+02  0.14011359843E+03  0.12509000000E+03 0.  0.
<mgrwt>
<rscale>  2 0.48391106E+03</rscale>
<asrwt>0</asrwt>
<pdfrwt beam="1">  1       21 0.35367198E-01 0.48391106E+03</pdfrwt>
<pdfrwt beam="2">  1       21 0.35797495E-01 0.48391106E+03</pdfrwt>
<totfact> 0.53123573E+04</totfact>
</mgrwt>
</event>
<event>
 7    0  0.4784406E-002  0.4535048E+03  0.7546771E-02  0.1026682E+00
         21   -1    0    0  502  501  0.00000000000E+00  0.00000000000E+00  0.40929771359E+02  0.40929771359E+02  0.00000000000E+00 0.  1.
         21   -1    0    0  501  502 -0.00000000000E+00 -0.00000000000E+00 -0.12562166157E+04  0.12562166157E+04  0.00000000000E+00 0.  1.
      99926    2    1    2    0    0  0.00000000000E+00  0.17763568394E-14 -0.12152868444E+04  0.12971463871E+04  0.45350483507E+03 0.  0.
      99925    2    3    3    0    0 -0.97050154905E+02 -0.13989095891E+02 -0.91841993301E+03  0.96040925143E+03  0.26320396940E+03 0.  0.
         25    1    3    3    0    0  0.97050154905E+02  0.13989095891E+02 -0.29686691136E+03  0.33673713566E+03  0.12509000000E+03 0.  0.
         25    1    4    4    0    0 -0.56805806549E+02  0.26200173985E+02 -0.38650432798E+03  0.41103096286E+03  0.12509000000E+03 0.  0.
         25    1    4    4    0    0 -0.40244348356E+02 -0.40189269876E+02 -0.53191560502E+03  0.54937828857E+03  0.12509000000E+03 0.  0.
<mgrwt>
<rscale>  2 0.45350484E+03</rscale>
<asrwt>0</asrwt>
<pdfrwt beam="1">  1       21 0.60190843E-02 0.45350484E+03</pdfrwt>
<pdfrwt beam="2">  1       21 0.18473773E+00 0.45350484E+03</pdfrwt>
<totfact> 0.29539688E+04</totfact>
</mgrwt>
</event>
<event>
 7    0  0.4784406E-002  0.4641863E+03  0.7546771E-02  0.1023574E+00
         21   -1    0    0  502  501  0.00000000000E+00  0.00000000000E+00  0.11505179444E+04  0.11505179444E+04  0.00000000000E+00 0.  1.
         21   -1    0    0  501  502 -0.00000000000E+00 -0.00000000000E+00 -0.46819992696E+02  0.46819992696E+02  0.00000000000E+00 0.  1.
      99926    2    1    2    0    0  0.00000000000E+00  0.00000000000E+00  0.11036979517E+04  0.11973379371E+04  0.46418634945E+03 0.  0.
      99925    2    3    3    0    0 -0.35891176080E+02  0.53225916868E+02  0.95512501279E+03  0.99278329642E+03  0.26312299185E+03 0.  0.
         25    1    4    4    0    0 -0.18970765352E+02 -0.61445614265E+00  0.57189800649E+03  0.58572613517E+03  0.12509000000E+03 0.  0.
         25    1    4    4    0    0 -0.16920410728E+02  0.53840373010E+02  0.38322700630E+03  0.40705716125E+03  0.12509000000E+03 0.  0.
         25    1    3    3    0    0  0.35891176080E+02 -0.53225916868E+02  0.14857293893E+03  0.20455464069E+03  0.12509000000E+03 0.  0.
<mgrwt>
<rscale>  2 0.46418635E+03</rscale>
<asrwt>0</asrwt>
<pdfrwt beam="1">  1       21 0.16919380E+00 0.46418635E+03</pdfrwt>
<pdfrwt beam="2">  1       21 0.68852938E-02 0.46418635E+03</pdfrwt>
<totfact> 0.30032916E+04</totfact>
</mgrwt>
</event>
<event>
 7    0  0.4784406E-002  0.4582287E+03  0.7546771E-02  0.1025296E+00
         21   -1    0    0  502  501  0.00000000000E+00  0.00000000000E+00  0.51238330989E+03  0.51238330989E+03  0.00000000000E+00 0. -1.
         21   -1    0    0  501  502 -0.00000000000E+00 -0.00000000000E+00 -0.10244943809E+03  0.10244943809E+03  0.00000000000E+00 0. -1.
      99926    2    1    2    0    0  0.00000000000E+00  0.00000000000E+00  0.40993387180E+03  0.61483274798E+03  0.45822868608E+03 0.  0.
      99925    2    3    3    0    0  0.64219423534E+02 -0.94972602166E+02  0.28235743506E+03  0.40254241652E+03  0.26300332022E+03 0.  0.
         25    1    4    4    0    0  0.45556458939E+01 -0.20110480654E+02  0.99258621335E+02  0.16101232049E+03  0.12509000000E+03 0.  0.
         25    1    3    3    0    0 -0.64219423534E+02  0.94972602166E+02  0.12757643674E+03  0.21229033146E+03  0.12509000000E+03 0.  0.
         25    1    4    4    0    0  0.59663777640E+02 -0.74862121513E+02  0.18309881372E+03  0.24153009603E+03  0.12509000000E+03 0.  0.
<mgrwt>
<rscale>  2 0.45822869E+03</rscale>
<asrwt>0</asrwt>
<pdfrwt beam="1">  1       21 0.75350486E-01 0.45822869E+03</pdfrwt>
<pdfrwt beam="2">  1       21 0.15066094E-01 0.45822869E+03</pdfrwt>
<totfact> 0.56324373E+04</totfact>
</mgrwt>
</event>
<event>
 7    0  0.4784406E-002  0.4486074E+03  0.7546771E-02  0.1028138E+00
         21   -1    0    0  502  501  0.00000000000E+00  0.00000000000E+00  0.68392141993E+02  0.68392141993E+02  0.00000000000E+00 0. -1.
         21   -1    0    0  501  502 -0.00000000000E+00 -0.00000000000E+00 -0.73564217775E+03  0.73564217775E+03  0.00000000000E+00 0. -1.
      99926    2    1    2    0    0  0.00000000000E+00  0.00000000000E+00 -0.66725003576E+03  0.80403431975E+03  0.44860737523E+03 0.  0.
      99925    2    3    3    0    0  0.85862131945E+02 -0.63028027696E+02 -0.40356159446E+03  0.49335129776E+03  0.26303745836E+03 0.  0.
         25    1    4    4    0    0  0.54726836022E+02 -0.25064593305E+02 -0.13808580740E+03  0.19580209070E+03  0.12509000000E+03 0.  0.
         25    1    3    3    0    0 -0.85862131945E+02  0.63028027696E+02 -0.26368844130E+03  0.31068302199E+03  0.12509000000E+03 0.  0.
         25    1    4    4    0    0  0.31135295923E+02 -0.37963434391E+02 -0.26547578706E+03  0.29754920705E+03  0.12509000000E+03 0.  0.
<mgrwt>
<rscale>  2 0.44860738E+03</rscale>
<asrwt>0</asrwt>
<pdfrwt beam="1">  1       21 0.10057667E-01 0.44860738E+03</pdfrwt>
<pdfrwt beam="2">  1       21 0.10818268E+00 0.44860738E+03</pdfrwt>
<totfact> 0.50033481E+04</totfact>
</mgrwt>
</event>
<event>
 7    0  0.4784406E-002  0.4515288E+03  0.7546771E-02  0.1027267E+00
         21   -1    0    0  502  501  0.00000000000E+00  0.00000000000E+00  0.12755725053E+03  0.12755725053E+03  0.00000000000E+00 0.  1.
         21   -1    0    0  501  502 -0.00000000000E+00 -0.00000000000E+00 -0.39958180477E+03  0.39958180477E+03  0.00000000000E+00 0.  1.
      99926    2    1    2    0    0 -0.71054273576E-14  0.00000000000E+00 -0.27202455423E+03  0.52713905530E+03  0.45152876489E+03 0.  0.
      99925    2    3    3    0    0  0.59029999566E+02 -0.91700551457E+02 -0.18083187454E+03  0.33777922610E+03  0.26363062559E+03 0.  0.
         25    1    4    4    0    0  0.11197310629E+01 -0.75319202939E+02 -0.10231390852E+03  0.17829716797E+03  0.12509000000E+03 0.  0.
         25    1    4    4    0    0  0.57910268503E+02 -0.16381348518E+02 -0.78517966020E+02  0.15948205813E+03  0.12509000000E+03 0.  0.
         25    1    3    3    0    0 -0.59029999566E+02  0.91700551457E+02 -0.91192679697E+02  0.18935982921E+03  0.12509000000E+03 0.  0.
<mgrwt>
<rscale>  2 0.45152876E+03</rscale>
<asrwt>0</asrwt>
<pdfrwt beam="1">  1       21 0.18758419E-01 0.45152876E+03</pdfrwt>
<pdfrwt beam="2">  1       21 0.58762029E-01 0.45152876E+03</pdfrwt>
<totfact> 0.65175458E+04</totfact>
</mgrwt>
</event>
<event>
 7    0  0.4784406E-002  0.4730812E+03  0.7546771E-02  0.1021054E+00
         21   -1    0    0  502  501  0.00000000000E+00  0.00000000000E+00  0.63820265819E+03  0.63820265819E+03  0.00000000000E+00 0. -1.
         21   -1    0    0  501  502 -0.00000000000E+00 -0.00000000000E+00 -0.87670375465E+02  0.87670375465E+02  0.00000000000E+00 0. -1.
      99926    2    1    2    0    0  0.00000000000E+00  0.71054273576E-14  0.55053228273E+03  0.72587303366E+03  0.47308124743E+03 0.  0.
      99925    2    3    3    0    0  0.10226250207E+03 -0.46932580026E+02  0.44000292086E+03  0.52456596888E+03  0.26250066465E+03 0.  0.
         25    1    4    4    0    0  0.88102202944E+02 -0.31141049926E+02  0.27736303435E+03  0.31829157085E+03  0.12509000000E+03 0.  0.
         25    1    4    4    0    0  0.14160299122E+02 -0.15791530100E+02  0.16263988651E+03  0.20627439802E+03  0.12509000000E+03 0.  0.
         25    1    3    3    0    0 -0.10226250207E+03  0.46932580026E+02  0.11052936187E+03  0.20130706478E+03  0.12509000000E+03 0.  0.
<mgrwt>
<rscale>  2 0.47308125E+03</rscale>
<asrwt>0</asrwt>
<pdfrwt beam="1">  1       21 0.93853330E-01 0.47308125E+03</pdfrwt>
<pdfrwt beam="2">  1       21 0.12892703E-01 0.47308125E+03</pdfrwt>
<totfact> 0.44801511E+04</totfact>
</mgrwt>
</event>
<event>
 7    0  0.4784406E-002  0.4592939E+03  0.7546771E-02  0.1024986E+00
         21   -1    0    0  502  501  0.00000000000E+00  0.00000000000E+00  0.15944898706E+03  0.15944898706E+03  0.00000000000E+00 0. -1.
         21   -1    0    0  501  502 -0.00000000000E+00 -0.00000000000E+00 -0.33074982975E+03  0.33074982975E+03  0.00000000000E+00 0. -1.
      99926    2    1    2    0    0 -0.66613381478E-15 -0.14210854715E-13 -0.17130084269E+03  0.49019881681E+03  0.45929391602E+03 0.  0.
      99925    2    3    3    0    0  0.18393412409E+01 -0.11583912101E+03 -0.12556823914E+03  0.31367384900E+03  0.26306237993E+03 0.  0.
         25    1    4    4    0    0  0.24318593428E+02 -0.91277884938E+02 -0.54186389627E+02  0.16585149739E+03  0.12509000000E+03 0.  0.
         25    1    3    3    0    0 -0.18393412409E+01  0.11583912101E+03 -0.45732603555E+02  0.17652496781E+03  0.12509000000E+03 0.  0.
         25    1    4    4    0    0 -0.22479252188E+02 -0.24561236068E+02 -0.71381849511E+02  0.14782235161E+03  0.12509000000E+03 0.  0.
<mgrwt>
<rscale>  2 0.45929392E+03</rscale>
<asrwt>0</asrwt>
<pdfrwt beam="1">  1       21 0.23448381E-01 0.45929392E+03</pdfrwt>
<pdfrwt beam="2">  1       21 0.48639681E-01 0.45929392E+03</pdfrwt>
<totfact> 0.63763442E+04</totfact>
</mgrwt>
</event>
<event>
 7    0  0.4784406E-002  0.4634604E+03  0.7546771E-02  0.1023782E+00
         21   -1    0    0  502  501  0.00000000000E+00  0.00000000000E+00  0.35049496143E+03  0.35049496143E+03  0.00000000000E+00 0. -1.
         21   -1    0    0  501  502 -0.00000000000E+00 -0.00000000000E+00 -0.15320871507E+03  0.15320871507E+03  0.00000000000E+00 0. -1.
      99926    2    1    2    0    0  0.00000000000E+00  0.71054273576E-14  0.19728624636E+03  0.50370367650E+03  0.46346038743E+03 0.  0.
      99925    2    3    3    0    0 -0.78742882835E+01 -0.41993008308E+02 -0.29130678955E-01  0.26620360644E+03  0.26275262524E+03 0.  0.
         25    1    4    4    0    0 -0.36313844144E+01  0.80014799345E+01  0.28133023150E+02  0.12851531319E+03  0.12509000000E+03 0.  0.
         25    1    4    4    0    0 -0.42429038691E+01 -0.49994488242E+02 -0.28162153829E+02  0.13768829324E+03  0.12509000000E+03 0.  0.
         25    1    3    3    0    0  0.78742882835E+01  0.41993008308E+02  0.19731537704E+03  0.23750007006E+03  0.12509000000E+03 0.  0.
<mgrwt>
<rscale>  2 0.46346039E+03</rscale>
<asrwt>0</asrwt>
<pdfrwt beam="1">  1       21 0.51543377E-01 0.46346039E+03</pdfrwt>
<pdfrwt beam="2">  1       21 0.22530693E-01 0.46346039E+03</pdfrwt>
<totfact> 0.60822614E+04</totfact>
</mgrwt>
</event>
<event>
 7    0  0.4784406E-002  0.4502962E+03  0.7546771E-02  0.1027634E+00
         21   -1    0    0  502  501  0.00000000000E+00  0.00000000000E+00  0.13798310187E+03  0.13798310187E+03  0.00000000000E+00 0.  1.
         21   -1    0    0  501  502 -0.00000000000E+00 -0.00000000000E+00 -0.36737590670E+03  0.36737590670E+03  0.00000000000E+00 0.  1.
      99926    2    1    2    0    0  0.00000000000E+00  0.00000000000E+00 -0.22939280483E+03  0.50535900857E+03  0.45029620100E+03 0.  0.
      99925    2    3    3    0    0  0.39949357455E+02 -0.74326093689E+02 -0.66745141479E+02  0.28349848965E+03  0.26229022162E+03 0.  0.
         25    1    4    4    0    0  0.80592248060E+00 -0.47043918796E+02  0.57002672974E+00  0.13364734504E+03  0.12509000000E+03 0.  0.
         25    1    4    4    0    0  0.39143434974E+02 -0.27282174894E+02 -0.67315168209E+02  0.14985114461E+03  0.12509000000E+03 0.  0.
         25    1    3    3    0    0 -0.39949357455E+02  0.74326093689E+02 -0.16264766335E+03  0.22186051892E+03  0.12509000000E+03 0.  0.
<mgrwt>
<rscale>  2 0.45029620E+03</rscale>
<asrwt>0</asrwt>
<pdfrwt beam="1">  1       21 0.20291633E-01 0.45029620E+03</pdfrwt>
<pdfrwt beam="2">  1       21 0.54025868E-01 0.45029620E+03</pdfrwt>
<totfact> 0.67376205E+04</totfact>
</mgrwt>
</event>
<event>
 7    0  0.4784406E-002  0.4671252E+03  0.7546771E-02  0.1022735E+00
         21   -1    0    0  502  501  0.00000000000E+00  0.00000000000E+00  0.24423594108E+03  0.24423594108E+03  0.00000000000E+00 0.  1.
         21   -1    0    0  501  502 -0.00000000000E+00 -0.00000000000E+00 -0.22335570001E+03  0.22335570001E+03  0.00000000000E+00 0.  1.
      99926    2    1    2    0    0  0.00000000000E+00  0.35527136788E-14  0.20880241066E+02  0.46759164109E+03  0.46712520629E+03 0.  0.
      99925    2    3    3    0    0  0.11995315754E+03 -0.26054476681E+02 -0.58931968626E+01  0.29030114264E+03  0.26300651682E+03 0.  0.
         25    1    4    4    0    0  0.83758899760E+02 -0.41231913536E+02  0.17718125817E+02  0.15708935058E+03  0.12509000000E+03 0.  0.
         25    1    4    4    0    0  0.36194257785E+02  0.15177436855E+02 -0.23611322680E+02  0.13321179206E+03  0.12509000000E+03 0.  0.
         25    1    3    3    0    0 -0.11995315754E+03  0.26054476681E+02  0.26773437928E+02  0.17729049844E+03  0.12509000000E+03 0.  0.
<mgrwt>
<rscale>  2 0.46712521E+03</rscale>
<asrwt>0</asrwt>
<pdfrwt beam="1">  1       21 0.35917051E-01 0.46712521E+03</pdfrwt>
<pdfrwt beam="2">  1       21 0.32846426E-01 0.46712521E+03</pdfrwt>
<totfact> 0.61467578E+04</totfact>
</mgrwt>
</event>
<event>
 7    0  0.4784406E-002  0.4476741E+03  0.7546771E-02  0.1028418E+00
         21   -1    0    0  502  501  0.00000000000E+00  0.00000000000E+00  0.24302554499E+04  0.24302554499E+04  0.00000000000E+00 0. -1.
         21   -1    0    0  501  502 -0.00000000000E+00 -0.00000000000E+00 -0.20616359876E+02  0.20616359876E+02  0.00000000000E+00 0. -1.
      99926    2    1    2    0    0  0.71054273576E-14  0.00000000000E+00  0.24096390900E+04  0.24508718098E+04  0.44767408210E+03 0.  0.
      99925    2    3    3    0    0 -0.59396164657E+02  0.73813940121E+02  0.17916247937E+04  0.18132468568E+04  0.26261827823E+03 0.  0.
         25    1    3    3    0    0  0.59396164657E+02 -0.73813940121E+02  0.61801429626E+03  0.63762495295E+03  0.12509000000E+03 0.  0.
         25    1    4    4    0    0 -0.68309732150E+02  0.52386223469E+02  0.10004266531E+04  0.10118851379E+04  0.12509000000E+03 0.  0.
         25    1    4    4    0    0  0.89135674931E+01  0.21427716652E+02  0.79119814060E+03  0.80136171890E+03  0.12509000000E+03 0.  0.
<mgrwt>
<rscale>  2 0.44767408E+03</rscale>
<asrwt>0</asrwt>
<pdfrwt beam="1">  1       21 0.35739031E+00 0.44767408E+03</pdfrwt>
<pdfrwt beam="2">  1       21 0.30318193E-02 0.44767408E+03</pdfrwt>
<totfact> 0.80992108E+03</totfact>
</mgrwt>
</event>
<event>
 7    0  0.4784406E-002  0.4528353E+03  0.7546771E-02  0.1026880E+00
         21   -1    0    0  502  501  0.00000000000E+00  0.00000000000E+00  0.16435902648E+04  0.16435902648E+04  0.00000000000E+00 0. -1.
         21   -1    0    0  501  502 -0.00000000000E+00 -0.00000000000E+00 -0.31190835569E+02  0.31190835569E+02  0.00000000000E+00 0. -1.
      99926    2    1    2    0    0  0.00000000000E+00  0.00000000000E+00  0.16123994292E+04  0.16747811003E+04  0.45283530645E+03 0.  0.
      99925    2    3    3    0    0 -0.39510874254E+02  0.10250239591E+03  0.95477428160E+03  0.99641085246E+03  0.26300723896E+03 0.  0.
         25    1    3    3    0    0  0.39510874254E+02 -0.10250239591E+03  0.65762514761E+03  0.67837024788E+03  0.12509000000E+03 0.  0.
         25    1    4    4    0    0  0.80240844487E+01  0.49919298256E+02  0.35853576872E+03  0.38308188135E+03  0.12509000000E+03 0.  0.
         25    1    4    4    0    0 -0.47534958703E+02  0.52583097649E+02  0.59623851289E+03  0.61332897111E+03  0.12509000000E+03 0.  0.
<mgrwt>
<rscale>  2 0.45283531E+03</rscale>
<asrwt>0</asrwt>
<pdfrwt beam="1">  1       21 0.24170439E+00 0.45283531E+03</pdfrwt>
<pdfrwt beam="2">  1       21 0.45868887E-02 0.45283531E+03</pdfrwt>
<totfact> 0.20127703E+04</totfact>
</mgrwt>
</event>
<event>
 7    0  0.4784406E-002  0.4467201E+03  0.7546771E-02  0.1028705E+00
         21   -1    0    0  502  501  0.00000000000E+00  0.00000000000E+00  0.17104547791E+03  0.17104547791E+03  0.00000000000E+00 0.  1.
         21   -1    0    0  501  502 -0.00000000000E+00 -0.00000000000E+00 -0.29167506811E+03  0.29167506811E+03  0.00000000000E+00 0.  1.
      99926    2    1    2    0    0  0.35527136788E-14  0.00000000000E+00 -0.12062959021E+03  0.46272054602E+03  0.44672005291E+03 0.  0.
      99925    2    3    3    0    0 -0.20077346716E+02 -0.17252429995E+02  0.28958971503E+02  0.26593387959E+03  0.26302368732E+03 0.  0.
         25    1    3    3    0    0  0.20077346716E+02  0.17252429995E+02 -0.14958856171E+03  0.19678666643E+03  0.12509000000E+03 0.  0.
         25    1    4    4    0    0 -0.48314294094E+02 -0.20202978159E+02  0.22816273710E+02  0.13751553289E+03  0.12509000000E+03 0.  0.
         25    1    4    4    0    0  0.28236947378E+02  0.29505481638E+01  0.61426977928E+01  0.12841834670E+03  0.12509000000E+03 0.  0.
<mgrwt>
<rscale>  2 0.44672005E+03</rscale>
<asrwt>0</asrwt>
<pdfrwt beam="1">  1       21 0.25153747E-01 0.44672005E+03</pdfrwt>
<pdfrwt beam="2">  1       21 0.42893392E-01 0.44672005E+03</pdfrwt>
<totfact> 0.72635959E+04</totfact>
</mgrwt>
</event>
<event>
 7    0  0.4784406E-002  0.4499850E+03  0.7546771E-02  0.1027727E+00
         21   -1    0    0  502  501  0.00000000000E+00  0.00000000000E+00  0.60024563823E+02  0.60024563823E+02  0.00000000000E+00 0.  1.
         21   -1    0    0  501  502 -0.00000000000E+00 -0.00000000000E+00 -0.84334865938E+03  0.84334865938E+03  0.00000000000E+00 0.  1.
      99926    2    1    2    0    0  0.00000000000E+00  0.44408920985E-15 -0.78332409556E+03  0.90337322320E+03  0.44998504611E+03 0.  0.
      99925    2    3    3    0    0  0.60869041372E+02 -0.27437230076E+01 -0.31598758833E+03  0.41576324864E+03  0.26324580666E+03 0.  0.
         25    1    4    4    0    0  0.32227543268E+01 -0.57451308455E+01 -0.10333896508E+03  0.16238793821E+03  0.12509000000E+03 0.  0.
         25    1    3    3    0    0 -0.60869041372E+02  0.27437230076E+01 -0.46733650722E+03  0.48760997457E+03  0.12509000000E+03 0.  0.
         25    1    4    4    0    0  0.57646287045E+02  0.30014078378E+01 -0.21264862326E+03  0.25337531042E+03  0.12509000000E+03 0.  0.
<mgrwt>
<rscale>  2 0.44998505E+03</rscale>
<asrwt>0</asrwt>
<pdfrwt beam="1">  1       21 0.88271415E-02 0.44998505E+03</pdfrwt>
<pdfrwt beam="2">  1       21 0.12402187E+00 0.44998505E+03</pdfrwt>
<totfact> 0.44821856E+04</totfact>
</mgrwt>
</event>
<event>
 7    0  0.4784406E-002  0.4471745E+03  0.7546771E-02  0.1028568E+00
         21   -1    0    0  502  501  0.00000000000E+00  0.00000000000E+00  0.95000589214E+02  0.95000589214E+02  0.00000000000E+00 0.  1.
         21   -1    0    0  501  502 -0.00000000000E+00 -0.00000000000E+00 -0.52622055632E+03  0.52622055632E+03  0.00000000000E+00 0.  1.
      99926    2    1    2    0    0 -0.17763568394E-14  0.00000000000E+00 -0.43121996711E+03  0.62122114554E+03  0.44717452033E+03 0.  0.
      99925    2    3    3    0    0  0.10708764648E+02 -0.70380109408E+02 -0.38164233080E+03  0.46899273964E+03  0.26312598453E+03 0.  0.
         25    1    4    4    0    0  0.37473088767E+02 -0.99748654359E+01 -0.19143999856E+03  0.23194937264E+03  0.12509000000E+03 0.  0.
         25    1    4    4    0    0 -0.26764324119E+02 -0.60405243972E+02 -0.19020233224E+03  0.23704336699E+03  0.12509000000E+03 0.  0.
         25    1    3    3    0    0 -0.10708764648E+02  0.70380109408E+02 -0.49577636306E+02  0.15222840590E+03  0.12509000000E+03 0.  0.
<mgrwt>
<rscale>  2 0.44717452E+03</rscale>
<asrwt>0</asrwt>
<pdfrwt beam="1">  1       21 0.13970675E-01 0.44717452E+03</pdfrwt>
<pdfrwt beam="2">  1       21 0.77385376E-01 0.44717452E+03</pdfrwt>
<totfact> 0.61078044E+04</totfact>
</mgrwt>
</event>
<event>
 7    0  0.4784406E-002  0.4567949E+03  0.7546771E-02  0.1025715E+00
         21   -1    0    0  502  501  0.00000000000E+00  0.00000000000E+00  0.15487240880E+04  0.15487240880E+04  0.00000000000E+00 0. -1.
         21   -1    0    0  501  502 -0.00000000000E+00 -0.00000000000E+00 -0.33682822321E+02  0.33682822321E+02  0.00000000000E+00 0. -1.
      99926    2    1    2    0    0  0.00000000000E+00  0.00000000000E+00  0.15150412657E+04  0.15824069103E+04  0.45679491364E+03 0.  0.
      99925    2    3    3    0    0  0.75235219402E+02 -0.49273675176E+02  0.12041674279E+04  0.12354511719E+04  0.26121288339E+03 0.  0.
         25    1    4    4    0    0  0.25940614608E+02 -0.36771722628E-01  0.68961798440E+03  0.70135111702E+03  0.12509000000E+03 0.  0.
         25    1    3    3    0    0 -0.75235219402E+02  0.49273675176E+02  0.31087383778E+03  0.34695573842E+03  0.12509000000E+03 0.  0.
         25    1    4    4    0    0  0.49294604794E+02 -0.49236903453E+02  0.51454944351E+03  0.53410005490E+03  0.12509000000E+03 0.  0.
<mgrwt>
<rscale>  2 0.45679491E+03</rscale>
<asrwt>0</asrwt>
<pdfrwt beam="1">  1       21 0.22775350E+00 0.45679491E+03</pdfrwt>
<pdfrwt beam="2">  1       21 0.49533572E-02 0.45679491E+03</pdfrwt>
<totfact> 0.21528104E+04</totfact>
</mgrwt>
</event>
<event>
 7    0  0.4784406E-002  0.4554354E+03  0.7546771E-02  0.1026113E+00
         21   -1    0    0  502  501  0.00000000000E+00  0.00000000000E+00  0.77958572696E+03  0.77958572696E+03  0.00000000000E+00 0. -1.
         21   -1    0    0  501  502 -0.00000000000E+00 -0.00000000000E+00 -0.66516536239E+02  0.66516536239E+02  0.00000000000E+00 0. -1.
      99926    2    1    2    0    0 -0.17763568394E-14  0.00000000000E+00  0.71306919073E+03  0.84610226320E+03  0.45543536208E+03 0.  0.
      99925    2    3    3    0    0  0.11635777082E+01 -0.84149741481E+02  0.30694049544E+03  0.41289266250E+03  0.26303108201E+03 0.  0.
         25    1    4    4    0    0 -0.35205839918E+02 -0.51925480888E+02  0.13165832119E+03  0.19213830531E+03  0.12509000000E+03 0.  0.
         25    1    4    4    0    0  0.36369417626E+02 -0.32224260593E+02  0.17528217425E+03  0.22075435719E+03  0.12509000000E+03 0.  0.
         25    1    3    3    0    0 -0.11635777082E+01  0.84149741481E+02  0.40612869529E+03  0.43320960070E+03  0.12509000000E+03 0.  0.
<mgrwt>
<rscale>  2 0.45543536E+03</rscale>
<asrwt>0</asrwt>
<pdfrwt beam="1">  1       21 0.11464495E+00 0.45543536E+03</pdfrwt>
<pdfrwt beam="2">  1       21 0.97818440E-02 0.45543536E+03</pdfrwt>
<totfact> 0.45458787E+04</totfact>
</mgrwt>
</event>
<event>
 7    0  0.4784406E-002  0.4517536E+03  0.7546771E-02  0.1027200E+00
         21   -1    0    0  502  501  0.00000000000E+00  0.00000000000E+00  0.21820557300E+03  0.21820557300E+03  0.00000000000E+00 0. -1.
         21   -1    0    0  501  502 -0.00000000000E+00 -0.00000000000E+00 -0.23381766556E+03  0.23381766556E+03  0.00000000000E+00 0. -1.
      99926    2    1    2    0    0 -0.35527136788E-14 -0.35527136788E-14 -0.15612092562E+02  0.45202323855E+03  0.45175355091E+03 0.  0.
      99925    2    3    3    0    0  0.26208721292E+02  0.18490713958E+02  0.96339715925E+02  0.28111531276E+03  0.26213674796E+03 0.  0.
         25    1    4    4    0    0 -0.18891894748E+02 -0.49394540806E+01  0.27494300522E+02  0.12955595916E+03  0.12509000000E+03 0.  0.
         25    1    4    4    0    0  0.45100616040E+02  0.23430168038E+02  0.68845415403E+02  0.15155935360E+03  0.12509000000E+03 0.  0.
         25    1    3    3    0    0 -0.26208721292E+02 -0.18490713958E+02 -0.11195180849E+03  0.17090792579E+03  0.12509000000E+03 0.  0.
<mgrwt>
<rscale>  2 0.45175355E+03</rscale>
<asrwt>0</asrwt>
<pdfrwt beam="1">  1       21 0.32089055E-01 0.45175355E+03</pdfrwt>
<pdfrwt beam="2">  1       21 0.34384951E-01 0.45175355E+03</pdfrwt>
<totfact> 0.70574905E+04</totfact>
</mgrwt>
</event>
<event>
 7    0  0.4784406E-002  0.4599395E+03  0.7546771E-02  0.1024799E+00
         21   -1    0    0  502  501  0.00000000000E+00  0.00000000000E+00  0.63752495524E+02  0.63752495524E+02  0.00000000000E+00 0. -1.
         21   -1    0    0  501  502 -0.00000000000E+00 -0.00000000000E+00 -0.82955305129E+03  0.82955305129E+03  0.00000000000E+00 0. -1.
      99926    2    1    2    0    0  0.00000000000E+00  0.00000000000E+00 -0.76580055577E+03  0.89330554682E+03  0.45993946206E+03 0.  0.
      99925    2    3    3    0    0  0.56427026979E+02  0.13981334781E+02 -0.28071084015E+03  0.38898518495E+03  0.26292852876E+03 0.  0.
         25    1    4    4    0    0 -0.33713817600E+01 -0.15796633118E+02 -0.15156779055E+03  0.19718317135E+03  0.12509000000E+03 0.  0.
         25    1    4    4    0    0  0.59798408739E+02  0.29777967899E+02 -0.12914304961E+03  0.19180201360E+03  0.12509000000E+03 0.  0.
         25    1    3    3    0    0 -0.56427026979E+02 -0.13981334781E+02 -0.48508971562E+03  0.50432036187E+03  0.12509000000E+03 0.  0.
<mgrwt>
<rscale>  2 0.45993946E+03</rscale>
<asrwt>0</asrwt>
<pdfrwt beam="1">  1       21 0.93753673E-02 0.45993946E+03</pdfrwt>
<pdfrwt beam="2">  1       21 0.12199309E+00 0.45993946E+03</pdfrwt>
<totfact> 0.41880900E+04</totfact>
</mgrwt>
</event>
<event>
 7    0  0.4784406E-002  0.4521013E+03  0.7546771E-02  0.1027097E+00
         21   -1    0    0  502  501  0.00000000000E+00  0.00000000000E+00  0.37731532583E+03  0.37731532583E+03  0.00000000000E+00 0. -1.
         21   -1    0    0  501  502 -0.00000000000E+00 -0.00000000000E+00 -0.13542759414E+03  0.13542759414E+03  0.00000000000E+00 0. -1.
      99926    2    1    2    0    0  0.88817841970E-15  0.00000000000E+00  0.24188773170E+03  0.51274291997E+03  0.45210134620E+03 0.  0.
      99925    2    3    3    0    0 -0.50806253441E+01 -0.79613824347E+02  0.66171226765E+02  0.28276906931E+03  0.26308846711E+03 0.  0.
         25    1    4    4    0    0 -0.37854417641E+02 -0.24224392217E+02  0.46008740309E+02  0.14065592913E+03  0.12509000000E+03 0.  0.
         25    1    3    3    0    0  0.50806253441E+01  0.79613824347E+02  0.17571650493E+03  0.22997385066E+03  0.12509000000E+03 0.  0.
         25    1    4    4    0    0  0.32773792297E+02 -0.55389432130E+02  0.20162486456E+02  0.14211314018E+03  0.12509000000E+03 0.  0.
<mgrwt>
<rscale>  2 0.45210135E+03</rscale>
<asrwt>0</asrwt>
<pdfrwt beam="1">  1       21 0.55487548E-01 0.45210135E+03</pdfrwt>
<pdfrwt beam="2">  1       21 0.19915823E-01 0.45210135E+03</pdfrwt>
<totfact> 0.65886892E+04</totfact>
</mgrwt>
</event>
<event>
 7    0  0.4784406E-002  0.4481237E+03  0.7546771E-02  0.1028283E+00
         21   -1    0    0  502  501  0.00000000000E+00  0.00000000000E+00  0.27790438052E+03  0.27790438052E+03  0.00000000000E+00 0. -1.
         21   -1    0    0  501  502 -0.00000000000E+00 -0.00000000000E+00 -0.18065106889E+03  0.18065106889E+03  0.00000000000E+00 0. -1.
      99926    2    1    2    0    0  0.00000000000E+00  0.00000000000E+00  0.97253311634E+02  0.45855544941E+03  0.44812374805E+03 0.  0.
      99925    2    3    3    0    0  0.52506846024E+02  0.60080098395E+02  0.13387732873E+03  0.30573066794E+03  0.26302379183E+03 0.  0.
         25    1    4    4    0    0  0.20994468562E+02  0.49267865044E+02  0.10799117586E+03  0.17371727721E+03  0.12509000000E+03 0.  0.
         25    1    4    4    0    0  0.31512377462E+02  0.10812233352E+02  0.25886152870E+02  0.13201339074E+03  0.12509000000E+03 0.  0.
         25    1    3    3    0    0 -0.52506846024E+02 -0.60080098395E+02 -0.36624017100E+02  0.15282478147E+03  0.12509000000E+03 0.  0.
<mgrwt>
<rscale>  2 0.44812375E+03</rscale>
<asrwt>0</asrwt>
<pdfrwt beam="1">  1       21 0.40868292E-01 0.44812375E+03</pdfrwt>
<pdfrwt beam="2">  1       21 0.26566333E-01 0.44812375E+03</pdfrwt>
<totfact> 0.72152700E+04</totfact>
</mgrwt>
</event>
<event>
 7    0  0.4784406E-002  0.4523446E+03  0.7546771E-02  0.1027025E+00
         21   -1    0    0  502  501  0.00000000000E+00  0.00000000000E+00  0.57585118444E+03  0.57585118444E+03  0.00000000000E+00 0. -1.
         21   -1    0    0  501  502 -0.00000000000E+00 -0.00000000000E+00 -0.88831814824E+02  0.88831814824E+02  0.00000000000E+00 0. -1.
      99926    2    1    2    0    0  0.71054273576E-14  0.00000000000E+00  0.48701936962E+03  0.66468299926E+03  0.45234458450E+03 0.  0.
      99925    2    3    3    0    0  0.32477246080E+02 -0.95351876145E+02  0.37445199004E+03  0.46855631867E+03  0.26302847587E+03 0.  0.
         25    1    4    4    0    0 -0.74484056746E+01 -0.21557539702E+02  0.13321097777E+03  0.18415449754E+03  0.12509000000E+03 0.  0.
         25    1    4    4    0    0  0.39925651755E+02 -0.73794336443E+02  0.24124101228E+03  0.28440182113E+03  0.12509000000E+03 0.  0.
         25    1    3    3    0    0 -0.32477246080E+02  0.95351876145E+02  0.11256737957E+03  0.19612668059E+03  0.12509000000E+03 0.  0.
<mgrwt>
<rscale>  2 0.45234458E+03</rscale>
<asrwt>0</asrwt>
<pdfrwt beam="1">  1       21 0.84683996E-01 0.45234458E+03</pdfrwt>
<pdfrwt beam="2">  1       21 0.13063502E-01 0.45234458E+03</pdfrwt>
<totfact> 0.56026280E+04</totfact>
</mgrwt>
</event>
<event>
 7    0  0.4784406E-002  0.4555512E+03  0.7546771E-02  0.1026079E+00
         21   -1    0    0  502  501  0.00000000000E+00  0.00000000000E+00  0.10971128834E+04  0.10971128834E+04  0.00000000000E+00 0. -1.
         21   -1    0    0  501  502 -0.00000000000E+00 -0.00000000000E+00 -0.47289316891E+02  0.47289316891E+02  0.00000000000E+00 0. -1.
      99926    2    1    2    0    0  0.00000000000E+00  0.00000000000E+00  0.10498235665E+04  0.11444022003E+04  0.45555117740E+03 0.  0.
      99925    2    3    3    0    0  0.90285095924E+02 -0.14150157555E+02  0.83010656224E+03  0.87556266530E+03  0.26302366946E+03 0.  0.
         25    1    4    4    0    0  0.84052664279E+02  0.93610415393E+01  0.45515349792E+03  0.47954634212E+03  0.12509000000E+03 0.  0.
         25    1    3    3    0    0 -0.90285095924E+02  0.14150157555E+02  0.21971700425E+03  0.26883953497E+03  0.12509000000E+03 0.  0.
         25    1    4    4    0    0  0.62324316451E+01 -0.23511199094E+02  0.37495306432E+03  0.39601632319E+03  0.12509000000E+03 0.  0.
<mgrwt>
<rscale>  2 0.45555118E+03</rscale>
<asrwt>0</asrwt>
<pdfrwt beam="1">  1       21 0.16134011E+00 0.45555118E+03</pdfrwt>
<pdfrwt beam="2">  1       21 0.69543120E-02 0.45555118E+03</pdfrwt>
<totfact> 0.33824278E+04</totfact>
</mgrwt>
</event>
<event>
 7    0  0.4784406E-002  0.4510610E+03  0.7546771E-02  0.1027406E+00
         21   -1    0    0  502  501  0.00000000000E+00  0.00000000000E+00  0.82615109821E+03  0.82615109821E+03  0.00000000000E+00 0.  1.
         21   -1    0    0  501  502 -0.00000000000E+00 -0.00000000000E+00 -0.61567442365E+02  0.61567442365E+02  0.00000000000E+00 0.  1.
      99926    2    1    2    0    0  0.00000000000E+00  0.00000000000E+00  0.76458365584E+03  0.88771854057E+03  0.45106101638E+03 0.  0.
      99925    2    3    3    0    0 -0.41801445499E+02  0.85796834362E+02  0.37745393720E+03  0.46983651800E+03  0.26299509750E+03 0.  0.
         25    1    4    4    0    0 -0.75954390384E+00  0.57589584750E+02  0.13698469149E+03  0.19424070372E+03  0.12509000000E+03 0.  0.
         25    1    3    3    0    0  0.41801445499E+02 -0.85796834362E+02  0.38712971864E+03  0.41788202257E+03  0.12509000000E+03 0.  0.
         25    1    4    4    0    0 -0.41041901595E+02  0.28207249612E+02  0.24046924572E+03  0.27559581429E+03  0.12509000000E+03 0.  0.
<mgrwt>
<rscale>  2 0.45106102E+03</rscale>
<asrwt>0</asrwt>
<pdfrwt beam="1">  1       21 0.12149280E+00 0.45106102E+03</pdfrwt>
<pdfrwt beam="2">  1       21 0.90540361E-02 0.45106102E+03</pdfrwt>
<totfact> 0.45145485E+04</totfact>
</mgrwt>
</event>
<event>
 7    0  0.4784406E-002  0.4434072E+03  0.7546771E-02  0.1029707E+00
         21   -1    0    0  502  501  0.00000000000E+00  0.00000000000E+00  0.70851908400E+02  0.70851908400E+02  0.00000000000E+00 0.  1.
         21   -1    0    0  501  502 -0.00000000000E+00 -0.00000000000E+00 -0.69373550094E+03  0.69373550094E+03  0.00000000000E+00 0.  1.
      99926    2    1    2    0    0  0.00000000000E+00  0.14210854715E-13 -0.62288359254E+03  0.76458740934E+03  0.44340719059E+03 0.  0.
      99925    2    3    3    0    0 -0.71754113114E+02 -0.66756296094E+02 -0.44438211698E+03  0.52559924918E+03  0.26300959875E+03 0.  0.
         25    1    4    4    0    0 -0.30920256151E+02 -0.73922385688E+02 -0.22251156067E+03  0.26754342466E+03  0.12509000000E+03 0.  0.
         25    1    3    3    0    0  0.71754113114E+02  0.66756296094E+02 -0.17850147556E+03  0.23898816016E+03  0.12509000000E+03 0.  0.
         25    1    4    4    0    0 -0.40833856963E+02  0.71660895945E+01 -0.22187055630E+03  0.25805582452E+03  0.12509000000E+03 0.  0.
<mgrwt>
<rscale>  2 0.44340719E+03</rscale>
<asrwt>0</asrwt>
<pdfrwt beam="1">  1       21 0.10419398E-01 0.44340719E+03</pdfrwt>
<pdfrwt beam="2">  1       21 0.10201993E+00 0.44340719E+03</pdfrwt>
<totfact> 0.54301214E+04</totfact>
</mgrwt>
</event>
<event>
 7    0  0.4784406E-002  0.4527827E+03  0.7546771E-02  0.1026895E+00
         21   -1    0    0  502  501  0.00000000000E+00  0.00000000000E+00  0.15921811634E+04  0.15921811634E+04  0.00000000000E+00 0. -1.
         21   -1    0    0  501  502 -0.00000000000E+00 -0.00000000000E+00 -0.32190455458E+02  0.32190455458E+02  0.00000000000E+00 0. -1.
      99926    2    1    2    0    0  0.00000000000E+00 -0.14210854715E-13  0.15599907080E+04  0.16243716189E+04  0.45278267115E+03 0.  0.
      99925    2    3    3    0    0 -0.61845660920E+02 -0.78801577390E+02  0.11559845607E+04  0.11897418345E+04  0.26296530898E+03 0.  0.
         25    1    4    4    0    0 -0.96988882062E+01 -0.42000176885E+02  0.70818745871E+03  0.72044088451E+03  0.12509000000E+03 0.  0.
         25    1    4    4    0    0 -0.52146772714E+02 -0.36801400505E+02  0.44779710201E+03  0.46930094998E+03  0.12509000000E+03 0.  0.
         25    1    3    3    0    0  0.61845660920E+02  0.78801577390E+02  0.40400614725E+03  0.43462978440E+03  0.12509000000E+03 0.  0.
<mgrwt>
<rscale>  2 0.45278267E+03</rscale>
<asrwt>0</asrwt>
<pdfrwt beam="1">  1       21 0.23414424E+00 0.45278267E+03</pdfrwt>
<pdfrwt beam="2">  1       21 0.47338916E-02 0.45278267E+03</pdfrwt>
<totfact> 0.21248083E+04</totfact>
</mgrwt>
</event>
<event>
 7    0  0.4784406E-002  0.4493792E+03  0.7546771E-02  0.1027907E+00
         21   -1    0    0  502  501  0.00000000000E+00  0.00000000000E+00  0.16749409748E+03  0.16749409748E+03  0.00000000000E+00 0. -1.
         21   -1    0    0  501  502 -0.00000000000E+00 -0.00000000000E+00 -0.30141604590E+03  0.30141604590E+03  0.00000000000E+00 0. -1.
      99926    2    1    2    0    0  0.00000000000E+00  0.00000000000E+00 -0.13392194842E+03  0.46891014337E+03  0.44937916539E+03 0.  0.
      99925    2    3    3    0    0 -0.10263819868E+03 -0.89319077280E+01 -0.11785491818E+03  0.30606040784E+03  0.26299964392E+03 0.  0.
         25    1    4    4    0    0 -0.51584019379E+02  0.10350151906E+02 -0.99679027307E+02  0.16837889798E+03  0.12509000000E+03 0.  0.
         25    1    4    4    0    0 -0.51054179298E+02 -0.19282059634E+02 -0.18175890875E+02  0.13768150986E+03  0.12509000000E+03 0.  0.
         25    1    3    3    0    0  0.10263819868E+03  0.89319077280E+01 -0.16067030238E+02  0.16284973554E+03  0.12509000000E+03 0.  0.
<mgrwt>
<rscale>  2 0.44937917E+03</rscale>
<asrwt>0</asrwt>
<pdfrwt beam="1">  1       21 0.24631485E-01 0.44937917E+03</pdfrwt>
<pdfrwt beam="2">  1       21 0.44325889E-01 0.44937917E+03</pdfrwt>
<totfact> 0.70613864E+04</totfact>
</mgrwt>
</event>
<event>
 7    0  0.4784406E-002  0.4563636E+03  0.7546771E-02  0.1025841E+00
         21   -1    0    0  502  501  0.00000000000E+00  0.00000000000E+00  0.46009983330E+03  0.46009983330E+03  0.00000000000E+00 0.  1.
         21   -1    0    0  501  502 -0.00000000000E+00 -0.00000000000E+00 -0.11316442461E+03  0.11316442461E+03  0.00000000000E+00 0.  1.
      99926    2    1    2    0    0  0.00000000000E+00 -0.71054273576E-14  0.34693540869E+03  0.57326425790E+03  0.45636359582E+03 0.  0.
      99925    2    3    3    0    0 -0.93119013272E+02 -0.60953560199E+02  0.25170608548E+03  0.38064385599E+03  0.26295875057E+03 0.  0.
         25    1    4    4    0    0 -0.36031162886E+02 -0.56770365674E+01  0.76224273228E+02  0.15095734951E+03  0.12509000000E+03 0.  0.
         25    1    3    3    0    0  0.93119013272E+02  0.60953560199E+02  0.95229323210E+02  0.19262040191E+03  0.12509000000E+03 0.  0.
         25    1    4    4    0    0 -0.57087850387E+02 -0.55276523632E+02  0.17548181225E+03  0.22968650648E+03  0.12509000000E+03 0.  0.
<mgrwt>
<rscale>  2 0.45636360E+03</rscale>
<asrwt>0</asrwt>
<pdfrwt beam="1">  1       21 0.67661739E-01 0.45636360E+03</pdfrwt>
<pdfrwt beam="2">  1       21 0.16641827E-01 0.45636360E+03</pdfrwt>
<totfact> 0.59708464E+04</totfact>
</mgrwt>
</event>
<event>
 7    0  0.4784406E-002  0.4503323E+03  0.7546771E-02  0.1027623E+00
         21   -1    0    0  502  501  0.00000000000E+00  0.00000000000E+00  0.67293709993E+02  0.67293709993E+02  0.00000000000E+00 0.  1.
         21   -1    0    0  501  502 -0.00000000000E+00 -0.00000000000E+00 -0.75341071888E+03  0.75341071888E+03  0.00000000000E+00 0.  1.
      99926    2    1    2    0    0  0.14210854715E-13  0.00000000000E+00 -0.68611700888E+03  0.82070442887E+03  0.45033233249E+03 0.  0.
      99925    2    3    3    0    0  0.10040844686E+03  0.57051614157E+01 -0.35845915938E+03  0.45584612828E+03  0.26303672492E+03 0.  0.
         25    1    3    3    0    0 -0.10040844686E+03 -0.57051614157E+01 -0.32765784950E+03  0.36485830058E+03  0.12509000000E+03 0.  0.
         25    1    4    4    0    0  0.40440644698E+02  0.42366022441E+02 -0.17637417074E+03  0.22402161013E+03  0.12509000000E+03 0.  0.
         25    1    4    4    0    0  0.59967802164E+02 -0.36660861025E+02 -0.18208498865E+03  0.23182451816E+03  0.12509000000E+03 0.  0.
<mgrwt>
<rscale>  2 0.45033233E+03</rscale>
<asrwt>0</asrwt>
<pdfrwt beam="1">  1       21 0.98961338E-02 0.45033233E+03</pdfrwt>
<pdfrwt beam="2">  1       21 0.11079569E+00 0.45033233E+03</pdfrwt>
<totfact> 0.48532888E+04</totfact>
</mgrwt>
</event>
<event>
 7    0  0.4784406E-002  0.4515755E+03  0.7546771E-02  0.1027253E+00
         21   -1    0    0  502  501  0.00000000000E+00  0.00000000000E+00  0.59537130111E+03  0.59537130111E+03  0.00000000000E+00 0.  1.
         21   -1    0    0  501  502 -0.00000000000E+00 -0.00000000000E+00 -0.85627415209E+02  0.85627415209E+02  0.00000000000E+00 0.  1.
      99926    2    1    2    0    0 -0.17763568394E-14  0.00000000000E+00  0.50974388590E+03  0.68099871632E+03  0.45157548916E+03 0.  0.
      99925    2    3    3    0    0  0.14572958882E+02  0.38665326920E+02  0.16794688828E+03  0.31469273177E+03  0.26290298497E+03 0.  0.
         25    1    3    3    0    0 -0.14572958882E+02 -0.38665326920E+02  0.34179699762E+03  0.36630598455E+03  0.12509000000E+03 0.  0.
         25    1    4    4    0    0 -0.12850661520E+02  0.45498347312E+02  0.57967205702E+02  0.14574959398E+03  0.12509000000E+03 0.  0.
         25    1    4    4    0    0  0.27423620402E+02 -0.68330203913E+01  0.10997968258E+03  0.16894313778E+03  0.12509000000E+03 0.  0.
<mgrwt>
<rscale>  2 0.45157549E+03</rscale>
<asrwt>0</asrwt>
<pdfrwt beam="1">  1       21 0.87554601E-01 0.45157549E+03</pdfrwt>
<pdfrwt beam="2">  1       21 0.12592267E-01 0.45157549E+03</pdfrwt>
<totfact> 0.55426655E+04</totfact>
</mgrwt>
</event>
<event>
 7    0  0.4784406E-002  0.4553228E+03  0.7546771E-02  0.1026147E+00
         21   -1    0    0  502  501  0.00000000000E+00  0.00000000000E+00  0.17174476004E+03  0.17174476004E+03  0.00000000000E+00 0.  1.
         21   -1    0    0  501  502 -0.00000000000E+00 -0.00000000000E+00 -0.30178333373E+03  0.30178333373E+03  0.00000000000E+00 0.  1.
      99926    2    1    2    0    0  0.88817841970E-15  0.71054273576E-14 -0.13003857369E+03  0.47352809377E+03  0.45532277006E+03 0.  0.
      99925    2    3    3    0    0  0.79640102680E+01  0.57375908027E+02 -0.18327844532E+03  0.32575322340E+03  0.26299953185E+03 0.  0.
         25    1    4    4    0    0 -0.83726827540E+00  0.39366261089E+02 -0.46055691601E+02  0.13899294356E+03  0.12509000000E+03 0.  0.
         25    1    3    3    0    0 -0.79640102680E+01 -0.57375908027E+02  0.53239871632E+02  0.14777487037E+03  0.12509000000E+03 0.  0.
         25    1    4    4    0    0  0.88012785434E+01  0.18009646939E+02 -0.13722275372E+03  0.18676027984E+03  0.12509000000E+03 0.  0.
<mgrwt>
<rscale>  2 0.45532277E+03</rscale>
<asrwt>0</asrwt>
<pdfrwt beam="1">  1       21 0.25256582E-01 0.45532277E+03</pdfrwt>
<pdfrwt beam="2">  1       21 0.44379902E-01 0.45532277E+03</pdfrwt>
<totfact> 0.67002569E+04</totfact>
</mgrwt>
</event>
<event>
 7    0  0.4784406E-002  0.3939345E+03  0.7546771E-02  0.1045900E+00
         21   -1    0    0  502  501  0.00000000000E+00  0.00000000000E+00  0.42508499281E+02  0.42508499281E+02  0.00000000000E+00 0. -1.
         21   -1    0    0  501  502 -0.00000000000E+00 -0.00000000000E+00 -0.91266662705E+03  0.91266662705E+03  0.00000000000E+00 0. -1.
      99926    2    1    2    0    0  0.35527136788E-14 -0.17763568394E-14 -0.87015812777E+03  0.95517512633E+03  0.39393445475E+03 0.  0.
      99925    2    3    3    0    0 -0.16427630582E+02 -0.10102626220E+02 -0.51932954127E+03  0.58221382096E+03  0.26248396289E+03 0.  0.
         25    1    4    4    0    0  0.16756451164E+02  0.25920474848E+02 -0.25133220243E+03  0.28243235252E+03  0.12509000000E+03 0.  0.
         25    1    3    3    0    0  0.16427630582E+02  0.10102626220E+02 -0.35082858649E+03  0.37296130537E+03  0.12509000000E+03 0.  0.
         25    1    4    4    0    0 -0.33184081746E+02 -0.36023101068E+02 -0.26799733885E+03  0.29978146844E+03  0.12509000000E+03 0.  0.
<mgrwt>
<rscale>  2 0.39393445E+03</rscale>
<asrwt>0</asrwt>
<pdfrwt beam="1">  1       21 0.62512506E-02 0.39393445E+03</pdfrwt>
<pdfrwt beam="2">  1       21 0.13421566E+00 0.39393445E+03</pdfrwt>
<totfact> 0.68084589E+04</totfact>
</mgrwt>
</event>
<event>
 7    0  0.4784406E-002  0.4529272E+03  0.7546771E-02  0.1026853E+00
         21   -1    0    0  502  501  0.00000000000E+00  0.00000000000E+00  0.66931564750E+03  0.66931564750E+03  0.00000000000E+00 0. -1.
         21   -1    0    0  501  502 -0.00000000000E+00 -0.00000000000E+00 -0.76624195410E+02  0.76624195410E+02  0.00000000000E+00 0. -1.
      99926    2    1    2    0    0 -0.35527136788E-14 -0.88817841970E-15  0.59269145209E+03  0.74593984291E+03  0.45292724787E+03 0.  0.
      99925    2    3    3    0    0  0.41266632122E+01 -0.83822135148E+00  0.19075472175E+03  0.32496671401E+03  0.26305563932E+03 0.  0.
         25    1    4    4    0    0 -0.35081034041E+02 -0.14295322987E+02  0.10604152718E+03  0.16830730464E+03  0.12509000000E+03 0.  0.
         25    1    4    4    0    0  0.39207697253E+02  0.13457101635E+02  0.84713194569E+02  0.15665940936E+03  0.12509000000E+03 0.  0.
         25    1    3    3    0    0 -0.41266632122E+01  0.83822135148E+00  0.40193673033E+03  0.42097312890E+03  0.12509000000E+03 0.  0.
<mgrwt>
<rscale>  2 0.45292725E+03</rscale>
<asrwt>0</asrwt>
<pdfrwt beam="1">  1       21 0.98428768E-01 0.45292725E+03</pdfrwt>
<pdfrwt beam="2">  1       21 0.11268264E-01 0.45292725E+03</pdfrwt>
<totfact> 0.51309529E+04</totfact>
</mgrwt>
</event>
<event>
 7    0  0.4784406E-002  0.4616323E+03  0.7546771E-02  0.1024309E+00
         21   -1    0    0  502  501  0.00000000000E+00  0.00000000000E+00  0.15340873935E+03  0.15340873935E+03  0.00000000000E+00 0.  1.
         21   -1    0    0  501  502 -0.00000000000E+00 -0.00000000000E+00 -0.34728204763E+03  0.34728204763E+03  0.00000000000E+00 0.  1.
      99926    2    1    2    0    0 -0.14210854715E-13  0.00000000000E+00 -0.19387330828E+03  0.50069078698E+03  0.46163232611E+03 0.  0.
      99925    2    3    3    0    0  0.81644856415E+02 -0.60976173293E+02 -0.18865577298E+03  0.33926369179E+03  0.26291609992E+03 0.  0.
         25    1    4    4    0    0  0.68840911955E+02 -0.49915323058E+02 -0.72537950177E+02  0.16774943502E+03  0.12509000000E+03 0.  0.
         25    1    4    4    0    0  0.12803944460E+02 -0.11060850235E+02 -0.11611782280E+03  0.17151425676E+03  0.12509000000E+03 0.  0.
         25    1    3    3    0    0 -0.81644856415E+02  0.60976173293E+02 -0.52175352993E+01  0.16142709519E+03  0.12509000000E+03 0.  0.
<mgrwt>
<rscale>  2 0.46163233E+03</rscale>
<asrwt>0</asrwt>
<pdfrwt beam="1">  1       21 0.22560109E-01 0.46163233E+03</pdfrwt>
<pdfrwt beam="2">  1       21 0.51070889E-01 0.46163233E+03</pdfrwt>
<totfact> 0.61898457E+04</totfact>
</mgrwt>
</event>
<event>
 7    0  0.4784406E-002  0.4590182E+03  0.7546771E-02  0.1025066E+00
         21   -1    0    0  502  501  0.00000000000E+00  0.00000000000E+00  0.13852779357E+03  0.13852779357E+03  0.00000000000E+00 0.  1.
         21   -1    0    0  501  502 -0.00000000000E+00 -0.00000000000E+00 -0.38024444176E+03  0.38024444176E+03  0.00000000000E+00 0.  1.
      99926    2    1    2    0    0 -0.14210854715E-13  0.00000000000E+00 -0.24171664820E+03  0.51877223533E+03  0.45901818497E+03 0.  0.
      99925    2    3    3    0    0  0.92373069706E+02  0.87112002131E+01 -0.23166543966E+03  0.36270428888E+03  0.26320496998E+03 0.  0.
         25    1    4    4    0    0  0.96744972475E+01 -0.42928979279E+01 -0.79055339402E+02  0.14835524816E+03  0.12509000000E+03 0.  0.
         25    1    4    4    0    0  0.82698572458E+02  0.13004098141E+02 -0.15261010026E+03  0.21434904072E+03  0.12509000000E+03 0.  0.
         25    1    3    3    0    0 -0.92373069706E+02 -0.87112002131E+01 -0.10051208537E+02  0.15606794645E+03  0.12509000000E+03 0.  0.
<mgrwt>
<rscale>  2 0.45901818E+03</rscale>
<asrwt>0</asrwt>
<pdfrwt beam="1">  1       21 0.20371734E-01 0.45901818E+03</pdfrwt>
<pdfrwt beam="2">  1       21 0.55918300E-01 0.45901818E+03</pdfrwt>
<totfact> 0.61971456E+04</totfact>
</mgrwt>
</event>
<event>
 7    0  0.4784406E-002  0.4519162E+03  0.7546771E-02  0.1027152E+00
         21   -1    0    0  502  501  0.00000000000E+00  0.00000000000E+00  0.14550248795E+03  0.14550248795E+03  0.00000000000E+00 0. -1.
         21   -1    0    0  501  502 -0.00000000000E+00 -0.00000000000E+00 -0.35090163957E+03  0.35090163957E+03  0.00000000000E+00 0. -1.
      99926    2    1    2    0    0 -0.14210854715E-13  0.53290705182E-14 -0.20539915162E+03  0.49640412752E+03  0.45191619392E+03 0.  0.
      99925    2    3    3    0    0  0.10788352857E+03 -0.14725841581E+02 -0.14882416776E+03  0.32117872112E+03  0.26296659835E+03 0.  0.
         25    1    4    4    0    0  0.56771596267E+02 -0.47850507101E+02 -0.78064712896E+02  0.16508874181E+03  0.12509000000E+03 0.  0.
         25    1    3    3    0    0 -0.10788352857E+03  0.14725841581E+02 -0.56574983864E+02  0.17522540640E+03  0.12509000000E+03 0.  0.
         25    1    4    4    0    0  0.51111932305E+02  0.33124665520E+02 -0.70759454865E+02  0.15608997931E+03  0.12509000000E+03 0.  0.
<mgrwt>
<rscale>  2 0.45191619E+03</rscale>
<asrwt>0</asrwt>
<pdfrwt beam="1">  1       21 0.21397425E-01 0.45191619E+03</pdfrwt>
<pdfrwt beam="2">  1       21 0.51603182E-01 0.45191619E+03</pdfrwt>
<totfact> 0.67152937E+04</totfact>
</mgrwt>
</event>
<event>
 7    0  0.5161566E-002  0.4194486E+03  0.7546771E-02  0.1037246E+00
         21   -1    0    0  502  501  0.00000000000E+00  0.00000000000E+00  0.77268031907E+02  0.77268031907E+02  0.00000000000E+00 0.  1.
         21   -1    0    0  501  502 -0.00000000000E+00 -0.00000000000E+00 -0.56924292956E+03  0.56924292956E+03  0.00000000000E+00 0.  1.
      99926    2    1    2    0    0  0.00000000000E+00  0.35527136788E-14 -0.49197489765E+03  0.64651096146E+03  0.41944859444E+03 0.  0.
      99925    2    3    3    0    0 -0.22920784768E+02 -0.22572685531E+02 -0.21761606435E+03  0.34326985935E+03  0.26351955594E+03 0.  0.
         25    1    4    4    0    0  0.13659395047E+02 -0.27066615757E+02 -0.14546713550E+03  0.19423536334E+03  0.12509000000E+03 0.  0.
         25    1    4    4    0    0 -0.36580179814E+02  0.44939302258E+01 -0.72148928849E+02  0.14903449600E+03  0.12509000000E+03 0.  0.
         25    1    3    3    0    0  0.22920784768E+02  0.22572685531E+02 -0.27435883330E+03  0.30324110212E+03  0.12509000000E+03 0.  0.
<mgrwt>
<rscale>  2 0.41944859E+03</rscale>
<asrwt>0</asrwt>
<pdfrwt beam="1">  1       21 0.11362946E-01 0.41944859E+03</pdfrwt>
<pdfrwt beam="2">  1       21 0.83712195E-01 0.41944859E+03</pdfrwt>
<totfact> 0.74753715E+04</totfact>
</mgrwt>
</event>
<event>
 7    0  0.4784406E-002  0.4502450E+03  0.7546771E-02  0.1027649E+00
         21   -1    0    0  502  501  0.00000000000E+00  0.00000000000E+00  0.44957153978E+03  0.44957153978E+03  0.00000000000E+00 0. -1.
         21   -1    0    0  501  502 -0.00000000000E+00 -0.00000000000E+00 -0.11272986979E+03  0.11272986979E+03  0.00000000000E+00 0. -1.
      99926    2    1    2    0    0  0.00000000000E+00  0.00000000000E+00  0.33684166999E+03  0.56230140957E+03  0.45024500504E+03 0.  0.
      99925    2    3    3    0    0 -0.32865253094E+02  0.71331690319E+02  0.12205031734E+03  0.30162696093E+03  0.26441295107E+03 0.  0.
         25    1    4    4    0    0 -0.30021451996E+02  0.70950861721E+02  0.40920153185E+02  0.15250337503E+03  0.12509000000E+03 0.  0.
         25    1    3    3    0    0  0.32865253094E+02 -0.71331690319E+02  0.21479135265E+03  0.26067444864E+03  0.12509000000E+03 0.  0.
         25    1    4    4    0    0 -0.28438010982E+01  0.38082859793E+00  0.81130164159E+02  0.14912358590E+03  0.12509000000E+03 0.  0.
<mgrwt>
<rscale>  2 0.45024501E+03</rscale>
<asrwt>0</asrwt>
<pdfrwt beam="1">  1       21 0.66113461E-01 0.45024501E+03</pdfrwt>
<pdfrwt beam="2">  1       21 0.16577922E-01 0.45024501E+03</pdfrwt>
<totfact> 0.63412295E+04</totfact>
</mgrwt>
</event>
<event>
 7    0  0.4784406E-002  0.4027229E+03  0.7546771E-02  0.1042841E+00
         21   -1    0    0  502  501  0.00000000000E+00  0.00000000000E+00  0.60210241038E+03  0.60210241038E+03  0.00000000000E+00 0. -1.
         21   -1    0    0  501  502 -0.00000000000E+00 -0.00000000000E+00 -0.67341431687E+02  0.67341431687E+02  0.00000000000E+00 0. -1.
      99926    2    1    2    0    0 -0.71054273576E-14 -0.17763568394E-14  0.53476097869E+03  0.66944384206E+03  0.40272292379E+03 0.  0.
      99925    2    3    3    0    0 -0.47412461930E+02 -0.10281081597E+02  0.37869288033E+03  0.46363227385E+03  0.26304551993E+03 0.  0.
         25    1    3    3    0    0  0.47412461930E+02  0.10281081597E+02  0.15606809836E+03  0.20581156822E+03  0.12509000000E+03 0.  0.
         25    1    4    4    0    0 -0.36011565760E+02  0.73532552866E+01  0.12816023243E+03  0.18282083171E+03  0.12509000000E+03 0.  0.
         25    1    4    4    0    0 -0.11400896171E+02 -0.17634336883E+02  0.25053264790E+03  0.28081144213E+03  0.12509000000E+03 0.  0.
<mgrwt>
<rscale>  2 0.40272292E+03</rscale>
<asrwt>0</asrwt>
<pdfrwt beam="1">  1       21 0.88544469E-01 0.40272292E+03</pdfrwt>
<pdfrwt beam="2">  1       21 0.99031520E-02 0.40272292E+03</pdfrwt>
<totfact> 0.84308543E+04</totfact>
</mgrwt>
</event>
<event>
 7    0  0.4784406E-002  0.4459393E+03  0.7546771E-02  0.1028940E+00
         21   -1    0    0  502  501  0.00000000000E+00  0.00000000000E+00  0.53281462387E+02  0.53281462387E+02  0.00000000000E+00 0. -1.
         21   -1    0    0  501  502 -0.00000000000E+00 -0.00000000000E+00 -0.93307238708E+03  0.93307238708E+03  0.00000000000E+00 0. -1.
      99926    2    1    2    0    0  0.00000000000E+00  0.35527136788E-14 -0.87979092469E+03  0.98635384946E+03  0.44593928419E+03 0.  0.
      99925    2    3    3    0    0  0.10002013026E+03  0.61908287180E+01 -0.62256076953E+03  0.68327429944E+03  0.26313400332E+03 0.  0.
         25    1    4    4    0    0  0.48684624932E+02  0.40385406755E+02 -0.27216416715E+03  0.30614051637E+03  0.12509000000E+03 0.  0.
         25    1    3    3    0    0 -0.10002013026E+03 -0.61908287180E+01 -0.25723015516E+03  0.30307955002E+03  0.12509000000E+03 0.  0.
         25    1    4    4    0    0  0.51335505328E+02 -0.34194578037E+02 -0.35039660237E+03  0.37713378307E+03  0.12509000000E+03 0.  0.
<mgrwt>
<rscale>  2 0.44593928E+03</rscale>
<asrwt>0</asrwt>
<pdfrwt beam="1">  1       21 0.78355098E-02 0.44593928E+03</pdfrwt>
<pdfrwt beam="2">  1       21 0.13721652E+00 0.44593928E+03</pdfrwt>
<totfact> 0.42640565E+04</totfact>
</mgrwt>
</event>
<event>
 7    0  0.4784406E-002  0.4569019E+03  0.7546771E-02  0.1025684E+00
         21   -1    0    0  502  501  0.00000000000E+00  0.00000000000E+00  0.39225223057E+03  0.39225223057E+03  0.00000000000E+00 0.  1.
         21   -1    0    0  501  502 -0.00000000000E+00 -0.00000000000E+00 -0.13305172047E+03  0.13305172047E+03  0.00000000000E+00 0.  1.
      99926    2    1    2    0    0  0.00000000000E+00  0.00000000000E+00  0.25920051010E+03  0.52530395104E+03  0.45690188940E+03 0.  0.
      99925    2    3    3    0    0  0.38848164183E+02  0.10694482964E+03  0.18169599254E+03  0.33929095474E+03  0.26298011678E+03 0.  0.
         25    1    3    3    0    0 -0.38848164183E+02 -0.10694482964E+03  0.77504517564E+02  0.18601299629E+03  0.12509000000E+03 0.  0.
         25    1    4    4    0    0 -0.42093553052E+01  0.40679144387E+02  0.48652640661E+02  0.14031072305E+03  0.12509000000E+03 0.  0.
         25    1    4    4    0    0  0.43057519488E+02  0.66265685254E+02  0.13304335187E+03  0.19898023169E+03  0.12509000000E+03 0.  0.
<mgrwt>
<rscale>  2 0.45690189E+03</rscale>
<asrwt>0</asrwt>
<pdfrwt beam="1">  1       21 0.57684151E-01 0.45690189E+03</pdfrwt>
<pdfrwt beam="2">  1       21 0.19566430E-01 0.45690189E+03</pdfrwt>
<totfact> 0.62576708E+04</totfact>
</mgrwt>
</event>
<event>
 6    0  0.4784406E-002  0.5183030E+03  0.7546771E-02  0.1009109E+00
         21   -1    0    0  502  501  0.00000000000E+00  0.00000000000E+00  0.98506601226E+02  0.98506601226E+02  0.00000000000E+00 0.  1.
         21   -1    0    0  501  502 -0.00000000000E+00 -0.00000000000E+00 -0.68177654447E+03  0.68177654447E+03  0.00000000000E+00 0.  1.
      99926    2    1    2    0    0  0.00000000000E+00  0.00000000000E+00 -0.58326994324E+03  0.78028314569E+03  0.51830296234E+03 0.  0.
         25    1    3    3    0    0 -0.43054628503E+02  0.42953206954E+02 -0.21283030970E+03  0.25424973520E+03  0.12509000000E+03 0.  0.
         25    1    3    3    0    0  0.11903618678E+03 -0.71580487074E+02 -0.87920535965E+02  0.20656937972E+03  0.12509000000E+03 0.  0.
         25    1    3    3    0    0 -0.75981558272E+02  0.28627280120E+02 -0.28251909758E+03  0.31946403078E+03  0.12509000000E+03 0.  0.
<mgrwt>
<rscale>  2 0.51830296E+03</rscale>
<asrwt>0</asrwt>
<pdfrwt beam="1">  1       21 0.14486265E-01 0.51830296E+03</pdfrwt>
<pdfrwt beam="2">  1       21 0.10026125E+00 0.51830296E+03</pdfrwt>
<totfact> 0.30504852E+04</totfact>
</mgrwt>
</event>
<event>
 7    0  0.4784406E-002  0.4638547E+03  0.7546771E-02  0.1023669E+00
         21   -1    0    0  502  501  0.00000000000E+00  0.00000000000E+00  0.32312467237E+03  0.32312467237E+03  0.00000000000E+00 0. -1.
         21   -1    0    0  501  502 -0.00000000000E+00 -0.00000000000E+00 -0.16646913991E+03  0.16646913991E+03  0.00000000000E+00 0. -1.
      99926    2    1    2    0    0 -0.88817841970E-15 -0.71054273576E-14  0.15665553246E+03  0.48959381229E+03  0.46385465954E+03 0.  0.
      99925    2    3    3    0    0  0.48410834340E+01  0.63510114490E+02 -0.11107619048E+02  0.27084977503E+03  0.26301948730E+03 0.  0.
         25    1    4    4    0    0  0.12524991771E+02  0.59799622850E+02 -0.34217826877E+02  0.14335703013E+03  0.12509000000E+03 0.  0.
         25    1    3    3    0    0 -0.48410834340E+01 -0.63510114490E+02  0.16776315151E+03  0.21874403726E+03  0.12509000000E+03 0.  0.
         25    1    4    4    0    0 -0.76839083372E+01  0.37104916403E+01  0.23110207829E+02  0.12749274490E+03  0.12509000000E+03 0.  0.
<mgrwt>
<rscale>  2 0.46385466E+03</rscale>
<asrwt>0</asrwt>
<pdfrwt beam="1">  1       21 0.47518334E-01 0.46385466E+03</pdfrwt>
<pdfrwt beam="2">  1       21 0.24480756E-01 0.46385466E+03</pdfrwt>
<totfact> 0.61565496E+04</totfact>
</mgrwt>
</event>
<event>
 7    0  0.4784406E-002  0.4556527E+03  0.7546771E-02  0.1026050E+00
         21   -1    0    0  502  501  0.00000000000E+00  0.00000000000E+00  0.57330289358E+03  0.57330289358E+03  0.00000000000E+00 0. -1.
         21   -1    0    0  501  502 -0.00000000000E+00 -0.00000000000E+00 -0.90536523846E+02  0.90536523846E+02  0.00000000000E+00 0. -1.
      99926    2    1    2    0    0  0.00000000000E+00  0.00000000000E+00  0.48276636973E+03  0.66383941742E+03  0.45565272344E+03 0.  0.
      99925    2    3    3    0    0  0.51497356953E+02  0.33762894296E+02  0.44299657280E+03  0.51885301926E+03  0.26300300621E+03 0.  0.
         25    1    3    3    0    0 -0.51497356953E+02 -0.33762894296E+02  0.39769796927E+02  0.14498639816E+03  0.12509000000E+03 0.  0.
         25    1    4    4    0    0  0.18432122508E+02  0.84274420240E+01  0.29251754291E+03  0.31878642683E+03  0.12509000000E+03 0.  0.
         25    1    4    4    0    0  0.33065234445E+02  0.25335452272E+02  0.15047902990E+03  0.20006659244E+03  0.12509000000E+03 0.  0.
<mgrwt>
<rscale>  2 0.45565272E+03</rscale>
<asrwt>0</asrwt>
<pdfrwt beam="1">  1       21 0.84309247E-01 0.45565272E+03</pdfrwt>
<pdfrwt beam="2">  1       21 0.13314195E-01 0.45565272E+03</pdfrwt>
<totfact> 0.54628640E+04</totfact>
</mgrwt>
</event>
<event>
 7    0  0.4784406E-002  0.4595746E+03  0.7546771E-02  0.1024905E+00
         21   -1    0    0  502  501  0.00000000000E+00  0.00000000000E+00  0.65300195795E+03  0.65300195795E+03  0.00000000000E+00 0. -1.
         21   -1    0    0  501  502 -0.00000000000E+00 -0.00000000000E+00 -0.80860709172E+02  0.80860709172E+02  0.00000000000E+00 0. -1.
      99926    2    1    2    0    0  0.00000000000E+00  0.00000000000E+00  0.57214124878E+03  0.73386266712E+03  0.45957459203E+03 0.  0.
      99925    2    3    3    0    0 -0.18268097541E+02 -0.10593020795E+03  0.43394615556E+03  0.51868756579E+03  0.26300683002E+03 0.  0.
         25    1    4    4    0    0 -0.37346570358E+02 -0.36809395575E+02  0.16558925794E+03  0.21404907934E+03  0.12509000000E+03 0.  0.
         25    1    3    3    0    0  0.18268097541E+02  0.10593020795E+03  0.13819509322E+03  0.21517510134E+03  0.12509000000E+03 0.  0.
         25    1    4    4    0    0  0.19078472816E+02 -0.69120812374E+02  0.26835689762E+03  0.30463848645E+03  0.12509000000E+03 0.  0.
<mgrwt>
<rscale>  2 0.45957459E+03</rscale>
<asrwt>0</asrwt>
<pdfrwt beam="1">  1       21 0.96029697E-01 0.45957459E+03</pdfrwt>
<pdfrwt beam="2">  1       21 0.11891281E-01 0.45957459E+03</pdfrwt>
<totfact> 0.49305180E+04</totfact>
</mgrwt>
</event>
<event>
 7    0  0.4784406E-002  0.4592939E+03  0.7546771E-02  0.1024986E+00
         21   -1    0    0  502  501  0.00000000000E+00  0.00000000000E+00  0.12854274588E+04  0.12854274588E+04  0.00000000000E+00 0.  1.
         21   -1    0    0  501  502 -0.00000000000E+00 -0.00000000000E+00 -0.41027373222E+02  0.41027373222E+02  0.00000000000E+00 0.  1.
      99926    2    1    2    0    0  0.14210854715E-13  0.00000000000E+00  0.12444000856E+04  0.13264548320E+04  0.45929385844E+03 0.  0.
      99925    2    3    3    0    0  0.72865264221E+02  0.81590197913E+02  0.65870436055E+03  0.71764180855E+03  0.26296772359E+03 0.  0.
         25    1    4    4    0    0  0.10983172519E+02  0.71024748363E+02  0.35736192797E+03  0.38538318674E+03  0.12509000000E+03 0.  0.
         25    1    4    4    0    0  0.61882091703E+02  0.10565449550E+02  0.30134243258E+03  0.33225862181E+03  0.12509000000E+03 0.  0.
         25    1    3    3    0    0 -0.72865264221E+02 -0.81590197913E+02  0.58569572502E+03  0.60881302345E+03  0.12509000000E+03 0.  0.
<mgrwt>
<rscale>  2 0.45929386E+03</rscale>
<asrwt>0</asrwt>
<pdfrwt beam="1">  1       21 0.18903342E+00 0.45929386E+03</pdfrwt>
<pdfrwt beam="2">  1       21 0.60334381E-02 0.45929386E+03</pdfrwt>
<totfact> 0.27428728E+04</totfact>
</mgrwt>
</event>
<event>
 7    0  0.4784406E-002  0.4503021E+03  0.7546771E-02  0.1027632E+00
         21   -1    0    0  502  501  0.00000000000E+00  0.00000000000E+00  0.35409850154E+03  0.35409850154E+03  0.00000000000E+00 0.  1.
         21   -1    0    0  501  502 -0.00000000000E+00 -0.00000000000E+00 -0.14316070135E+03  0.14316070135E+03  0.00000000000E+00 0.  1.
      99926    2    1    2    0    0  0.17763568394E-14 -0.71054273576E-14  0.21093780019E+03  0.49725920289E+03  0.45030207562E+03 0.  0.
      99925    2    3    3    0    0 -0.15820707963E+02  0.58340170227E+02  0.23303806285E+03  0.35658297898E+03  0.26304146422E+03 0.  0.
         25    1    4    4    0    0 -0.11743593773E+02  0.17591992807E+02  0.16583428752E+03  0.20879633432E+03  0.12509000000E+03 0.  0.
         25    1    3    3    0    0  0.15820707963E+02 -0.58340170227E+02 -0.22100262658E+02  0.14067622390E+03  0.12509000000E+03 0.  0.
         25    1    4    4    0    0 -0.40771141907E+01  0.40748177420E+02  0.67203775325E+02  0.14778664466E+03  0.12509000000E+03 0.  0.
<mgrwt>
<rscale>  2 0.45030208E+03</rscale>
<asrwt>0</asrwt>
<pdfrwt beam="1">  1       21 0.52073309E-01 0.45030208E+03</pdfrwt>
<pdfrwt beam="2">  1       21 0.21053044E-01 0.45030208E+03</pdfrwt>
<totfact> 0.67962998E+04</totfact>
</mgrwt>
</event>
<event>
 7    0  0.4784406E-002  0.4523824E+03  0.7546771E-02  0.1027014E+00
         21   -1    0    0  502  501  0.00000000000E+00  0.00000000000E+00  0.69736716406E+02  0.69736716406E+02  0.00000000000E+00 0.  1.
         21   -1    0    0  501  502 -0.00000000000E+00 -0.00000000000E+00 -0.73365154116E+03  0.73365154116E+03  0.00000000000E+00 0.  1.
      99926    2    1    2    0    0  0.00000000000E+00  0.00000000000E+00 -0.66391482475E+03  0.80338825756E+03  0.45238235804E+03 0.  0.
      99925    2    3    3    0    0 -0.85096768078E+02 -0.70657485516E+02 -0.42687128986E+03  0.51343811404E+03  0.26299364753E+03 0.  0.
         25    1    4    4    0    0 -0.63154047739E+02 -0.55852920165E+01 -0.17861641601E+03  0.22709240718E+03  0.12509000000E+03 0.  0.
         25    1    4    4    0    0 -0.21942720339E+02 -0.65072193499E+02 -0.24825487385E+03  0.28634570686E+03  0.12509000000E+03 0.  0.
         25    1    3    3    0    0  0.85096768078E+02  0.70657485516E+02 -0.23704353489E+03  0.28995014352E+03  0.12509000000E+03 0.  0.
<mgrwt>
<rscale>  2 0.45238236E+03</rscale>
<asrwt>0</asrwt>
<pdfrwt beam="1">  1       21 0.10255399E-01 0.45238236E+03</pdfrwt>
<pdfrwt beam="2">  1       21 0.10788994E+00 0.45238236E+03</pdfrwt>
<totfact> 0.48591879E+04</totfact>
</mgrwt>
</event>
<event>
 7    0  0.4784406E-002  0.4448750E+03  0.7546771E-02  0.1029261E+00
         21   -1    0    0  502  501  0.00000000000E+00  0.00000000000E+00  0.33219852275E+03  0.33219852275E+03  0.00000000000E+00 0.  1.
         21   -1    0    0  501  502 -0.00000000000E+00 -0.00000000000E+00 -0.14894237763E+03  0.14894237763E+03  0.00000000000E+00 0.  1.
      99926    2    1    2    0    0  0.00000000000E+00  0.00000000000E+00  0.18325614512E+03  0.48114090038E+03  0.44487498389E+03 0.  0.
      99925    2    3    3    0    0 -0.70865238864E+02 -0.38173323726E+02  0.18680508726E+03  0.33234846840E+03  0.26283127496E+03 0.  0.
         25    1    4    4    0    0 -0.73755440768E+02 -0.10079993929E+02  0.84594476769E+02  0.16836034248E+03  0.12509000000E+03 0.  0.
         25    1    4    4    0    0  0.28902019044E+01 -0.28093329797E+02  0.10221061049E+03  0.16398812592E+03  0.12509000000E+03 0.  0.
         25    1    3    3    0    0  0.70865238864E+02  0.38173323726E+02 -0.35489421352E+01  0.14879243198E+03  0.12509000000E+03 0.  0.
<mgrwt>
<rscale>  2 0.44487498E+03</rscale>
<asrwt>0</asrwt>
<pdfrwt beam="1">  1       21 0.48852724E-01 0.44487498E+03</pdfrwt>
<pdfrwt beam="2">  1       21 0.21903291E-01 0.44487498E+03</pdfrwt>
<totfact> 0.72252277E+04</totfact>
</mgrwt>
</event>
<event>
 7    0  0.4784406E-002  0.4502110E+03  0.7546771E-02  0.1027659E+00
         21   -1    0    0  502  501  0.00000000000E+00  0.00000000000E+00  0.28186222857E+03  0.28186222857E+03  0.00000000000E+00 0. -1.
         21   -1    0    0  501  502 -0.00000000000E+00 -0.00000000000E+00 -0.17977747708E+03  0.17977747708E+03  0.00000000000E+00 0. -1.
      99926    2    1    2    0    0  0.14210854715E-13  0.00000000000E+00  0.10208475149E+03  0.46163970565E+03  0.45021097426E+03 0.  0.
      99925    2    3    3    0    0  0.66420557955E+02  0.85816671136E+02  0.67220325861E+02  0.29240842060E+03  0.26307398326E+03 0.  0.
         25    1    4    4    0    0  0.53405684609E+02  0.59701969499E+02  0.69376549455E+02  0.16394238630E+03  0.12509000000E+03 0.  0.
         25    1    3    3    0    0 -0.66420557955E+02 -0.85816671136E+02  0.34864425630E+02  0.16923128505E+03  0.12509000000E+03 0.  0.
         25    1    4    4    0    0  0.13014873345E+02  0.26114701637E+02 -0.21562235948E+01  0.12846603430E+03  0.12509000000E+03 0.  0.
<mgrwt>
<rscale>  2 0.45021097E+03</rscale>
<asrwt>0</asrwt>
<pdfrwt beam="1">  1       21 0.41450328E-01 0.45021097E+03</pdfrwt>
<pdfrwt beam="2">  1       21 0.26437864E-01 0.45021097E+03</pdfrwt>
<totfact> 0.70711097E+04</totfact>
</mgrwt>
</event>
<event>
 7    0  0.4784406E-002  0.4596753E+03  0.7546771E-02  0.1024875E+00
         21   -1    0    0  502  501  0.00000000000E+00  0.00000000000E+00  0.53323947713E+02  0.53323947713E+02  0.00000000000E+00 0. -1.
         21   -1    0    0  501  502 -0.00000000000E+00 -0.00000000000E+00 -0.99064939406E+03  0.99064939406E+03  0.00000000000E+00 0. -1.
      99926    2    1    2    0    0  0.00000000000E+00  0.00000000000E+00 -0.93732544634E+03  0.10439733418E+04  0.45967526142E+03 0.  0.
      99925    2    3    3    0    0  0.69617647681E+02  0.86779407986E+02 -0.50089499933E+03  0.57653743632E+03  0.26291126376E+03 0.  0.
         25    1    4    4    0    0  0.76063711186E+02  0.42317868016E+02 -0.25748588036E+03  0.29920390505E+03  0.12509000000E+03 0.  0.
         25    1    4    4    0    0 -0.64460635042E+01  0.44461539970E+02 -0.24340911896E+03  0.27733353127E+03  0.12509000000E+03 0.  0.
         25    1    3    3    0    0 -0.69617647681E+02 -0.86779407986E+02 -0.43643044702E+03  0.46743590545E+03  0.12509000000E+03 0.  0.
<mgrwt>
<rscale>  2 0.45967526E+03</rscale>
<asrwt>0</asrwt>
<pdfrwt beam="1">  1       21 0.78417574E-02 0.45967526E+03</pdfrwt>
<pdfrwt beam="2">  1       21 0.14568373E+00 0.45967526E+03</pdfrwt>
<totfact> 0.36161490E+04</totfact>
</mgrwt>
</event>
<event>
 7    0  0.4784406E-002  0.4802554E+03  0.7546771E-02  0.1019065E+00
         21   -1    0    0  502  501  0.00000000000E+00  0.00000000000E+00  0.10888172571E+04  0.10888172571E+04  0.00000000000E+00 0. -1.
         21   -1    0    0  501  502 -0.00000000000E+00 -0.00000000000E+00 -0.52957745661E+02  0.52957745661E+02  0.00000000000E+00 0. -1.
      99926    2    1    2    0    0  0.00000000000E+00  0.00000000000E+00  0.10358595114E+04  0.11417750028E+04  0.48025537945E+03 0.  0.
      99925    2    3    3    0    0 -0.51014038483E+02  0.66050037105E+02  0.89195221362E+03  0.93363596752E+03  0.26293027393E+03 0.  0.
         25    1    3    3    0    0  0.51014038483E+02 -0.66050037105E+02  0.14390729782E+03  0.20813903524E+03  0.12509000000E+03 0.  0.
         25    1    4    4    0    0 -0.29019703598E+02  0.65327530368E+01  0.53209252890E+03  0.54740733231E+03  0.12509000000E+03 0.  0.
         25    1    4    4    0    0 -0.21994334885E+02  0.59517284068E+02  0.35985968472E+03  0.38622863521E+03  0.12509000000E+03 0.  0.
<mgrwt>
<rscale>  2 0.48025538E+03</rscale>
<asrwt>0</asrwt>
<pdfrwt beam="1">  1       21 0.16012017E+00 0.48025538E+03</pdfrwt>
<pdfrwt beam="2">  1       21 0.77879045E-02 0.48025538E+03</pdfrwt>
<totfact> 0.28104510E+04</totfact>
</mgrwt>
</event>
<event>
 7    0  0.4784406E-002  0.4556643E+03  0.7546771E-02  0.1026046E+00
         21   -1    0    0  502  501  0.00000000000E+00  0.00000000000E+00  0.86042353564E+03  0.86042353564E+03  0.00000000000E+00 0. -1.
         21   -1    0    0  501  502 -0.00000000000E+00 -0.00000000000E+00 -0.60327825986E+02  0.60327825986E+02  0.00000000000E+00 0. -1.
      99926    2    1    2    0    0 -0.71054273576E-14 -0.14210854715E-13  0.80009570965E+03  0.92075136163E+03  0.45566426822E+03 0.  0.
      99925    2    3    3    0    0 -0.54033082531E+02 -0.67480508869E+02  0.65232910714E+03  0.70872383982E+03  0.26321668644E+03 0.  0.
         25    1    3    3    0    0  0.54033082531E+02  0.67480508869E+02  0.14776660252E+03  0.21202752181E+03  0.12509000000E+03 0.  0.
         25    1    4    4    0    0 -0.22621398325E+02 -0.64621291847E+02  0.41166571524E+03  0.43566478883E+03  0.12509000000E+03 0.  0.
         25    1    4    4    0    0 -0.31411684207E+02 -0.28592170219E+01  0.24066339190E+03  0.27305905099E+03  0.12509000000E+03 0.  0.
<mgrwt>
<rscale>  2 0.45566427E+03</rscale>
<asrwt>0</asrwt>
<pdfrwt beam="1">  1       21 0.12653287E+00 0.45566427E+03</pdfrwt>
<pdfrwt beam="2">  1       21 0.88717396E-02 0.45566427E+03</pdfrwt>
<totfact> 0.42129170E+04</totfact>
</mgrwt>
</event>
<event>
 7    0  0.4784406E-002  0.4525550E+03  0.7546771E-02  0.1026963E+00
         21   -1    0    0  502  501  0.00000000000E+00  0.00000000000E+00  0.20524154549E+03  0.20524154549E+03  0.00000000000E+00 0.  1.
         21   -1    0    0  501  502 -0.00000000000E+00 -0.00000000000E+00 -0.24946949328E+03  0.24946949328E+03  0.00000000000E+00 0.  1.
      99926    2    1    2    0    0  0.00000000000E+00  0.00000000000E+00 -0.44227947790E+02  0.45471103876E+03  0.45255498827E+03 0.  0.
      99925    2    3    3    0    0 -0.70723824760E+02 -0.27246211427E+02  0.53442130304E+02  0.27883844943E+03  0.26296502460E+03 0.  0.
         25    1    4    4    0    0 -0.40008488342E+02 -0.47770236983E+02  0.49794964109E+02  0.14835673639E+03  0.12509000000E+03 0.  0.
         25    1    3    3    0    0  0.70723824760E+02  0.27246211427E+02 -0.97670078093E+02  0.17587258934E+03  0.12509000000E+03 0.  0.
         25    1    4    4    0    0 -0.30715336418E+02  0.20524025556E+02  0.36471661952E+01  0.13048171304E+03  0.12509000000E+03 0.  0.
<mgrwt>
<rscale>  2 0.45255499E+03</rscale>
<asrwt>0</asrwt>
<pdfrwt beam="1">  1       21 0.30182580E-01 0.45255499E+03</pdfrwt>
<pdfrwt beam="2">  1       21 0.36686690E-01 0.45255499E+03</pdfrwt>
<totfact> 0.69921042E+04</totfact>
</mgrwt>
</event>
<event>
 7    0  0.4784406E-002  0.4683529E+03  0.7546771E-02  0.1022386E+00
         21   -1    0    0  502  501  0.00000000000E+00  0.00000000000E+00  0.44368825851E+03  0.44368825851E+03  0.00000000000E+00 0.  1.
         21   -1    0    0  501  502 -0.00000000000E+00 -0.00000000000E+00 -0.12359715375E+03  0.12359715375E+03  0.00000000000E+00 0.  1.
      99926    2    1    2    0    0  0.35527136788E-14  0.14210854715E-13  0.32009110476E+03  0.56728541226E+03  0.46835288365E+03 0.  0.
      99925    2    3    3    0    0 -0.20938326474E+02  0.11623152337E+03  0.24957889963E+03  0.38136161144E+03  0.26305678284E+03 0.  0.
         25    1    3    3    0    0  0.20938326474E+02 -0.11623152337E+03  0.70512205125E+02  0.18592380082E+03  0.12509000000E+03 0.  0.
         25    1    4    4    0    0  0.26652386382E+02  0.71937553867E+02  0.11463255547E+03  0.18620819593E+03  0.12509000000E+03 0.  0.
         25    1    4    4    0    0 -0.47590712856E+02  0.44293969505E+02  0.13494634416E+03  0.19515341551E+03  0.12509000000E+03 0.  0.
<mgrwt>
<rscale>  2 0.46835288E+03</rscale>
<asrwt>0</asrwt>
<pdfrwt beam="1">  1       21 0.65248273E-01 0.46835288E+03</pdfrwt>
<pdfrwt beam="2">  1       21 0.18176052E-01 0.46835288E+03</pdfrwt>
<totfact> 0.54726144E+04</totfact>
</mgrwt>
</event>
<event>
 7    0  0.4784406E-002  0.4499065E+03  0.7546771E-02  0.1027750E+00
         21   -1    0    0  502  501  0.00000000000E+00  0.00000000000E+00  0.29755765154E+03  0.29755765154E+03  0.00000000000E+00 0.  1.
         21   -1    0    0  501  502 -0.00000000000E+00 -0.00000000000E+00 -0.17006436865E+03  0.17006436865E+03  0.00000000000E+00 0.  1.
      99926    2    1    2    0    0  0.00000000000E+00  0.00000000000E+00  0.12749328289E+03  0.46762202019E+03  0.44990645315E+03 0.  0.
      99925    2    3    3    0    0 -0.28306164775E+02 -0.10300132802E+03  0.99457531646E+02  0.30075673325E+03  0.26296824801E+03 0.  0.
         25    1    4    4    0    0 -0.33299619175E+02 -0.40482980734E+02  0.12955131273E+02  0.13624639405E+03  0.12509000000E+03 0.  0.
         25    1    3    3    0    0  0.28306164775E+02  0.10300132802E+03  0.28035751241E+02  0.16686528694E+03  0.12509000000E+03 0.  0.
         25    1    4    4    0    0  0.49934544008E+01 -0.62518347282E+02  0.86502400373E+02  0.16451033920E+03  0.12509000000E+03 0.  0.
<mgrwt>
<rscale>  2 0.44990645E+03</rscale>
<asrwt>0</asrwt>
<pdfrwt beam="1">  1       21 0.43758478E-01 0.44990645E+03</pdfrwt>
<pdfrwt beam="2">  1       21 0.25009466E-01 0.44990645E+03</pdfrwt>
<totfact> 0.70415732E+04</totfact>
</mgrwt>
</event>
<event>
 7    0  0.4784406E-002  0.4542870E+03  0.7546771E-02  0.1026451E+00
         21   -1    0    0  502  501  0.00000000000E+00  0.00000000000E+00  0.11384934894E+04  0.11384934894E+04  0.00000000000E+00 0.  1.
         21   -1    0    0  501  502 -0.00000000000E+00 -0.00000000000E+00 -0.45317921648E+02  0.45317921648E+02  0.00000000000E+00 0.  1.
      99926    2    1    2    0    0  0.00000000000E+00  0.00000000000E+00  0.10931755678E+04  0.11838114111E+04  0.45428695227E+03 0.  0.
      99925    2    3    3    0    0 -0.36468637459E+02  0.94407270730E+02  0.55979970787E+03  0.62669381997E+03  0.26291963938E+03 0.  0.
         25    1    4    4    0    0 -0.26807362794E+02  0.81692029001E+01  0.22624461595E+03  0.26003750676E+03  0.12509000000E+03 0.  0.
         25    1    3    3    0    0  0.36468637459E+02 -0.94407270730E+02  0.53337585992E+03  0.55711759112E+03  0.12509000000E+03 0.  0.
         25    1    4    4    0    0 -0.96612746653E+01  0.86238067830E+02  0.33355509191E+03  0.36665631321E+03  0.12509000000E+03 0.  0.
<mgrwt>
<rscale>  2 0.45428695E+03</rscale>
<asrwt>0</asrwt>
<pdfrwt beam="1">  1       21 0.16742549E+00 0.45428695E+03</pdfrwt>
<pdfrwt beam="2">  1       21 0.66644010E-02 0.45428695E+03</pdfrwt>
<totfact> 0.32855443E+04</totfact>
</mgrwt>
</event>
<event>
 7    0  0.4784406E-002  0.4931651E+03  0.7546771E-02  0.1015578E+00
         21   -1    0    0  502  501  0.00000000000E+00  0.00000000000E+00  0.14706668772E+03  0.14706668772E+03  0.00000000000E+00 0. -1.
         21   -1    0    0  501  502 -0.00000000000E+00 -0.00000000000E+00 -0.41343793608E+03  0.41343793608E+03  0.00000000000E+00 0. -1.
      99926    2    1    2    0    0  0.00000000000E+00  0.00000000000E+00 -0.26637124836E+03  0.56050462380E+03  0.49316507515E+03 0.  0.
      99925    2    3    3    0    0 -0.73353197909E+02  0.37678204128E+02 -0.25459053099E+02  0.27680313872E+03  0.26300470625E+03 0.  0.
         25    1    3    3    0    0  0.73353197909E+02 -0.37678204128E+02 -0.24091219526E+03  0.28370148508E+03  0.12509000000E+03 0.  0.
         25    1    4    4    0    0  0.32138548162E+01  0.26561409633E+02 -0.21153033525E+02  0.12965645480E+03  0.12509000000E+03 0.  0.
         25    1    4    4    0    0 -0.76567052725E+02  0.11116794495E+02 -0.43060195741E+01  0.14714668392E+03  0.12509000000E+03 0.  0.
<mgrwt>
<rscale>  2 0.49316508E+03</rscale>
<asrwt>0</asrwt>
<pdfrwt beam="1">  1       21 0.21627454E-01 0.49316508E+03</pdfrwt>
<pdfrwt beam="2">  1       21 0.60799696E-01 0.49316508E+03</pdfrwt>
<totfact> 0.45716035E+04</totfact>
</mgrwt>
</event>
<event>
 7    0  0.4784406E-002  0.4554343E+03  0.7546771E-02  0.1026114E+00
         21   -1    0    0  502  501  0.00000000000E+00  0.00000000000E+00  0.45288885519E+03  0.45288885519E+03  0.00000000000E+00 0. -1.
         21   -1    0    0  501  502 -0.00000000000E+00 -0.00000000000E+00 -0.11449850346E+03  0.11449850346E+03  0.00000000000E+00 0. -1.
      99926    2    1    2    0    0  0.00000000000E+00  0.31086244690E-14  0.33839035174E+03  0.56738735865E+03  0.45543428132E+03 0.  0.
      99925    2    3    3    0    0 -0.48687996380E+02 -0.27644293925E+01  0.34072564078E+03  0.43310733506E+03  0.26288750129E+03 0.  0.
         25    1    3    3    0    0  0.48687996380E+02  0.27644293925E+01 -0.23352890422E+01  0.13428002359E+03  0.12509000000E+03 0.  0.
         25    1    4    4    0    0  0.10714443247E+02  0.16435486862E+02  0.18021361062E+03  0.22024844625E+03  0.12509000000E+03 0.  0.
         25    1    4    4    0    0 -0.59402439627E+02 -0.19199916255E+02  0.16051203016E+03  0.21285888881E+03  0.12509000000E+03 0.  0.
<mgrwt>
<rscale>  2 0.45543428E+03</rscale>
<asrwt>0</asrwt>
<pdfrwt beam="1">  1       21 0.66601301E-01 0.45543428E+03</pdfrwt>
<pdfrwt beam="2">  1       21 0.16838015E-01 0.45543428E+03</pdfrwt>
<totfact> 0.60523819E+04</totfact>
</mgrwt>
</event>
<event>
 7    0  0.4784406E-002  0.4566510E+03  0.7546771E-02  0.1025757E+00
         21   -1    0    0  502  501  0.00000000000E+00  0.00000000000E+00  0.64547499376E+02  0.64547499376E+02  0.00000000000E+00 0.  1.
         21   -1    0    0  501  502 -0.00000000000E+00 -0.00000000000E+00 -0.80766147123E+03  0.80766147123E+03  0.00000000000E+00 0.  1.
      99926    2    1    2    0    0  0.00000000000E+00  0.00000000000E+00 -0.74311397185E+03  0.87220897060E+03  0.45665097530E+03 0.  0.
      99925    2    3    3    0    0  0.38134371737E+02 -0.81004511629E+02 -0.33004980654E+03  0.43143071119E+03  0.26302779805E+03 0.  0.
         25    1    4    4    0    0  0.60557897356E+01  0.26897694128E+00 -0.14578065939E+03  0.19218806854E+03  0.12509000000E+03 0.  0.
         25    1    3    3    0    0 -0.38134371737E+02  0.81004511629E+02 -0.41306416530E+03  0.44077825941E+03  0.12509000000E+03 0.  0.
         25    1    4    4    0    0  0.32078582001E+02 -0.81273488570E+02 -0.18426914716E+03  0.23924264265E+03  0.12509000000E+03 0.  0.
<mgrwt>
<rscale>  2 0.45665098E+03</rscale>
<asrwt>0</asrwt>
<pdfrwt beam="1">  1       21 0.94922802E-02 0.45665098E+03</pdfrwt>
<pdfrwt beam="2">  1       21 0.11877373E+00 0.45665098E+03</pdfrwt>
<totfact> 0.43886810E+04</totfact>
</mgrwt>
</event>
<event>
 7    0  0.4784406E-002  0.4537288E+03  0.7546771E-02  0.1026616E+00
         21   -1    0    0  502  501  0.00000000000E+00  0.00000000000E+00  0.22014292184E+02  0.22014292184E+02  0.00000000000E+00 0. -1.
         21   -1    0    0  501  502 -0.00000000000E+00 -0.00000000000E+00 -0.23379111783E+04  0.23379111783E+04  0.00000000000E+00 0. -1.
      99926    2    1    2    0    0  0.00000000000E+00  0.00000000000E+00 -0.23158968861E+04  0.23599254705E+04  0.45372881671E+03 0.  0.
      99925    2    3    3    0    0 -0.72191267978E+02 -0.63337542512E+02 -0.17582382529E+04  0.17803964524E+04  0.26303336367E+03 0.  0.
         25    1    4    4    0    0 -0.67673126954E+02 -0.11374628803E+02 -0.80033161356E+03  0.81294971188E+03  0.12509000000E+03 0.  0.
         25    1    3    3    0    0  0.72191267978E+02  0.63337542512E+02 -0.55765863319E+03  0.57952901803E+03  0.12509000000E+03 0.  0.
         25    1    4    4    0    0 -0.45181410247E+01 -0.51962913709E+02 -0.95790663935E+03  0.96744674056E+03  0.12509000000E+03 0.  0.
<mgrwt>
<rscale>  2 0.45372882E+03</rscale>
<asrwt>0</asrwt>
<pdfrwt beam="1">  1       21 0.32373954E-02 0.45372882E+03</pdfrwt>
<pdfrwt beam="2">  1       21 0.34381052E+00 0.45372882E+03</pdfrwt>
<totfact> 0.87594708E+03</totfact>
</mgrwt>
</event>
<event>
 7    0  0.4784406E-002  0.4725490E+03  0.7546771E-02  0.1021203E+00
         21   -1    0    0  502  501  0.00000000000E+00  0.00000000000E+00  0.16710827970E+04  0.16710827970E+04  0.00000000000E+00 0.  1.
         21   -1    0    0  501  502 -0.00000000000E+00 -0.00000000000E+00 -0.33406860426E+02  0.33406860426E+02  0.00000000000E+00 0.  1.
      99926    2    1    2    0    0  0.00000000000E+00  0.00000000000E+00  0.16376759365E+04  0.17044896574E+04  0.47254895940E+03 0.  0.
      99925    2    3    3    0    0 -0.11791571550E+03  0.18945749774E+02  0.11913607851E+04  0.12258376127E+04  0.26281985276E+03 0.  0.
         25    1    4    4    0    0 -0.94744486771E+02  0.24078968101E+02  0.74160259921E+03  0.75840506178E+03  0.12509000000E+03 0.  0.
         25    1    3    3    0    0  0.11791571550E+03 -0.18945749774E+02  0.44631515143E+03  0.47865204469E+03  0.12509000000E+03 0.  0.
         25    1    4    4    0    0 -0.23171228728E+02 -0.51332183271E+01  0.44975818590E+03  0.46743255091E+03  0.12509000000E+03 0.  0.
<mgrwt>
<rscale>  2 0.47254896E+03</rscale>
<asrwt>0</asrwt>
<pdfrwt beam="1">  1       21 0.24574741E+00 0.47254896E+03</pdfrwt>
<pdfrwt beam="2">  1       21 0.49127747E-02 0.47254896E+03</pdfrwt>
<totfact> 0.16765242E+04</totfact>
</mgrwt>
</event>
<event>
 7    0  0.4784406E-002  0.4600914E+03  0.7546771E-02  0.1024755E+00
         21   -1    0    0  502  501  0.00000000000E+00  0.00000000000E+00  0.38119905777E+03  0.38119905777E+03  0.00000000000E+00 0.  1.
         21   -1    0    0  501  502 -0.00000000000E+00 -0.00000000000E+00 -0.13882779059E+03  0.13882779059E+03  0.00000000000E+00 0.  1.
      99926    2    1    2    0    0 -0.71054273576E-14  0.00000000000E+00  0.24237126717E+03  0.52002684836E+03  0.46009139512E+03 0.  0.
      99925    2    3    3    0    0  0.51341306498E+02 -0.78536229860E+02  0.23253243486E+03  0.36334826056E+03  0.26295770769E+03 0.  0.
         25    1    4    4    0    0  0.49806004004E+02 -0.15386063911E+02  0.14321983210E+03  0.19717199954E+03  0.12509000000E+03 0.  0.
         25    1    3    3    0    0 -0.51341306498E+02  0.78536229860E+02  0.98388323093E+01  0.15667858780E+03  0.12509000000E+03 0.  0.
         25    1    4    4    0    0  0.15353024947E+01 -0.63150165948E+02  0.89312602764E+02  0.16617626102E+03  0.12509000000E+03 0.  0.
<mgrwt>
<rscale>  2 0.46009140E+03</rscale>
<asrwt>0</asrwt>
<pdfrwt beam="1">  1       21 0.56058685E-01 0.46009140E+03</pdfrwt>
<pdfrwt beam="2">  1       21 0.20415852E-01 0.46009140E+03</pdfrwt>
<totfact> 0.61368549E+04</totfact>
</mgrwt>
</event>
<event>
 7    0  0.4784406E-002  0.4612179E+03  0.7546771E-02  0.1024429E+00
         21   -1    0    0  502  501  0.00000000000E+00  0.00000000000E+00  0.67322521667E+03  0.67322521667E+03  0.00000000000E+00 0. -1.
         21   -1    0    0  501  502 -0.00000000000E+00 -0.00000000000E+00 -0.78993600969E+02  0.78993600969E+02  0.00000000000E+00 0. -1.
      99926    2    1    2    0    0  0.00000000000E+00 -0.14210854715E-13  0.59423161570E+03  0.75221881764E+03  0.46121788399E+03 0.  0.
      99925    2    3    3    0    0  0.13208369581E+02  0.11039675606E+03  0.30269474774E+03  0.41605939377E+03  0.26290569423E+03 0.  0.
         25    1    4    4    0    0  0.42198427681E+01  0.95816082365E+02  0.14626066940E+03  0.21503074252E+03  0.12509000000E+03 0.  0.
         25    1    4    4    0    0  0.89885268126E+01  0.14580673697E+02  0.15643407833E+03  0.20102865125E+03  0.12509000000E+03 0.  0.
         25    1    3    3    0    0 -0.13208369581E+02 -0.11039675606E+03  0.29153686797E+03  0.33615942387E+03  0.12509000000E+03 0.  0.
<mgrwt>
<rscale>  2 0.46121788E+03</rscale>
<asrwt>0</asrwt>
<pdfrwt beam="1">  1       21 0.99003705E-01 0.46121788E+03</pdfrwt>
<pdfrwt beam="2">  1       21 0.11616706E-01 0.46121788E+03</pdfrwt>
<totfact> 0.47779814E+04</totfact>
</mgrwt>
</event>
<event>
 7    0  0.4784406E-002  0.4626929E+03  0.7546771E-02  0.1024003E+00
         21   -1    0    0  502  501  0.00000000000E+00  0.00000000000E+00  0.13777096998E+03  0.13777096998E+03  0.00000000000E+00 0.  1.
         21   -1    0    0  501  502 -0.00000000000E+00 -0.00000000000E+00 -0.38847934420E+03  0.38847934420E+03  0.00000000000E+00 0.  1.
      99926    2    1    2    0    0  0.00000000000E+00  0.88817841970E-15 -0.25070837422E+03  0.52625031418E+03  0.46269288332E+03 0.  0.
      99925    2    3    3    0    0  0.58308019396E+02  0.43848381525E+01 -0.27688366292E+03  0.38570955223E+03  0.26208442144E+03 0.  0.
         25    1    3    3    0    0 -0.58308019396E+02 -0.43848381525E+01  0.26175288695E+02  0.14054076195E+03  0.12509000000E+03 0.  0.
         25    1    4    4    0    0  0.19579578097E+02 -0.45386521391E+01 -0.18978270816E+03  0.22818620392E+03  0.12509000000E+03 0.  0.
         25    1    4    4    0    0  0.38728441299E+02  0.89234902915E+01 -0.87100954755E+02  0.15752334831E+03  0.12509000000E+03 0.  0.
<mgrwt>
<rscale>  2 0.46269288E+03</rscale>
<asrwt>0</asrwt>
<pdfrwt beam="1">  1       21 0.20260437E-01 0.46269288E+03</pdfrwt>
<pdfrwt beam="2">  1       21 0.57129315E-01 0.46269288E+03</pdfrwt>
<totfact> 0.59733686E+04</totfact>
</mgrwt>
</event>
<event>
 7    0  0.4784406E-002  0.4615373E+03  0.7546771E-02  0.1024336E+00
         21   -1    0    0  502  501  0.00000000000E+00  0.00000000000E+00  0.64489870192E+03  0.64489870192E+03  0.00000000000E+00 0.  1.
         21   -1    0    0  501  502 -0.00000000000E+00 -0.00000000000E+00 -0.82577573045E+02  0.82577573045E+02  0.00000000000E+00 0.  1.
      99926    2    1    2    0    0  0.17763568394E-14 -0.12212453271E-14  0.56232112887E+03  0.72747627496E+03  0.46153729931E+03 0.  0.
      99925    2    3    3    0    0 -0.11796811293E+02 -0.65778496526E+00  0.16520980468E+03  0.31096155813E+03  0.26317905242E+03 0.  0.
         25    1    4    4    0    0 -0.35539866027E+02  0.79613457337E+01  0.51693236345E+02  0.14016477406E+03  0.12509000000E+03 0.  0.
         25    1    3    3    0    0  0.11796811293E+02  0.65778496526E+00  0.39711132419E+03  0.41651471683E+03  0.12509000000E+03 0.  0.
         25    1    4    4    0    0  0.23743054735E+02 -0.86191306989E+01  0.11351656834E+03  0.17079678407E+03  0.12509000000E+03 0.  0.
<mgrwt>
<rscale>  2 0.46153730E+03</rscale>
<asrwt>0</asrwt>
<pdfrwt beam="1">  1       21 0.94838041E-01 0.46153730E+03</pdfrwt>
<pdfrwt beam="2">  1       21 0.12143761E-01 0.46153730E+03</pdfrwt>
<totfact> 0.48874913E+04</totfact>
</mgrwt>
</event>
<event>
 7    0  0.4784406E-002  0.4567544E+03  0.7546771E-02  0.1025727E+00
         21   -1    0    0  502  501  0.00000000000E+00  0.00000000000E+00  0.86535142505E+02  0.86535142505E+02  0.00000000000E+00 0.  1.
         21   -1    0    0  501  502 -0.00000000000E+00 -0.00000000000E+00 -0.60271644341E+03  0.60271644341E+03  0.00000000000E+00 0.  1.
      99926    2    1    2    0    0  0.00000000000E+00  0.14210854715E-13 -0.51618130090E+03  0.68925158591E+03  0.45675443433E+03 0.  0.
      99925    2    3    3    0    0  0.90424908898E+02  0.69711643439E+02 -0.30957344024E+03  0.42209864550E+03  0.26323976572E+03 0.  0.
         25    1    4    4    0    0  0.59560800307E+02  0.33391060967E+02 -0.10258108422E+03  0.17559282111E+03  0.12509000000E+03 0.  0.
         25    1    4    4    0    0  0.30864108592E+02  0.36320582473E+02 -0.20699235602E+03  0.24650582439E+03  0.12509000000E+03 0.  0.
         25    1    3    3    0    0 -0.90424908898E+02 -0.69711643439E+02 -0.20660786067E+03  0.26715294041E+03  0.12509000000E+03 0.  0.
<mgrwt>
<rscale>  2 0.45675443E+03</rscale>
<asrwt>0</asrwt>
<pdfrwt beam="1">  1       21 0.12725757E-01 0.45675443E+03</pdfrwt>
<pdfrwt beam="2">  1       21 0.88634768E-01 0.45675443E+03</pdfrwt>
<totfact> 0.52758102E+04</totfact>
</mgrwt>
</event>
<event>
 7    0  0.4784406E-002  0.4486918E+03  0.7546771E-02  0.1028113E+00
         21   -1    0    0  502  501  0.00000000000E+00  0.00000000000E+00  0.87327767149E+03  0.87327767149E+03  0.00000000000E+00 0. -1.
         21   -1    0    0  501  502 -0.00000000000E+00 -0.00000000000E+00 -0.57634679089E+02  0.57634679089E+02  0.00000000000E+00 0. -1.
      99926    2    1    2    0    0  0.35527136788E-14  0.00000000000E+00  0.81564299240E+03  0.93091235058E+03  0.44869177996E+03 0.  0.
      99925    2    3    3    0    0 -0.22764116481E+02 -0.68683477697E+02  0.68011420840E+03  0.73279323363E+03  0.26304935218E+03 0.  0.
         25    1    4    4    0    0  0.22957487582E+02 -0.10990710278E+02  0.31344286006E+03  0.33844021122E+03  0.12509000000E+03 0.  0.
         25    1    4    4    0    0 -0.45721604063E+02 -0.57692767419E+02  0.36667134834E+03  0.39435302241E+03  0.12509000000E+03 0.  0.
         25    1    3    3    0    0  0.22764116481E+02  0.68683477697E+02  0.13552878400E+03  0.19811911695E+03  0.12509000000E+03 0.  0.
<mgrwt>
<rscale>  2 0.44869178E+03</rscale>
<asrwt>0</asrwt>
<pdfrwt beam="1">  1       21 0.12842318E+00 0.44869178E+03</pdfrwt>
<pdfrwt beam="2">  1       21 0.84756886E-02 0.44869178E+03</pdfrwt>
<totfact> 0.44057468E+04</totfact>
</mgrwt>
</event>
<event>
 6    0  0.4784406E-002  0.4552229E+03  0.7546771E-02  0.1026176E+00
         21   -1    0    0  502  501  0.00000000000E+00  0.00000000000E+00  0.47185698922E+03  0.47185698922E+03  0.00000000000E+00 0.  1.
         21   -1    0    0  501  502 -0.00000000000E+00 -0.00000000000E+00 -0.10979378314E+03  0.10979378314E+03  0.00000000000E+00 0.  1.
      99926    2    1    2    0    0  0.00000000000E+00  0.00000000000E+00  0.36206320609E+03  0.58165077236E+03  0.45522286386E+03 0.  0.
         25    1    3    3    0    0 -0.71849805022E+02  0.32050563660E+02  0.24317249824E+02  0.14976137637E+03  0.12509000000E+03 0.  0.
         25    1    3    3    0    0  0.61933563225E+02 -0.30734534469E+01  0.19201727443E+03  0.23740967577E+03  0.12509000000E+03 0.  0.
         25    1    3    3    0    0  0.99162417976E+01 -0.28977110213E+02  0.14572868183E+03  0.19447972022E+03  0.12509000000E+03 0.  0.
<mgrwt>
<rscale>  2 0.45522286E+03</rscale>
<asrwt>0</asrwt>
<pdfrwt beam="1">  1       21 0.69390733E-01 0.45522286E+03</pdfrwt>
<pdfrwt beam="2">  1       21 0.16146145E-01 0.45522286E+03</pdfrwt>
<totfact> 0.59716887E+04</totfact>
</mgrwt>
</event>
<event>
 7    0  0.4784406E-002  0.4575513E+03  0.7546771E-02  0.1025494E+00
         21   -1    0    0  502  501  0.00000000000E+00  0.00000000000E+00  0.76431501504E+03  0.76431501504E+03  0.00000000000E+00 0.  1.
         21   -1    0    0  501  502 -0.00000000000E+00 -0.00000000000E+00 -0.68477397604E+02  0.68477397604E+02  0.00000000000E+00 0.  1.
      99926    2    1    2    0    0  0.00000000000E+00  0.00000000000E+00  0.69583761743E+03  0.83279241264E+03  0.45755132250E+03 0.  0.
      99925    2    3    3    0    0  0.96374545886E+02  0.50134278129E+02  0.50862703814E+03  0.58279879665E+03  0.26296667947E+03 0.  0.
         25    1    4    4    0    0  0.60737352276E+02  0.18923019044E+02  0.33811423791E+03  0.36608175670E+03  0.12509000000E+03 0.  0.
         25    1    4    4    0    0  0.35637193610E+02  0.31211259085E+02  0.17051280023E+03  0.21671703995E+03  0.12509000000E+03 0.  0.
         25    1    3    3    0    0 -0.96374545886E+02 -0.50134278129E+02  0.18721057929E+03  0.24999361599E+03  0.12509000000E+03 0.  0.
<mgrwt>
<rscale>  2 0.45755132E+03</rscale>
<asrwt>0</asrwt>
<pdfrwt beam="1">  1       21 0.11239926E+00 0.45755132E+03</pdfrwt>
<pdfrwt beam="2">  1       21 0.10070206E-01 0.45755132E+03</pdfrwt>
<totfact> 0.45305488E+04</totfact>
</mgrwt>
</event>
<event>
 7    0  0.4784406E-002  0.4497198E+03  0.7546771E-02  0.1027806E+00
         21   -1    0    0  502  501  0.00000000000E+00  0.00000000000E+00  0.37063197218E+03  0.37063197218E+03  0.00000000000E+00 0. -1.
         21   -1    0    0  501  502 -0.00000000000E+00 -0.00000000000E+00 -0.13642098673E+03  0.13642098673E+03  0.00000000000E+00 0. -1.
      99926    2    1    2    0    0  0.00000000000E+00  0.00000000000E+00  0.23421098545E+03  0.50705295891E+03  0.44971982104E+03 0.  0.
      99925    2    3    3    0    0 -0.31576132882E+02 -0.76407706523E+02  0.22649851254E+03  0.35691242434E+03  0.26315340142E+03 0.  0.
         25    1    4    4    0    0 -0.28467846415E+02 -0.51415580447E+02  0.69803497981E+02  0.15483545015E+03  0.12509000000E+03 0.  0.
         25    1    4    4    0    0 -0.31082864669E+01 -0.24992126075E+02  0.15669501456E+03  0.20207697419E+03  0.12509000000E+03 0.  0.
         25    1    3    3    0    0  0.31576132882E+02  0.76407706523E+02  0.77124729106E+01  0.15014053457E+03  0.12509000000E+03 0.  0.
<mgrwt>
<rscale>  2 0.44971982E+03</rscale>
<asrwt>0</asrwt>
<pdfrwt beam="1">  1       21 0.54504702E-01 0.44971982E+03</pdfrwt>
<pdfrwt beam="2">  1       21 0.20061910E-01 0.44971982E+03</pdfrwt>
<totfact> 0.67565183E+04</totfact>
</mgrwt>
</event>
<event>
 7    0  0.4784406E-002  0.4717780E+03  0.7546771E-02  0.1021420E+00
         21   -1    0    0  502  501  0.00000000000E+00  0.00000000000E+00  0.58423702976E+03  0.58423702976E+03  0.00000000000E+00 0. -1.
         21   -1    0    0  501  502 -0.00000000000E+00 -0.00000000000E+00 -0.95241508804E+02  0.95241508804E+02  0.00000000000E+00 0. -1.
      99926    2    1    2    0    0  0.00000000000E+00  0.00000000000E+00  0.48899552096E+03  0.67947853857E+03  0.47177798259E+03 0.  0.
      99925    2    3    3    0    0 -0.11823387554E+02  0.10816189883E+03  0.20444552784E+03  0.35015347797E+03  0.26262272451E+03 0.  0.
         25    1    4    4    0    0 -0.17880971469E+01  0.51466973247E+02  0.52535901098E+02  0.14511917734E+03  0.12509000000E+03 0.  0.
         25    1    4    4    0    0 -0.10035290407E+02  0.56694925582E+02  0.15190962674E+03  0.20503430063E+03  0.12509000000E+03 0.  0.
         25    1    3    3    0    0  0.11823387554E+02 -0.10816189883E+03  0.28454999312E+03  0.32932506060E+03  0.12509000000E+03 0.  0.
<mgrwt>
<rscale>  2 0.47177798E+03</rscale>
<asrwt>0</asrwt>
<pdfrwt beam="1">  1       21 0.85917209E-01 0.47177798E+03</pdfrwt>
<pdfrwt beam="2">  1       21 0.14006104E-01 0.47177798E+03</pdfrwt>
<totfact> 0.47440302E+04</totfact>
</mgrwt>
</event>
<event>
 7    0  0.4784406E-002  0.4595297E+03  0.7546771E-02  0.1024918E+00
         21   -1    0    0  502  501  0.00000000000E+00  0.00000000000E+00  0.72288955185E+02  0.72288955185E+02  0.00000000000E+00 0.  1.
         21   -1    0    0  501  502 -0.00000000000E+00 -0.00000000000E+00 -0.73028976315E+03  0.73028976315E+03  0.00000000000E+00 0.  1.
      99926    2    1    2    0    0  0.00000000000E+00  0.00000000000E+00 -0.65800080796E+03  0.80257871833E+03  0.45952968983E+03 0.  0.
      99925    2    3    3    0    0  0.38282694121E+02 -0.98585595647E+02 -0.32338413366E+03  0.43001931212E+03  0.26297267263E+03 0.  0.
         25    1    4    4    0    0  0.13827147622E+02 -0.37931311630E+02 -0.97496116145E+02  0.16365504935E+03  0.12509000000E+03 0.  0.
         25    1    4    4    0    0  0.24455546498E+02 -0.60654284017E+02 -0.22588801751E+03  0.26636426277E+03  0.12509000000E+03 0.  0.
         25    1    3    3    0    0 -0.38282694121E+02  0.98585595647E+02 -0.33461667430E+03  0.37255940621E+03  0.12509000000E+03 0.  0.
<mgrwt>
<rscale>  2 0.45952969E+03</rscale>
<asrwt>0</asrwt>
<pdfrwt beam="1">  1       21 0.10630729E-01 0.45952969E+03</pdfrwt>
<pdfrwt beam="2">  1       21 0.10739555E+00 0.45952969E+03</pdfrwt>
<totfact> 0.45983808E+04</totfact>
</mgrwt>
</event>
<event>
 7    0  0.4784406E-002  0.4554028E+03  0.7546771E-02  0.1026123E+00
         21   -1    0    0  502  501  0.00000000000E+00  0.00000000000E+00  0.17494857325E+02  0.17494857325E+02  0.00000000000E+00 0.  1.
         21   -1    0    0  501  502 -0.00000000000E+00 -0.00000000000E+00 -0.29636095182E+04  0.29636095182E+04  0.00000000000E+00 0.  1.
      99926    2    1    2    0    0  0.22204460493E-15  0.00000000000E+00 -0.29461146608E+04  0.29811043755E+04  0.45540279177E+03 0.  0.
      99925    2    3    3    0    0 -0.14756717200E+01 -0.11333877388E+03 -0.18974527764E+04  0.19189428476E+04  0.26299573868E+03 0.  0.
         25    1    4    4    0    0 -0.80312126452E+01 -0.26254456205E+02 -0.10599154381E+04  0.10676244849E+04  0.12509000000E+03 0.  0.
         25    1    3    3    0    0  0.14756717200E+01  0.11333877388E+03 -0.10486618845E+04  0.10621615279E+04  0.12509000000E+03 0.  0.
         25    1    4    4    0    0  0.65555409252E+01 -0.87084317670E+02 -0.83753733829E+03  0.85131836268E+03  0.12509000000E+03 0.  0.
<mgrwt>
<rscale>  2 0.45540279E+03</rscale>
<asrwt>0</asrwt>
<pdfrwt beam="1">  1       21 0.25727719E-02 0.45540279E+03</pdfrwt>
<pdfrwt beam="2">  1       21 0.43582514E+00 0.45540279E+03</pdfrwt>
<totfact> 0.33433984E+03</totfact>
</mgrwt>
</event>
<event>
 7    0  0.4784406E-002  0.4531788E+03  0.7546771E-02  0.1026778E+00
         21   -1    0    0  502  501  0.00000000000E+00  0.00000000000E+00  0.30920734721E+03  0.30920734721E+03  0.00000000000E+00 0. -1.
         21   -1    0    0  501  502 -0.00000000000E+00 -0.00000000000E+00 -0.16604639320E+03  0.16604639320E+03  0.00000000000E+00 0. -1.
      99926    2    1    2    0    0  0.00000000000E+00  0.00000000000E+00  0.14316095401E+03  0.47525374040E+03  0.45317883778E+03 0.  0.
      99925    2    3    3    0    0  0.17037784460E+02  0.93687674511E+02  0.15113479343E+03  0.31784104501E+03  0.26289453713E+03 0.  0.
         25    1    4    4    0    0  0.44967673963E+02  0.29266989965E+02  0.76564955377E+02  0.15616769479E+03  0.12509000000E+03 0.  0.
         25    1    4    4    0    0 -0.27929889503E+02  0.64420684546E+02  0.74569838057E+02  0.16167335022E+03  0.12509000000E+03 0.  0.
         25    1    3    3    0    0 -0.17037784460E+02 -0.93687674511E+02 -0.79738394232E+01  0.15741269539E+03  0.12509000000E+03 0.  0.
<mgrwt>
<rscale>  2 0.45317884E+03</rscale>
<asrwt>0</asrwt>
<pdfrwt beam="1">  1       21 0.45471669E-01 0.45317884E+03</pdfrwt>
<pdfrwt beam="2">  1       21 0.24418587E-01 0.45317884E+03</pdfrwt>
<totfact> 0.68025132E+04</totfact>
</mgrwt>
</event>
<event>
 7    0  0.4784406E-002  0.4603663E+03  0.7546771E-02  0.1024675E+00
         21   -1    0    0  502  501  0.00000000000E+00  0.00000000000E+00  0.22310964958E+03  0.22310964958E+03  0.00000000000E+00 0.  1.
         21   -1    0    0  501  502 -0.00000000000E+00 -0.00000000000E+00 -0.23748091532E+03  0.23748091532E+03  0.00000000000E+00 0.  1.
      99926    2    1    2    0    0  0.00000000000E+00  0.00000000000E+00 -0.14371265746E+02  0.46059056490E+03  0.46036630545E+03 0.  0.
      99925    2    3    3    0    0  0.89454141001E+02 -0.17080800346E+02  0.64892759896E+02  0.28673979285E+03  0.26403568212E+03 0.  0.
         25    1    4    4    0    0  0.10321073050E+02  0.53463127483E+01  0.57116705852E+01  0.12575865334E+03  0.12509000000E+03 0.  0.
         25    1    3    3    0    0 -0.89454141001E+02  0.17080800346E+02 -0.79264025642E+02  0.17385077205E+03  0.12509000000E+03 0.  0.
         25    1    4    4    0    0  0.79133067951E+02 -0.22427113094E+02  0.59181089311E+02  0.16098113951E+03  0.12509000000E+03 0.  0.
<mgrwt>
<rscale>  2 0.46036631E+03</rscale>
<asrwt>0</asrwt>
<pdfrwt beam="1">  1       21 0.32810243E-01 0.46036631E+03</pdfrwt>
<pdfrwt beam="2">  1       21 0.34923664E-01 0.46036631E+03</pdfrwt>
<totfact> 0.65297209E+04</totfact>
</mgrwt>
</event>
<event>
 7    0  0.4784406E-002  0.4537612E+03  0.7546771E-02  0.1026606E+00
         21   -1    0    0  502  501  0.00000000000E+00  0.00000000000E+00  0.17255294291E+03  0.17255294291E+03  0.00000000000E+00 0. -1.
         21   -1    0    0  501  502 -0.00000000000E+00 -0.00000000000E+00 -0.29831306955E+03  0.29831306955E+03  0.00000000000E+00 0. -1.
      99926    2    1    2    0    0  0.71054273576E-14  0.00000000000E+00 -0.12576012664E+03  0.47086601247E+03  0.45376116212E+03 0.  0.
      99925    2    3    3    0    0  0.45123666993E+02 -0.67178885325E+02 -0.15963275701E+03  0.31807854196E+03  0.26294903268E+03 0.  0.
         25    1    4    4    0    0  0.56318896882E+01 -0.49871642114E+02 -0.42381388075E+02  0.14128902655E+03  0.12509000000E+03 0.  0.
         25    1    3    3    0    0 -0.45123666993E+02  0.67178885325E+02  0.33872630367E+02  0.15278747051E+03  0.12509000000E+03 0.  0.
         25    1    4    4    0    0  0.39491777305E+02 -0.17307243211E+02 -0.11725136893E+03  0.17678951541E+03  0.12509000000E+03 0.  0.
<mgrwt>
<rscale>  2 0.45376116E+03</rscale>
<asrwt>0</asrwt>
<pdfrwt beam="1">  1       21 0.25375433E-01 0.45376116E+03</pdfrwt>
<pdfrwt beam="2">  1       21 0.43869569E-01 0.45376116E+03</pdfrwt>
<totfact> 0.68037627E+04</totfact>
</mgrwt>
</event>
<event>
 7    0  0.4784406E-002  0.4490732E+03  0.7546771E-02  0.1027999E+00
         21   -1    0    0  502  501  0.00000000000E+00  0.00000000000E+00  0.69222790223E+02  0.69222790223E+02  0.00000000000E+00 0.  1.
         21   -1    0    0  501  502 -0.00000000000E+00 -0.00000000000E+00 -0.72832505626E+03  0.72832505626E+03  0.00000000000E+00 0.  1.
      99926    2    1    2    0    0  0.44408920985E-15  0.00000000000E+00 -0.65910226604E+03  0.79754784648E+03  0.44907323494E+03 0.  0.
      99925    2    3    3    0    0 -0.38721946806E+01  0.16214458041E+02 -0.22856547746E+03  0.34889727314E+03  0.26307646641E+03 0.  0.
         25    1    4    4    0    0 -0.44924360663E+01  0.30976011015E+02 -0.15997543199E+03  0.20547345858E+03  0.12509000000E+03 0.  0.
         25    1    3    3    0    0  0.38721946806E+01 -0.16214458041E+02 -0.43053678858E+03  0.44865057334E+03  0.12509000000E+03 0.  0.
         25    1    4    4    0    0  0.62024138575E+00 -0.14761552974E+02 -0.68590045465E+02  0.14342381456E+03  0.12509000000E+03 0.  0.
<mgrwt>
<rscale>  2 0.44907323E+03</rscale>
<asrwt>0</asrwt>
<pdfrwt beam="1">  1       21 0.10179822E-01 0.44907323E+03</pdfrwt>
<pdfrwt beam="2">  1       21 0.10710663E+00 0.44907323E+03</pdfrwt>
<totfact> 0.50177156E+04</totfact>
</mgrwt>
</event>
<event>
 7    0  0.4784406E-002  0.4517489E+03  0.7546771E-02  0.1027202E+00
         21   -1    0    0  502  501  0.00000000000E+00  0.00000000000E+00  0.34302115160E+03  0.34302115160E+03  0.00000000000E+00 0. -1.
         21   -1    0    0  501  502 -0.00000000000E+00 -0.00000000000E+00 -0.14873506429E+03  0.14873506429E+03  0.00000000000E+00 0. -1.
      99926    2    1    2    0    0  0.00000000000E+00  0.00000000000E+00  0.19428608731E+03  0.49175621589E+03  0.45174892600E+03 0.  0.
      99925    2    3    3    0    0  0.70142584983E+02  0.76929168742E+02  0.83773459260E+02  0.29503654658E+03  0.26304085636E+03 0.  0.
         25    1    4    4    0    0  0.45775226297E+02  0.55509660015E+02  0.81621569953E+02  0.16578987448E+03  0.12509000000E+03 0.  0.
         25    1    3    3    0    0 -0.70142584983E+02 -0.76929168742E+02  0.11051262805E+03  0.19671966930E+03  0.12509000000E+03 0.  0.
         25    1    4    4    0    0  0.24367358686E+02  0.21419508727E+02  0.21518893073E+01  0.12924667211E+03  0.12509000000E+03 0.  0.
<mgrwt>
<rscale>  2 0.45174893E+03</rscale>
<asrwt>0</asrwt>
<pdfrwt beam="1">  1       21 0.50444287E-01 0.45174893E+03</pdfrwt>
<pdfrwt beam="2">  1       21 0.21872804E-01 0.45174893E+03</pdfrwt>
<totfact> 0.67581212E+04</totfact>
</mgrwt>
</event>
<event>
 7    0  0.4784406E-002  0.4501402E+03  0.7546771E-02  0.1027680E+00
         21   -1    0    0  502  501  0.00000000000E+00  0.00000000000E+00  0.12233100603E+04  0.12233100603E+04  0.00000000000E+00 0. -1.
         21   -1    0    0  501  502 -0.00000000000E+00 -0.00000000000E+00 -0.41409410085E+02  0.41409410085E+02  0.00000000000E+00 0. -1.
      99926    2    1    2    0    0 -0.71054273576E-14  0.00000000000E+00  0.11819006502E+04  0.12647194703E+04  0.45014019126E+03 0.  0.
      99925    2    3    3    0    0  0.58599884776E+02  0.50951992208E+02  0.96014264166E+03  0.99853499588E+03  0.26299846702E+03 0.  0.
         25    1    4    4    0    0  0.33091205387E+02  0.13944950762E+02  0.33442652077E+03  0.35885665024E+03  0.12509000000E+03 0.  0.
         25    1    3    3    0    0 -0.58599884776E+02 -0.50951992208E+02  0.22175800851E+03  0.26618447446E+03  0.12509000000E+03 0.  0.
         25    1    4    4    0    0  0.25508679389E+02  0.37007041446E+02  0.62571612089E+03  0.63967834564E+03  0.12509000000E+03 0.  0.
<mgrwt>
<rscale>  2 0.45014019E+03</rscale>
<asrwt>0</asrwt>
<pdfrwt beam="1">  1       21 0.17989852E+00 0.45014019E+03</pdfrwt>
<pdfrwt beam="2">  1       21 0.60896199E-02 0.45014019E+03</pdfrwt>
<totfact> 0.31324777E+04</totfact>
</mgrwt>
</event>
<event>
 7    0  0.4784406E-002  0.4584595E+03  0.7546771E-02  0.1025229E+00
         21   -1    0    0  502  501  0.00000000000E+00  0.00000000000E+00  0.60018154829E+02  0.60018154829E+02  0.00000000000E+00 0.  1.
         21   -1    0    0  501  502 -0.00000000000E+00 -0.00000000000E+00 -0.87550625434E+03  0.87550625434E+03  0.00000000000E+00 0.  1.
      99926    2    1    2    0    0  0.00000000000E+00  0.31086244690E-14 -0.81548809951E+03  0.93552440917E+03  0.45845946354E+03 0.  0.
      99925    2    3    3    0    0 -0.31560134402E+02  0.27039198380E+01 -0.74003785115E+03  0.78604664713E+03  0.26307785362E+03 0.  0.
         25    1    4    4    0    0 -0.26716978484E+01 -0.31103012419E+02 -0.30297651758E+03  0.32926708559E+03  0.12509000000E+03 0.  0.
         25    1    4    4    0    0 -0.28888436553E+02  0.33806932257E+02 -0.43706133357E+03  0.45677956154E+03  0.12509000000E+03 0.  0.
         25    1    3    3    0    0  0.31560134402E+02 -0.27039198380E+01 -0.75450248359E+02  0.14947776204E+03  0.12509000000E+03 0.  0.
<mgrwt>
<rscale>  2 0.45845946E+03</rscale>
<asrwt>0</asrwt>
<pdfrwt beam="1">  1       21 0.88261997E-02 0.45845946E+03</pdfrwt>
<pdfrwt beam="2">  1       21 0.12875091E+00 0.45845946E+03</pdfrwt>
<totfact> 0.40622299E+04</totfact>
</mgrwt>
</event>
<event>
 7    0  0.4784406E-002  0.4022417E+03  0.7546771E-02  0.1043006E+00
         21   -1    0    0  502  501  0.00000000000E+00  0.00000000000E+00  0.29879933016E+03  0.29879933016E+03  0.00000000000E+00 0. -1.
         21   -1    0    0  501  502 -0.00000000000E+00 -0.00000000000E+00 -0.13537376105E+03  0.13537376105E+03  0.00000000000E+00 0. -1.
      99926    2    1    2    0    0  0.00000000000E+00 -0.35527136788E-14  0.16342556910E+03  0.43417309121E+03  0.40224166429E+03 0.  0.
      99925    2    3    3    0    0  0.17081117519E+02 -0.12826041647E+02  0.60343325705E+02  0.27068080111E+03  0.26300286540E+03 0.  0.
         25    1    4    4    0    0 -0.13971412419E+02 -0.32625233056E+02  0.83379338317E+01  0.13029441829E+03  0.12509000000E+03 0.  0.
         25    1    4    4    0    0  0.31052529938E+02  0.19799191410E+02  0.52005391873E+02  0.14038638282E+03  0.12509000000E+03 0.  0.
         25    1    3    3    0    0 -0.17081117519E+02  0.12826041647E+02  0.10308224340E+03  0.16349229010E+03  0.12509000000E+03 0.  0.
<mgrwt>
<rscale>  2 0.40224166E+03</rscale>
<asrwt>0</asrwt>
<pdfrwt beam="1">  1       21 0.43941078E-01 0.40224166E+03</pdfrwt>
<pdfrwt beam="2">  1       21 0.19907906E-01 0.40224166E+03</pdfrwt>
<totfact> 0.10925801E+05</totfact>
</mgrwt>
</event>
<event>
 7    0  0.4784406E-002  0.4553628E+03  0.7546771E-02  0.1026135E+00
         21   -1    0    0  502  501  0.00000000000E+00  0.00000000000E+00  0.19061185285E+03  0.19061185285E+03  0.00000000000E+00 0. -1.
         21   -1    0    0  501  502 -0.00000000000E+00 -0.00000000000E+00 -0.27196010297E+03  0.27196010297E+03  0.00000000000E+00 0. -1.
      99926    2    1    2    0    0  0.14210854715E-13 -0.71054273576E-14 -0.81348250121E+02  0.46257195583E+03  0.45536279659E+03 0.  0.
      99925    2    3    3    0    0  0.10870053725E+03 -0.32136559134E+02 -0.45483564086E+02  0.28999632303E+03  0.26302195257E+03 0.  0.
         25    1    4    4    0    0  0.35631102919E+02 -0.29266611176E+01 -0.56426991591E+02  0.14180851286E+03  0.12509000000E+03 0.  0.
         25    1    4    4    0    0  0.73069434333E+02 -0.29209898016E+02  0.10943427505E+02  0.14818781016E+03  0.12509000000E+03 0.  0.
         25    1    3    3    0    0 -0.10870053725E+03  0.32136559134E+02 -0.35864686035E+02  0.17257563280E+03  0.12509000000E+03 0.  0.
<mgrwt>
<rscale>  2 0.45536280E+03</rscale>
<asrwt>0</asrwt>
<pdfrwt beam="1">  1       21 0.28031155E-01 0.45536280E+03</pdfrwt>
<pdfrwt beam="2">  1       21 0.39994133E-01 0.45536280E+03</pdfrwt>
<totfact> 0.67795003E+04</totfact>
</mgrwt>
</event>
<event>
 7    0  0.4784406E-002  0.4538763E+03  0.7546771E-02  0.1026572E+00
         21   -1    0    0  502  501  0.00000000000E+00  0.00000000000E+00  0.33261336298E+03  0.33261336298E+03  0.00000000000E+00 0.  1.
         21   -1    0    0  501  502 -0.00000000000E+00 -0.00000000000E+00 -0.15483720276E+03  0.15483720276E+03  0.00000000000E+00 0.  1.
      99926    2    1    2    0    0  0.00000000000E+00  0.00000000000E+00  0.17777616021E+03  0.48745056574E+03  0.45387629471E+03 0.  0.
      99925    2    3    3    0    0  0.42494796322E+02  0.10001318958E+03  0.83105746666E+02  0.29661440274E+03  0.26318262287E+03 0.  0.
         25    1    3    3    0    0 -0.42494796322E+02 -0.10001318958E+03  0.94670413548E+02  0.19083616299E+03  0.12509000000E+03 0.  0.
         25    1    4    4    0    0 -0.18635243042E+02  0.40641117869E+02  0.29783457150E+02  0.13613792699E+03  0.12509000000E+03 0.  0.
         25    1    4    4    0    0  0.61130039365E+02  0.59372071710E+02  0.53322289516E+02  0.16047647576E+03  0.12509000000E+03 0.  0.
<mgrwt>
<rscale>  2 0.45387629E+03</rscale>
<asrwt>0</asrwt>
<pdfrwt beam="1">  1       21 0.48913730E-01 0.45387629E+03</pdfrwt>
<pdfrwt beam="2">  1       21 0.22770177E-01 0.45387629E+03</pdfrwt>
<totfact> 0.66755140E+04</totfact>
</mgrwt>
</event>
<event>
 7    0  0.4784406E-002  0.4568764E+03  0.7546771E-02  0.1025691E+00
         21   -1    0    0  502  501  0.00000000000E+00  0.00000000000E+00  0.22497726689E+04  0.22497726689E+04  0.00000000000E+00 0.  1.
         21   -1    0    0  501  502 -0.00000000000E+00 -0.00000000000E+00 -0.23195237950E+02  0.23195237950E+02  0.00000000000E+00 0.  1.
      99926    2    1    2    0    0  0.00000000000E+00  0.00000000000E+00  0.22265774310E+04  0.22729679069E+04  0.45687640512E+03 0.  0.
      99925    2    3    3    0    0  0.10607197086E+02 -0.52469900771E+02  0.19044461329E+04  0.19232799254E+04  0.26310643293E+03 0.  0.
         25    1    3    3    0    0 -0.10607197086E+02  0.52469900771E+02  0.32213129806E+03  0.34968798150E+03  0.12509000000E+03 0.  0.
         25    1    4    4    0    0 -0.13337633194E+02  0.79613935332E+01  0.10001128398E+04  0.10080250377E+04  0.12509000000E+03 0.  0.
         25    1    4    4    0    0  0.23944830280E+02 -0.60431294304E+02  0.90433329316E+03  0.91525488769E+03  0.12509000000E+03 0.  0.
<mgrwt>
<rscale>  2 0.45687641E+03</rscale>
<asrwt>0</asrwt>
<pdfrwt beam="1">  1       21 0.33084877E+00 0.45687641E+03</pdfrwt>
<pdfrwt beam="2">  1       21 0.34110659E-02 0.45687641E+03</pdfrwt>
<totfact> 0.96022914E+03</totfact>
</mgrwt>
</event>
<event>
 7    0  0.4784406E-002  0.4846169E+03  0.7546771E-02  0.1017874E+00
         21   -1    0    0  502  501  0.00000000000E+00  0.00000000000E+00  0.47998600405E+03  0.47998600405E+03  0.00000000000E+00 0. -1.
         21   -1    0    0  501  502 -0.00000000000E+00 -0.00000000000E+00 -0.12232313733E+03  0.12232313733E+03  0.00000000000E+00 0. -1.
      99926    2    1    2    0    0  0.00000000000E+00  0.00000000000E+00  0.35766286671E+03  0.60230914138E+03  0.48461693693E+03 0.  0.
      99925    2    3    3    0    0 -0.90976429461E+02 -0.89643380633E+02  0.15104572600E+03  0.32908616038E+03  0.26300236349E+03 0.  0.
         25    1    4    4    0    0 -0.26380463182E+02 -0.35385946766E+02  0.11105318913E+03  0.17299830341E+03  0.12509000000E+03 0.  0.
         25    1    3    3    0    0  0.90976429461E+02  0.89643380633E+02  0.20661714071E+03  0.27322298100E+03  0.12509000000E+03 0.  0.
         25    1    4    4    0    0 -0.64595966279E+02 -0.54257433867E+02  0.39992536871E+02  0.15608785697E+03  0.12509000000E+03 0.  0.
<mgrwt>
<rscale>  2 0.48461694E+03</rscale>
<asrwt>0</asrwt>
<pdfrwt beam="1">  1       21 0.70586177E-01 0.48461694E+03</pdfrwt>
<pdfrwt beam="2">  1       21 0.17988697E-01 0.48461694E+03</pdfrwt>
<totfact> 0.46627607E+04</totfact>
</mgrwt>
</event>
<event>
 7    0  0.4784406E-002  0.4572203E+03  0.7546771E-02  0.1025590E+00
         21   -1    0    0  502  501  0.00000000000E+00  0.00000000000E+00  0.63669577221E+03  0.63669577221E+03  0.00000000000E+00 0.  1.
         21   -1    0    0  501  502 -0.00000000000E+00 -0.00000000000E+00 -0.82084108486E+02  0.82084108486E+02  0.00000000000E+00 0.  1.
      99926    2    1    2    0    0  0.00000000000E+00 -0.14210854715E-13  0.55461166372E+03  0.71877988070E+03  0.45722031818E+03 0.  0.
      99925    2    3    3    0    0 -0.40115472280E+02 -0.10592126049E+03  0.38235624305E+03  0.47764091124E+03  0.26289918019E+03 0.  0.
         25    1    3    3    0    0  0.40115472280E+02  0.10592126049E+03  0.17225542067E+03  0.24113896946E+03  0.12509000000E+03 0.  0.
         25    1    4    4    0    0  0.19543482949E+02 -0.45561700523E+02  0.16545147969E+03  0.21325927064E+03  0.12509000000E+03 0.  0.
         25    1    4    4    0    0 -0.59658955229E+02 -0.60359559969E+02  0.21690476336E+03  0.26438164060E+03  0.12509000000E+03 0.  0.
<mgrwt>
<rscale>  2 0.45722032E+03</rscale>
<asrwt>0</asrwt>
<pdfrwt beam="1">  1       21 0.93631729E-01 0.45722032E+03</pdfrwt>
<pdfrwt beam="2">  1       21 0.12071193E-01 0.45722032E+03</pdfrwt>
<totfact> 0.50998671E+04</totfact>
</mgrwt>
</event>
<event>
 7    0  0.4784406E-002  0.4410972E+03  0.7546771E-02  0.1030411E+00
         21   -1    0    0  502  501  0.00000000000E+00  0.00000000000E+00  0.15192879612E+04  0.15192879612E+04  0.00000000000E+00 0. -1.
         21   -1    0    0  501  502 -0.00000000000E+00 -0.00000000000E+00 -0.32016107820E+02  0.32016107820E+02  0.00000000000E+00 0. -1.
      99926    2    1    2    0    0  0.71054273576E-14  0.14210854715E-13  0.14872718534E+04  0.15513040691E+04  0.44109721004E+03 0.  0.
      99925    2    3    3    0    0 -0.46847735272E+02 -0.85560962767E+02  0.88000564903E+03  0.92366154362E+03  0.26310704320E+03 0.  0.
         25    1    3    3    0    0  0.46847735272E+02  0.85560962767E+02  0.60726620440E+03  0.62764252545E+03  0.12509000000E+03 0.  0.
         25    1    4    4    0    0 -0.46956602870E+02 -0.46866152645E+02  0.34631162808E+03  0.37413982768E+03  0.12509000000E+03 0.  0.
         25    1    4    4    0    0  0.10886759815E+00 -0.38694810122E+02  0.53369402095E+03  0.54952171593E+03  0.12509000000E+03 0.  0.
<mgrwt>
<rscale>  2 0.44109721E+03</rscale>
<asrwt>0</asrwt>
<pdfrwt beam="1">  1       21 0.22342465E+00 0.44109721E+03</pdfrwt>
<pdfrwt beam="2">  1       21 0.47082522E-02 0.44109721E+03</pdfrwt>
<totfact> 0.25158154E+04</totfact>
</mgrwt>
</event>
<event>
 7    0  0.4784406E-002  0.4437275E+03  0.7546771E-02  0.1029609E+00
         21   -1    0    0  502  501  0.00000000000E+00  0.00000000000E+00  0.52706467430E+03  0.52706467430E+03  0.00000000000E+00 0.  1.
         21   -1    0    0  501  502 -0.00000000000E+00 -0.00000000000E+00 -0.93391820247E+02  0.93391820247E+02  0.00000000000E+00 0.  1.
      99926    2    1    2    0    0  0.00000000000E+00  0.00000000000E+00  0.43367285405E+03  0.62045649455E+03  0.44372752595E+03 0.  0.
      99925    2    3    3    0    0 -0.38494868815E+02 -0.89489942957E+02  0.31928990433E+03  0.42495388049E+03  0.26296283525E+03 0.  0.
         25    1    3    3    0    0  0.38494868815E+02  0.89489942957E+02  0.11438294972E+03  0.19550261406E+03  0.12509000000E+03 0.  0.
         25    1    4    4    0    0 -0.57566157279E+02 -0.31650424607E+02  0.16255867887E+03  0.21537976696E+03  0.12509000000E+03 0.  0.
         25    1    4    4    0    0  0.19071288463E+02 -0.57839518350E+02  0.15673122546E+03  0.20957411353E+03  0.12509000000E+03 0.  0.
<mgrwt>
<rscale>  2 0.44372753E+03</rscale>
<asrwt>0</asrwt>
<pdfrwt beam="1">  1       21 0.77509510E-01 0.44372753E+03</pdfrwt>
<pdfrwt beam="2">  1       21 0.13734091E-01 0.44372753E+03</pdfrwt>
<totfact> 0.62846094E+04</totfact>
</mgrwt>
</event>
<event>
 7    0  0.4784406E-002  0.4507116E+03  0.7546771E-02  0.1027510E+00
         21   -1    0    0  502  501  0.00000000000E+00  0.00000000000E+00  0.92661165636E+03  0.92661165636E+03  0.00000000000E+00 0.  1.
         21   -1    0    0  501  502 -0.00000000000E+00 -0.00000000000E+00 -0.54807457662E+02  0.54807457662E+02  0.00000000000E+00 0.  1.
      99926    2    1    2    0    0  0.00000000000E+00  0.00000000000E+00  0.87180419869E+03  0.98141911402E+03  0.45071156686E+03 0.  0.
      99925    2    3    3    0    0  0.79819559633E+02  0.36231437047E+02  0.69267231576E+03  0.74600539582E+03  0.26276459893E+03 0.  0.
         25    1    4    4    0    0  0.23130112897E+02  0.45950161226E+02  0.27967936513E+03  0.31066778851E+03  0.12509000000E+03 0.  0.
         25    1    3    3    0    0 -0.79819559633E+02 -0.36231437047E+02  0.17913188294E+03  0.23541371820E+03  0.12509000000E+03 0.  0.
         25    1    4    4    0    0  0.56689446735E+02 -0.97187241785E+01  0.41299295063E+03  0.43533760731E+03  0.12509000000E+03 0.  0.
<mgrwt>
<rscale>  2 0.45071157E+03</rscale>
<asrwt>0</asrwt>
<pdfrwt beam="1">  1       21 0.13626641E+00 0.45071157E+03</pdfrwt>
<pdfrwt beam="2">  1       21 0.80599208E-02 0.45071157E+03</pdfrwt>
<totfact> 0.41259714E+04</totfact>
</mgrwt>
</event>
<event>
 7    0  0.4784406E-002  0.4324413E+03  0.7546771E-02  0.1033092E+00
         21   -1    0    0  502  501  0.00000000000E+00  0.00000000000E+00  0.11572915483E+04  0.11572915483E+04  0.00000000000E+00 0.  1.
         21   -1    0    0  501  502 -0.00000000000E+00 -0.00000000000E+00 -0.40397226067E+02  0.40397226067E+02  0.00000000000E+00 0.  1.
      99926    2    1    2    0    0  0.44408920985E-15  0.00000000000E+00  0.11168943222E+04  0.11976887743E+04  0.43244129452E+03 0.  0.
      99925    2    3    3    0    0  0.13130117397E+01 -0.88212785836E+02  0.66215007473E+03  0.71787312401E+03  0.26289899417E+03 0.  0.
         25    1    4    4    0    0 -0.11106615579E+02 -0.63948353511E+02  0.43336252455E+03  0.45570092672E+03  0.12509000000E+03 0.  0.
         25    1    4    4    0    0  0.12419627318E+02 -0.24264432326E+02  0.22878755018E+03  0.26217219730E+03  0.12509000000E+03 0.  0.
         25    1    3    3    0    0 -0.13130117397E+01  0.88212785836E+02  0.45474424748E+03  0.47981565033E+03  0.12509000000E+03 0.  0.
<mgrwt>
<rscale>  2 0.43244129E+03</rscale>
<asrwt>0</asrwt>
<pdfrwt beam="1">  1       21 0.17018991E+00 0.43244129E+03</pdfrwt>
<pdfrwt beam="2">  1       21 0.59407693E-02 0.43244129E+03</pdfrwt>
<totfact> 0.38574253E+04</totfact>
</mgrwt>
</event>
<event>
 7    0  0.4784406E-002  0.4555296E+03  0.7546771E-02  0.1026086E+00
         21   -1    0    0  502  501  0.00000000000E+00  0.00000000000E+00  0.15291215068E+03  0.15291215068E+03  0.00000000000E+00 0.  1.
         21   -1    0    0  501  502 -0.00000000000E+00 -0.00000000000E+00 -0.33925885918E+03  0.33925885918E+03  0.00000000000E+00 0.  1.
      99926    2    1    2    0    0  0.14210854715E-13  0.00000000000E+00 -0.18634670851E+03  0.49217100986E+03  0.45552958979E+03 0.  0.
      99925    2    3    3    0    0  0.86397766598E+02 -0.39947372150E+02 -0.18445099526E+03  0.33497219166E+03  0.26291411700E+03 0.  0.
         25    1    3    3    0    0 -0.86397766598E+02  0.39947372150E+02 -0.18957132514E+01  0.15719881820E+03  0.12509000000E+03 0.  0.
         25    1    4    4    0    0  0.75912170668E+02 -0.58041485867E+01 -0.72778036907E+02  0.16352521687E+03  0.12509000000E+03 0.  0.
         25    1    4    4    0    0  0.10485595930E+02 -0.34143223563E+02 -0.11167295835E+03  0.17144697479E+03  0.12509000000E+03 0.  0.
<mgrwt>
<rscale>  2 0.45552959E+03</rscale>
<asrwt>0</asrwt>
<pdfrwt beam="1">  1       21 0.22487081E-01 0.45552959E+03</pdfrwt>
<pdfrwt beam="2">  1       21 0.49891008E-01 0.45552959E+03</pdfrwt>
<totfact> 0.65548228E+04</totfact>
</mgrwt>
</event>
<event>
 7    0  0.4784406E-002  0.4549251E+03  0.7546771E-02  0.1026263E+00
         21   -1    0    0  502  501  0.00000000000E+00  0.00000000000E+00  0.25621459431E+03  0.25621459431E+03  0.00000000000E+00 0. -1.
         21   -1    0    0  501  502 -0.00000000000E+00 -0.00000000000E+00 -0.20193699822E+03  0.20193699822E+03  0.00000000000E+00 0. -1.
      99926    2    1    2    0    0 -0.14210854715E-13  0.00000000000E+00  0.54277596091E+02  0.45815159254E+03  0.45492507549E+03 0.  0.
      99925    2    3    3    0    0  0.79861967043E+02 -0.39005995990E+02 -0.36402852768E+02  0.27991059442E+03  0.26291704334E+03 0.  0.
         25    1    4    4    0    0  0.80311794084E+02 -0.21541596481E+02 -0.77942931077E+01  0.15040706018E+03  0.12509000000E+03 0.  0.
         25    1    3    3    0    0 -0.79861967043E+02  0.39005995990E+02  0.90680448859E+02  0.17824099811E+03  0.12509000000E+03 0.  0.
         25    1    4    4    0    0 -0.44982704080E+00 -0.17464399510E+02 -0.28608559660E+02  0.12950353424E+03  0.12509000000E+03 0.  0.
<mgrwt>
<rscale>  2 0.45492508E+03</rscale>
<asrwt>0</asrwt>
<pdfrwt beam="1">  1       21 0.37678617E-01 0.45492508E+03</pdfrwt>
<pdfrwt beam="2">  1       21 0.29696617E-01 0.45492508E+03</pdfrwt>
<totfact> 0.68356262E+04</totfact>
</mgrwt>
</event>
<event>
 7    0  0.4784406E-002  0.4549332E+03  0.7546771E-02  0.1026261E+00
         21   -1    0    0  502  501  0.00000000000E+00  0.00000000000E+00  0.29697520659E+02  0.29697520659E+02  0.00000000000E+00 0.  1.
         21   -1    0    0  501  502 -0.00000000000E+00 -0.00000000000E+00 -0.17422683832E+04  0.17422683832E+04  0.00000000000E+00 0.  1.
      99926    2    1    2    0    0  0.00000000000E+00 -0.15543122345E-14 -0.17125708625E+04  0.17719659039E+04  0.45493318764E+03 0.  0.
      99925    2    3    3    0    0  0.32391498475E+01 -0.60252231317E+00 -0.15173406143E+04  0.15400753843E+04  0.26362624006E+03 0.  0.
         25    1    4    4    0    0  0.13359707785E+02 -0.35822248817E+02 -0.86570725480E+03  0.87553313725E+03  0.12509000000E+03 0.  0.
         25    1    4    4    0    0 -0.10120557937E+02  0.35219726504E+02 -0.65163335950E+03  0.66454224707E+03  0.12509000000E+03 0.  0.
         25    1    3    3    0    0 -0.32391498475E+01  0.60252231317E+00 -0.19523024823E+03  0.23189051953E+03  0.12509000000E+03 0.  0.
<mgrwt>
<rscale>  2 0.45493319E+03</rscale>
<asrwt>0</asrwt>
<pdfrwt beam="1">  1       21 0.43672826E-02 0.45493319E+03</pdfrwt>
<pdfrwt beam="2">  1       21 0.25621593E+00 0.45493319E+03</pdfrwt>
<totfact> 0.17813623E+04</totfact>
</mgrwt>
</event>
<event>
 7    0  0.4784406E-002  0.4556606E+03  0.7546771E-02  0.1026047E+00
         21   -1    0    0  502  501  0.00000000000E+00  0.00000000000E+00  0.17093946667E+04  0.17093946667E+04  0.00000000000E+00 0. -1.
         21   -1    0    0  501  502 -0.00000000000E+00 -0.00000000000E+00 -0.30365513262E+02  0.30365513262E+02  0.00000000000E+00 0. -1.
      99926    2    1    2    0    0  0.71054273576E-14  0.00000000000E+00  0.16790291534E+04  0.17397601799E+04  0.45566060361E+03 0.  0.
      99925    2    3    3    0    0  0.42694441204E+02 -0.86232549033E+02  0.12877408307E+04  0.13178443976E+04  0.26301813876E+03 0.  0.
         25    1    3    3    0    0 -0.42694441204E+02  0.86232549033E+02  0.39128832266E+03  0.42191578233E+03  0.12509000000E+03 0.  0.
         25    1    4    4    0    0  0.32836121695E+01 -0.17128966530E+02  0.72423861677E+03  0.73516886885E+03  0.12509000000E+03 0.  0.
         25    1    4    4    0    0  0.39410829035E+02 -0.69103582503E+02  0.56350221397E+03  0.58267552876E+03  0.12509000000E+03 0.  0.
<mgrwt>
<rscale>  2 0.45566060E+03</rscale>
<asrwt>0</asrwt>
<pdfrwt beam="1">  1       21 0.25138150E+00 0.45566060E+03</pdfrwt>
<pdfrwt beam="2">  1       21 0.44655178E-02 0.45566060E+03</pdfrwt>
<totfact> 0.18351916E+04</totfact>
</mgrwt>
</event>
<event>
 7    0  0.4784406E-002  0.4601013E+03  0.7546771E-02  0.1024752E+00
         21   -1    0    0  502  501  0.00000000000E+00  0.00000000000E+00  0.16632572915E+03  0.16632572915E+03  0.00000000000E+00 0. -1.
         21   -1    0    0  501  502 -0.00000000000E+00 -0.00000000000E+00 -0.31819076916E+03  0.31819076916E+03  0.00000000000E+00 0. -1.
      99926    2    1    2    0    0  0.00000000000E+00  0.00000000000E+00 -0.15186504001E+03  0.48451649831E+03  0.46010134401E+03 0.  0.
      99925    2    3    3    0    0 -0.99605737997E+02 -0.57642592593E+02 -0.11890797247E+03  0.31137595447E+03  0.26376487177E+03 0.  0.
         25    1    3    3    0    0  0.99605737997E+02  0.57642592593E+02 -0.32957067536E+02  0.17314054385E+03  0.12509000000E+03 0.  0.
         25    1    4    4    0    0 -0.58716285063E+01 -0.27952249849E+02 -0.45350157400E+02  0.13608801993E+03  0.12509000000E+03 0.  0.
         25    1    4    4    0    0 -0.93734109490E+02 -0.29690342743E+02 -0.73557815074E+02  0.17528793453E+03  0.12509000000E+03 0.  0.
<mgrwt>
<rscale>  2 0.46010134E+03</rscale>
<asrwt>0</asrwt>
<pdfrwt beam="1">  1       21 0.24459666E-01 0.46010134E+03</pdfrwt>
<pdfrwt beam="2">  1       21 0.46792760E-01 0.46010134E+03</pdfrwt>
<totfact> 0.63751873E+04</totfact>
</mgrwt>
</event>
<event>
 7    0  0.4784406E-002  0.4592284E+03  0.7546771E-02  0.1025005E+00
         21   -1    0    0  502  501  0.00000000000E+00  0.00000000000E+00  0.29889057137E+03  0.29889057137E+03  0.00000000000E+00 0. -1.
         21   -1    0    0  501  502 -0.00000000000E+00 -0.00000000000E+00 -0.17639455589E+03  0.17639455589E+03  0.00000000000E+00 0. -1.
      99926    2    1    2    0    0 -0.17763568394E-14  0.14210854715E-13  0.12249601548E+03  0.47528512726E+03  0.45922835103E+03 0.  0.
      99925    2    3    3    0    0  0.13012303528E+02  0.79399279107E+02 -0.11388715920E+02  0.27516967317E+03  0.26289747168E+03 0.  0.
         25    1    4    4    0    0  0.29156170596E+02  0.19191528548E+02  0.21384482590E+02  0.13161763274E+03  0.12509000000E+03 0.  0.
         25    1    3    3    0    0 -0.13012303528E+02 -0.79399279107E+02  0.13388473140E+03  0.20011545409E+03  0.12509000000E+03 0.  0.
         25    1    4    4    0    0 -0.16143867068E+02  0.60207750559E+02 -0.32773198510E+02  0.14355204043E+03  0.12509000000E+03 0.  0.
<mgrwt>
<rscale>  2 0.45922835E+03</rscale>
<asrwt>0</asrwt>
<pdfrwt beam="1">  1       21 0.43954496E-01 0.45922835E+03</pdfrwt>
<pdfrwt beam="2">  1       21 0.25940376E-01 0.45922835E+03</pdfrwt>
<totfact> 0.64842001E+04</totfact>
</mgrwt>
</event>
<event>
 7    0  0.4784406E-002  0.4532130E+03  0.7546771E-02  0.1026768E+00
         21   -1    0    0  502  501  0.00000000000E+00  0.00000000000E+00  0.69918571619E+02  0.69918571619E+02  0.00000000000E+00 0. -1.
         21   -1    0    0  501  502 -0.00000000000E+00 -0.00000000000E+00 -0.73443292819E+03  0.73443292819E+03  0.00000000000E+00 0. -1.
      99926    2    1    2    0    0  0.14210854715E-13  0.00000000000E+00 -0.66451435657E+03  0.80435149981E+03  0.45321297991E+03 0.  0.
      99925    2    3    3    0    0  0.77639460186E+02  0.72124689771E+02 -0.48064458205E+03  0.55800731227E+03  0.26291270346E+03 0.  0.
         25    1    3    3    0    0 -0.77639460186E+02 -0.72124689771E+02 -0.18386977453E+03  0.24634418755E+03  0.12509000000E+03 0.  0.
         25    1    4    4    0    0  0.29119715999E+02 -0.46493807361E+01 -0.23232933592E+03  0.26550706776E+03  0.12509000000E+03 0.  0.
         25    1    4    4    0    0  0.48519744187E+02  0.76774070507E+02 -0.24831524613E+03  0.29250024451E+03  0.12509000000E+03 0.  0.
<mgrwt>
<rscale>  2 0.45321298E+03</rscale>
<asrwt>0</asrwt>
<pdfrwt beam="1">  1       21 0.10282142E-01 0.45321298E+03</pdfrwt>
<pdfrwt beam="2">  1       21 0.10800485E+00 0.45321298E+03</pdfrwt>
<totfact> 0.48227834E+04</totfact>
</mgrwt>
</event>
<event>
 7    0  0.4784406E-002  0.4541962E+03  0.7546771E-02  0.1026478E+00
         21   -1    0    0  502  501  0.00000000000E+00  0.00000000000E+00  0.11082284014E+04  0.11082284014E+04  0.00000000000E+00 0.  1.
         21   -1    0    0  501  502 -0.00000000000E+00 -0.00000000000E+00 -0.46536928742E+02  0.46536928742E+02  0.00000000000E+00 0.  1.
      99926    2    1    2    0    0  0.00000000000E+00 -0.35527136788E-14  0.10616914726E+04  0.11547653301E+04  0.45419619613E+03 0.  0.
      99925    2    3    3    0    0  0.88544093876E+02  0.20126008043E+02  0.83692872618E+03  0.88198169231E+03  0.26305303668E+03 0.  0.
         25    1    4    4    0    0  0.39422164286E+02  0.34076617239E+02  0.31627040438E+03  0.34407818831E+03  0.12509000000E+03 0.  0.
         25    1    3    3    0    0 -0.88544093876E+02 -0.20126008043E+02  0.22476274643E+03  0.27278363779E+03  0.12509000000E+03 0.  0.
         25    1    4    4    0    0  0.49121929590E+02 -0.13950609196E+02  0.52065832180E+03  0.53790350400E+03  0.12509000000E+03 0.  0.
<mgrwt>
<rscale>  2 0.45419620E+03</rscale>
<asrwt>0</asrwt>
<pdfrwt beam="1">  1       21 0.16297475E+00 0.45419620E+03</pdfrwt>
<pdfrwt beam="2">  1       21 0.68436667E-02 0.45419620E+03</pdfrwt>
<totfact> 0.33835118E+04</totfact>
</mgrwt>
</event>
<event>
 7    0  0.4784406E-002  0.4548833E+03  0.7546771E-02  0.1026276E+00
         21   -1    0    0  502  501  0.00000000000E+00  0.00000000000E+00  0.78958469618E+03  0.78958469618E+03  0.00000000000E+00 0.  1.
         21   -1    0    0  501  502 -0.00000000000E+00 -0.00000000000E+00 -0.65515077453E+02  0.65515077453E+02  0.00000000000E+00 0.  1.
      99926    2    1    2    0    0  0.00000000000E+00 -0.14210854715E-13  0.72406961873E+03  0.85509977364E+03  0.45488329284E+03 0.  0.
      99925    2    3    3    0    0 -0.97242549929E+01  0.11003732801E+03  0.41087597714E+03  0.50021875143E+03  0.26305314292E+03 0.  0.
         25    1    4    4    0    0  0.11654870748E+02  0.70467107913E+02  0.15325279793E+03  0.21032208035E+03  0.12509000000E+03 0.  0.
         25    1    3    3    0    0  0.97242549929E+01 -0.11003732801E+03  0.31319364159E+03  0.35488102220E+03  0.12509000000E+03 0.  0.
         25    1    4    4    0    0 -0.21379125741E+02  0.39570220095E+02  0.25762317921E+03  0.28989667108E+03  0.12509000000E+03 0.  0.
<mgrwt>
<rscale>  2 0.45488329E+03</rscale>
<asrwt>0</asrwt>
<pdfrwt beam="1">  1       21 0.11611539E+00 0.45488329E+03</pdfrwt>
<pdfrwt beam="2">  1       21 0.96345707E-02 0.45488329E+03</pdfrwt>
<totfact> 0.45253509E+04</totfact>
</mgrwt>
</event>
<event>
 7    0  0.4784406E-002  0.4572341E+03  0.7546771E-02  0.1025586E+00
         21   -1    0    0  502  501  0.00000000000E+00  0.00000000000E+00  0.50323111324E+03  0.50323111324E+03  0.00000000000E+00 0.  1.
         21   -1    0    0  501  502 -0.00000000000E+00 -0.00000000000E+00 -0.10386033958E+03  0.10386033958E+03  0.00000000000E+00 0.  1.
      99926    2    1    2    0    0  0.00000000000E+00 -0.71054273576E-14  0.39937077366E+03  0.60709145282E+03  0.45723409456E+03 0.  0.
      99925    2    3    3    0    0  0.99113432186E+02 -0.54805633957E+02  0.22246308464E+03  0.36261043415E+03  0.26300070908E+03 0.  0.
         25    1    3    3    0    0 -0.99113432186E+02  0.54805633957E+02  0.17690768902E+03  0.24448101866E+03  0.12509000000E+03 0.  0.
         25    1    4    4    0    0  0.75706726517E+02 -0.59934425849E+02  0.10832688659E+03  0.19158775091E+03  0.12509000000E+03 0.  0.
         25    1    4    4    0    0  0.23406705670E+02  0.51287918925E+01  0.11413619806E+03  0.17102268324E+03  0.12509000000E+03 0.  0.
<mgrwt>
<rscale>  2 0.45723409E+03</rscale>
<asrwt>0</asrwt>
<pdfrwt beam="1">  1       21 0.74004575E-01 0.45723409E+03</pdfrwt>
<pdfrwt beam="2">  1       21 0.15273580E-01 0.45723409E+03</pdfrwt>
<totfact> 0.57227189E+04</totfact>
</mgrwt>
</event>
<event>
 7    0  0.4784406E-002  0.4558696E+03  0.7546771E-02  0.1025986E+00
         21   -1    0    0  502  501  0.00000000000E+00  0.00000000000E+00  0.37592794696E+02  0.37592794696E+02  0.00000000000E+00 0. -1.
         21   -1    0    0  501  502 -0.00000000000E+00 -0.00000000000E+00 -0.13820272704E+04  0.13820272704E+04  0.00000000000E+00 0. -1.
      99926    2    1    2    0    0  0.35527136788E-14  0.00000000000E+00 -0.13444344757E+04  0.14196200651E+04  0.45586957539E+03 0.  0.
      99925    2    3    3    0    0  0.20209590365E+02 -0.10815022225E+03 -0.75186875671E+03  0.80408246466E+03  0.26293931724E+03 0.  0.
         25    1    4    4    0    0 -0.16144295391E+02 -0.57436141053E+02 -0.28804487503E+03  0.31965122665E+03  0.12509000000E+03 0.  0.
         25    1    4    4    0    0  0.36353885756E+02 -0.50714081200E+02 -0.46382388168E+03  0.48443123801E+03  0.12509000000E+03 0.  0.
         25    1    3    3    0    0 -0.20209590365E+02  0.10815022225E+03 -0.59256571902E+03  0.61553760046E+03  0.12509000000E+03 0.  0.
<mgrwt>
<rscale>  2 0.45586958E+03</rscale>
<asrwt>0</asrwt>
<pdfrwt beam="1">  1       21 0.55283520E-02 0.45586958E+03</pdfrwt>
<pdfrwt beam="2">  1       21 0.20323931E+00 0.45586958E+03</pdfrwt>
<totfact> 0.25640144E+04</totfact>
</mgrwt>
</event>
<event>
 7    0  0.4784406E-002  0.4567949E+03  0.7546771E-02  0.1025715E+00
         21   -1    0    0  502  501  0.00000000000E+00  0.00000000000E+00  0.30026314749E+03  0.30026314749E+03  0.00000000000E+00 0. -1.
         21   -1    0    0  501  502 -0.00000000000E+00 -0.00000000000E+00 -0.17373229618E+03  0.17373229618E+03  0.00000000000E+00 0. -1.
      99926    2    1    2    0    0  0.71054273576E-14  0.71054273576E-14  0.12653085132E+03  0.47399544367E+03  0.45679494774E+03 0.  0.
      99925    2    3    3    0    0 -0.63599936268E+02 -0.62101676021E+02  0.15502160576E+03  0.31791597274E+03  0.26293972201E+03 0.  0.
         25    1    4    4    0    0 -0.25463867552E+02 -0.71702930410E+02  0.79967394580E+02  0.16682928723E+03  0.12509000000E+03 0.  0.
         25    1    3    3    0    0  0.63599936268E+02  0.62101676021E+02 -0.28490754443E+02  0.15607947093E+03  0.12509000000E+03 0.  0.
         25    1    4    4    0    0 -0.38136068716E+02  0.96012543885E+01  0.75054211182E+02  0.15108668551E+03  0.12509000000E+03 0.  0.
<mgrwt>
<rscale>  2 0.45679495E+03</rscale>
<asrwt>0</asrwt>
<pdfrwt beam="1">  1       21 0.44156345E-01 0.45679495E+03</pdfrwt>
<pdfrwt beam="2">  1       21 0.25548867E-01 0.45679495E+03</pdfrwt>
<totfact> 0.66192101E+04</totfact>
</mgrwt>
</event>
<event>
 7    0  0.4784406E-002  0.4539644E+03  0.7546771E-02  0.1026546E+00
         21   -1    0    0  502  501  0.00000000000E+00  0.00000000000E+00  0.37625885951E+02  0.37625885951E+02  0.00000000000E+00 0.  1.
         21   -1    0    0  501  502 -0.00000000000E+00 -0.00000000000E+00 -0.13692945239E+04  0.13692945239E+04  0.00000000000E+00 0.  1.
      99926    2    1    2    0    0 -0.88817841970E-15  0.00000000000E+00 -0.13316686380E+04  0.14069204099E+04  0.45396440209E+03 0.  0.
      99925    2    3    3    0    0 -0.50242700349E+01  0.49197858857E+02 -0.52758316019E+03  0.59166177835E+03  0.26319953729E+03 0.  0.
         25    1    3    3    0    0  0.50242700349E+01 -0.49197858857E+02 -0.80408547776E+03  0.81525863151E+03  0.12509000000E+03 0.  0.
         25    1    4    4    0    0  0.14790756108E+02  0.15548375016E+02 -0.18041437938E+03  0.22058416720E+03  0.12509000000E+03 0.  0.
         25    1    4    4    0    0 -0.19815026143E+02  0.33649483841E+02 -0.34716878082E+03  0.37107761115E+03  0.12509000000E+03 0.  0.
<mgrwt>
<rscale>  2 0.45396440E+03</rscale>
<asrwt>0</asrwt>
<pdfrwt beam="1">  1       21 0.55332189E-02 0.45396440E+03</pdfrwt>
<pdfrwt beam="2">  1       21 0.20136683E+00 0.45396440E+03</pdfrwt>
<totfact> 0.26359665E+04</totfact>
</mgrwt>
</event>
<event>
 7    0  0.4784406E-002  0.4705793E+03  0.7546771E-02  0.1021757E+00
         21   -1    0    0  502  501  0.00000000000E+00  0.00000000000E+00  0.36343771614E+03  0.36343771614E+03  0.00000000000E+00 0. -1.
         21   -1    0    0  501  502 -0.00000000000E+00 -0.00000000000E+00 -0.15232658994E+03  0.15232658994E+03  0.00000000000E+00 0. -1.
      99926    2    1    2    0    0  0.00000000000E+00  0.00000000000E+00  0.21111112620E+03  0.51576430607E+03  0.47057933636E+03 0.  0.
      99925    2    3    3    0    0 -0.33896628558E+02 -0.90965140121E+02  0.40906456487E+02  0.28329758622E+03  0.26298392733E+03 0.  0.
         25    1    4    4    0    0  0.35776643202E+01 -0.28808302758E+02  0.51348156319E+02  0.13829988882E+03  0.12509000000E+03 0.  0.
         25    1    3    3    0    0  0.33896628558E+02  0.90965140121E+02  0.17020466971E+03  0.23246671985E+03  0.12509000000E+03 0.  0.
         25    1    4    4    0    0 -0.37474292878E+02 -0.62156837363E+02 -0.10441699832E+02  0.14499769741E+03  0.12509000000E+03 0.  0.
<mgrwt>
<rscale>  2 0.47057934E+03</rscale>
<asrwt>0</asrwt>
<pdfrwt beam="1">  1       21 0.53446723E-01 0.47057934E+03</pdfrwt>
<pdfrwt beam="2">  1       21 0.22400969E-01 0.47057934E+03</pdfrwt>
<totfact> 0.56819217E+04</totfact>
</mgrwt>
</event>
<event>
 7    0  0.4784406E-002  0.4567425E+03  0.7546771E-02  0.1025730E+00
         21   -1    0    0  502  501  0.00000000000E+00  0.00000000000E+00  0.10123744005E+04  0.10123744005E+04  0.00000000000E+00 0. -1.
         21   -1    0    0  501  502 -0.00000000000E+00 -0.00000000000E+00 -0.51515947105E+02  0.51515947105E+02  0.00000000000E+00 0. -1.
      99926    2    1    2    0    0 -0.14210854715E-13  0.00000000000E+00  0.96085845342E+03  0.10638903476E+04  0.45674249230E+03 0.  0.
      99925    2    3    3    0    0 -0.97111240639E+02  0.11463692291E+02  0.74403954670E+03  0.79515263961E+03  0.26288945191E+03 0.  0.
         25    1    3    3    0    0  0.97111240639E+02 -0.11463692291E+02  0.21681890672E+03  0.26873770802E+03  0.12509000000E+03 0.  0.
         25    1    4    4    0    0 -0.35730264897E+02 -0.13427879077E+02  0.45328736646E+03  0.47177738867E+03  0.12509000000E+03 0.  0.
         25    1    4    4    0    0 -0.61380975742E+02  0.24891571368E+02  0.29075218023E+03  0.32337525094E+03  0.12509000000E+03 0.  0.
<mgrwt>
<rscale>  2 0.45674249E+03</rscale>
<asrwt>0</asrwt>
<pdfrwt beam="1">  1       21 0.14887858E+00 0.45674249E+03</pdfrwt>
<pdfrwt beam="2">  1       21 0.75758752E-02 0.45674249E+03</pdfrwt>
<totfact> 0.36275989E+04</totfact>
</mgrwt>
</event>
<event>
 7    0  0.4784406E-002  0.4522918E+03  0.7546771E-02  0.1027041E+00
         21   -1    0    0  502  501  0.00000000000E+00  0.00000000000E+00  0.39128574660E+03  0.39128574660E+03  0.00000000000E+00 0. -1.
         21   -1    0    0  501  502 -0.00000000000E+00 -0.00000000000E+00 -0.13070236039E+03  0.13070236039E+03  0.00000000000E+00 0. -1.
      99926    2    1    2    0    0  0.00000000000E+00 -0.14210854715E-13  0.26058338621E+03  0.52198810699E+03  0.45229181141E+03 0.  0.
      99925    2    3    3    0    0 -0.58581693321E+01  0.75089796402E+02  0.70955998392E+02  0.28265810473E+03  0.26303622334E+03 0.  0.
         25    1    3    3    0    0  0.58581693321E+01 -0.75089796402E+02  0.18962738782E+03  0.23933000226E+03  0.12509000000E+03 0.  0.
         25    1    4    4    0    0 -0.39754413929E+01  0.42571270641E+02  0.77487777048E+02  0.15323178818E+03  0.12509000000E+03 0.  0.
         25    1    4    4    0    0 -0.18827279392E+01  0.32518525761E+02 -0.65317786555E+01  0.12942631655E+03  0.12509000000E+03 0.  0.
<mgrwt>
<rscale>  2 0.45229181E+03</rscale>
<asrwt>0</asrwt>
<pdfrwt beam="1">  1       21 0.57542021E-01 0.45229181E+03</pdfrwt>
<pdfrwt beam="2">  1       21 0.19220935E-01 0.45229181E+03</pdfrwt>
<totfact> 0.65139419E+04</totfact>
</mgrwt>
</event>
<event>
 7    0  0.4784406E-002  0.4545119E+03  0.7546771E-02  0.1026385E+00
         21   -1    0    0  502  501  0.00000000000E+00  0.00000000000E+00  0.17176048901E+03  0.17176048901E+03  0.00000000000E+00 0.  1.
         21   -1    0    0  501  502 -0.00000000000E+00 -0.00000000000E+00 -0.30068191280E+03  0.30068191280E+03  0.00000000000E+00 0.  1.
      99926    2    1    2    0    0  0.00000000000E+00  0.00000000000E+00 -0.12892142379E+03  0.47244240181E+03  0.45451192450E+03 0.  0.
      99925    2    3    3    0    0  0.32932396137E+02 -0.55383868506E+02 -0.17730364825E+03  0.32364635566E+03  0.26297996928E+03 0.  0.
         25    1    4    4    0    0  0.24438717105E+02 -0.64054355749E+02 -0.11577313786E+03  0.18371483047E+03  0.12509000000E+03 0.  0.
         25    1    3    3    0    0 -0.32932396137E+02  0.55383868506E+02  0.48382224463E+02  0.14879604615E+03  0.12509000000E+03 0.  0.
         25    1    4    4    0    0  0.84936790329E+01  0.86704872428E+01 -0.61530510395E+02  0.13993152519E+03  0.12509000000E+03 0.  0.
<mgrwt>
<rscale>  2 0.45451192E+03</rscale>
<asrwt>0</asrwt>
<pdfrwt beam="1">  1       21 0.25258896E-01 0.45451192E+03</pdfrwt>
<pdfrwt beam="2">  1       21 0.44217928E-01 0.45451192E+03</pdfrwt>
<totfact> 0.67515631E+04</totfact>
</mgrwt>
</event>
<event>
 7    0  0.4784406E-002  0.4496790E+03  0.7546771E-02  0.1027818E+00
         21   -1    0    0  502  501  0.00000000000E+00  0.00000000000E+00  0.71691020141E+02  0.71691020141E+02  0.00000000000E+00 0. -1.
         21   -1    0    0  501  502 -0.00000000000E+00 -0.00000000000E+00 -0.70514830357E+03  0.70514830357E+03  0.00000000000E+00 0. -1.
      99926    2    1    2    0    0  0.00000000000E+00 -0.71054273576E-14 -0.63345728343E+03  0.77683932371E+03  0.44967900210E+03 0.  0.
      99925    2    3    3    0    0  0.48219769908E+02 -0.55278773374E+02 -0.26693283052E+03  0.38267112145E+03  0.26420288073E+03 0.  0.
         25    1    4    4    0    0  0.13176976598E+02  0.21366878771E+01 -0.16667692627E+03  0.20882266160E+03  0.12509000000E+03 0.  0.
         25    1    3    3    0    0 -0.48219769908E+02  0.55278773374E+02 -0.36652445291E+03  0.39416820226E+03  0.12509000000E+03 0.  0.
         25    1    4    4    0    0  0.35042793309E+02 -0.57415461251E+02 -0.10025590425E+03  0.17384845985E+03  0.12509000000E+03 0.  0.
<mgrwt>
<rscale>  2 0.44967900E+03</rscale>
<asrwt>0</asrwt>
<pdfrwt beam="1">  1       21 0.10542797E-01 0.44967900E+03</pdfrwt>
<pdfrwt beam="2">  1       21 0.10369828E+00 0.44967900E+03</pdfrwt>
<totfact> 0.51002609E+04</totfact>
</mgrwt>
</event>
<event>
 7    0  0.4784406E-002  0.4578959E+03  0.7546771E-02  0.1025393E+00
         21   -1    0    0  502  501  0.00000000000E+00  0.00000000000E+00  0.73369578891E+03  0.73369578891E+03  0.00000000000E+00 0.  1.
         21   -1    0    0  501  502 -0.00000000000E+00 -0.00000000000E+00 -0.71442647890E+02  0.71442647890E+02  0.00000000000E+00 0.  1.
      99926    2    1    2    0    0  0.00000000000E+00  0.00000000000E+00  0.66225314102E+03  0.80513843680E+03  0.45789592663E+03 0.  0.
      99925    2    3    3    0    0 -0.81440411335E+02 -0.81153705720E+02  0.38979418269E+03  0.48404677290E+03  0.26295115316E+03 0.  0.
         25    1    4    4    0    0 -0.87327661543E+01 -0.12982265360E+02  0.15211218825E+03  0.19756119643E+03  0.12509000000E+03 0.  0.
         25    1    4    4    0    0 -0.72707645180E+02 -0.68171440360E+02  0.23768199444E+03  0.28648557647E+03  0.12509000000E+03 0.  0.
         25    1    3    3    0    0  0.81440411335E+02  0.81153705720E+02  0.27245895833E+03  0.32109166390E+03  0.12509000000E+03 0.  0.
<mgrwt>
<rscale>  2 0.45789593E+03</rscale>
<asrwt>0</asrwt>
<pdfrwt beam="1">  1       21 0.10789644E+00 0.45789593E+03</pdfrwt>
<pdfrwt beam="2">  1       21 0.10506272E-01 0.45789593E+03</pdfrwt>
<totfact> 0.46452570E+04</totfact>
</mgrwt>
</event>
<event>
 7    0  0.4784406E-002  0.4506745E+03  0.7546771E-02  0.1027521E+00
         21   -1    0    0  502  501  0.00000000000E+00  0.00000000000E+00  0.21147915084E+02  0.21147915084E+02  0.00000000000E+00 0.  1.
         21   -1    0    0  501  502 -0.00000000000E+00 -0.00000000000E+00 -0.24010344113E+04  0.24010344113E+04  0.00000000000E+00 0.  1.
      99926    2    1    2    0    0  0.00000000000E+00  0.00000000000E+00 -0.23798864962E+04  0.24221823264E+04  0.45067448050E+03 0.  0.
      99925    2    3    3    0    0 -0.35978062957E+02 -0.91557805382E+02 -0.17571800126E+04  0.17794630053E+04  0.26292534708E+03 0.  0.
         25    1    4    4    0    0 -0.28859900990E+02 -0.43197278769E+02 -0.63569122828E+03  0.64996134085E+03  0.12509000000E+03 0.  0.
         25    1    3    3    0    0  0.35978062957E+02  0.91557805382E+02 -0.62270648368E+03  0.64271932106E+03  0.12509000000E+03 0.  0.
         25    1    4    4    0    0 -0.71181619669E+01 -0.48360526613E+02 -0.11214887843E+04  0.11295016645E+04  0.12509000000E+03 0.  0.
<mgrwt>
<rscale>  2 0.45067448E+03</rscale>
<asrwt>0</asrwt>
<pdfrwt beam="1">  1       21 0.31099877E-02 0.45067448E+03</pdfrwt>
<pdfrwt beam="2">  1       21 0.35309327E+00 0.45067448E+03</pdfrwt>
<totfact> 0.82344656E+03</totfact>
</mgrwt>
</event>
<event>
 7    0  0.4784406E-002  0.4521052E+03  0.7546771E-02  0.1027096E+00
         21   -1    0    0  502  501  0.00000000000E+00  0.00000000000E+00  0.64267526278E+02  0.64267526278E+02  0.00000000000E+00 0.  1.
         21   -1    0    0  501  502 -0.00000000000E+00 -0.00000000000E+00 -0.79511039304E+03  0.79511039304E+03  0.00000000000E+00 0.  1.
      99926    2    1    2    0    0  0.00000000000E+00  0.00000000000E+00 -0.73084286677E+03  0.85937791932E+03  0.45210520049E+03 0.  0.
      99925    2    3    3    0    0  0.90111509712E+02 -0.45991398246E+02 -0.54549295273E+03  0.61394484977E+03  0.26292665173E+03 0.  0.
         25    1    4    4    0    0  0.69904032334E+02 -0.31324116202E+01 -0.33721495076E+03  0.36641208612E+03  0.12509000000E+03 0.  0.
         25    1    4    4    0    0  0.20207477378E+02 -0.42858986626E+02 -0.20827800197E+03  0.24753276365E+03  0.12509000000E+03 0.  0.
         25    1    3    3    0    0 -0.90111509712E+02  0.45991398246E+02 -0.18534991404E+03  0.24543306955E+03  0.12509000000E+03 0.  0.
<mgrwt>
<rscale>  2 0.45210520E+03</rscale>
<asrwt>0</asrwt>
<pdfrwt beam="1">  1       21 0.94511066E-02 0.45210520E+03</pdfrwt>
<pdfrwt beam="2">  1       21 0.11692800E+00 0.45210520E+03</pdfrwt>
<totfact> 0.46059646E+04</totfact>
</mgrwt>
</event>
<event>
 7    0  0.4784406E-002  0.4570284E+03  0.7546771E-02  0.1025647E+00
         21   -1    0    0  502  501  0.00000000000E+00  0.00000000000E+00  0.59659787167E+02  0.59659787167E+02  0.00000000000E+00 0. -1.
         21   -1    0    0  501  502 -0.00000000000E+00 -0.00000000000E+00 -0.87527523436E+03  0.87527523436E+03  0.00000000000E+00 0. -1.
      99926    2    1    2    0    0  0.00000000000E+00  0.00000000000E+00 -0.81561544719E+03  0.93493502152E+03  0.45702837634E+03 0.  0.
      99925    2    3    3    0    0  0.88653492493E+02  0.68514733132E+02 -0.45788634290E+03  0.53974983639E+03  0.26289973847E+03 0.  0.
         25    1    4    4    0    0  0.74188693472E+02  0.28599020358E+02 -0.29403250060E+03  0.32927873559E+03  0.12509000000E+03 0.  0.
         25    1    3    3    0    0 -0.88653492493E+02 -0.68514733132E+02 -0.35772910429E+03  0.39518518513E+03  0.12509000000E+03 0.  0.
         25    1    4    4    0    0  0.14464799021E+02  0.39915712774E+02 -0.16385384229E+03  0.21047110080E+03  0.12509000000E+03 0.  0.
<mgrwt>
<rscale>  2 0.45702838E+03</rscale>
<asrwt>0</asrwt>
<pdfrwt beam="1">  1       21 0.87734977E-02 0.45702838E+03</pdfrwt>
<pdfrwt beam="2">  1       21 0.12871695E+00 0.45702838E+03</pdfrwt>
<totfact> 0.41101014E+04</totfact>
</mgrwt>
</event>
<event>
 7    0  0.4784406E-002  0.4527737E+03  0.7546771E-02  0.1026898E+00
         21   -1    0    0  502  501  0.00000000000E+00  0.00000000000E+00  0.61330186801E+03  0.61330186801E+03  0.00000000000E+00 0.  1.
         21   -1    0    0  501  502 -0.00000000000E+00 -0.00000000000E+00 -0.83565725690E+02  0.83565725690E+02  0.00000000000E+00 0.  1.
      99926    2    1    2    0    0  0.00000000000E+00  0.00000000000E+00  0.52973614232E+03  0.69686759370E+03  0.45277374335E+03 0.  0.
      99925    2    3    3    0    0 -0.87212110863E+02 -0.32688138141E+02  0.42676394516E+03  0.50998461388E+03  0.26321545330E+03 0.  0.
         25    1    3    3    0    0  0.87212110863E+02  0.32688138141E+02  0.10297219716E+03  0.18688297982E+03  0.12509000000E+03 0.  0.
         25    1    4    4    0    0 -0.37983785011E+02 -0.46340176613E+02  0.16621748219E+03  0.21648542532E+03  0.12509000000E+03 0.  0.
         25    1    4    4    0    0 -0.49228325852E+02  0.13652038472E+02  0.26054646297E+03  0.29349918856E+03  0.12509000000E+03 0.  0.
<mgrwt>
<rscale>  2 0.45277374E+03</rscale>
<asrwt>0</asrwt>
<pdfrwt beam="1">  1       21 0.90191449E-01 0.45277374E+03</pdfrwt>
<pdfrwt beam="2">  1       21 0.12289078E-01 0.45277374E+03</pdfrwt>
<totfact> 0.54013571E+04</totfact>
</mgrwt>
</event>
<event>
 7    0  0.4784406E-002  0.4501386E+03  0.7546771E-02  0.1027681E+00
         21   -1    0    0  502  501  0.00000000000E+00  0.00000000000E+00  0.12858262514E+03  0.12858262514E+03  0.00000000000E+00 0. -1.
         21   -1    0    0  501  502 -0.00000000000E+00 -0.00000000000E+00 -0.39395824408E+03  0.39395824408E+03  0.00000000000E+00 0. -1.
      99926    2    1    2    0    0  0.00000000000E+00  0.00000000000E+00 -0.26537561894E+03  0.52254086922E+03  0.45013857964E+03 0.  0.
      99925    2    3    3    0    0 -0.60595696909E+02 -0.29549577326E+02 -0.69318968790E+02  0.28040302796E+03  0.26320281657E+03 0.  0.
         25    1    4    4    0    0 -0.66225078476E+02  0.51081368364E+01 -0.31588758837E+02  0.14511103289E+03  0.12509000000E+03 0.  0.
         25    1    3    3    0    0  0.60595696909E+02  0.29549577326E+02 -0.19605665015E+03  0.24213784126E+03  0.12509000000E+03 0.  0.
         25    1    4    4    0    0  0.56293815672E+01 -0.34657714162E+02 -0.37730209953E+02  0.13529199507E+03  0.12509000000E+03 0.  0.
<mgrwt>
<rscale>  2 0.45013858E+03</rscale>
<asrwt>0</asrwt>
<pdfrwt beam="1">  1       21 0.18909209E-01 0.45013858E+03</pdfrwt>
<pdfrwt beam="2">  1       21 0.57935036E-01 0.45013858E+03</pdfrwt>
<totfact> 0.66230035E+04</totfact>
</mgrwt>
</event>
<event>
 7    0  0.4784406E-002  0.4690225E+03  0.7546771E-02  0.1022196E+00
         21   -1    0    0  502  501  0.00000000000E+00  0.00000000000E+00  0.56072418597E+03  0.56072418597E+03  0.00000000000E+00 0.  1.
         21   -1    0    0  501  502 -0.00000000000E+00 -0.00000000000E+00 -0.98079468337E+02  0.98079468337E+02  0.00000000000E+00 0.  1.
      99926    2    1    2    0    0  0.00000000000E+00  0.00000000000E+00  0.46264471764E+03  0.65880365431E+03  0.46902251564E+03 0.  0.
      99925    2    3    3    0    0 -0.20106861046E+02  0.26054343846E+02  0.45817204730E+03  0.52937943875E+03  0.26313086203E+03 0.  0.
         25    1    3    3    0    0  0.20106861046E+02 -0.26054343846E+02  0.44726703410E+01  0.12942421556E+03  0.12509000000E+03 0.  0.
         25    1    4    4    0    0 -0.35858004869E+01  0.53381001502E+02  0.23121584696E+03  0.26827348970E+03  0.12509000000E+03 0.  0.
         25    1    4    4    0    0 -0.16521060559E+02 -0.27326657656E+02  0.22695620033E+03  0.26110594905E+03  0.12509000000E+03 0.  0.
<mgrwt>
<rscale>  2 0.46902252E+03</rscale>
<asrwt>0</asrwt>
<pdfrwt beam="1">  1       21 0.82459438E-01 0.46902252E+03</pdfrwt>
<pdfrwt beam="2">  1       21 0.14423451E-01 0.46902252E+03</pdfrwt>
<totfact> 0.49491727E+04</totfact>
</mgrwt>
</event>
<event>
 7    0  0.4784406E-002  0.4516976E+03  0.7546771E-02  0.1027217E+00
         21   -1    0    0  502  501  0.00000000000E+00  0.00000000000E+00  0.51521083193E+02  0.51521083193E+02  0.00000000000E+00 0. -1.
         21   -1    0    0  501  502 -0.00000000000E+00 -0.00000000000E+00 -0.99003519100E+03  0.99003519100E+03  0.00000000000E+00 0. -1.
      99926    2    1    2    0    0  0.14210854715E-13 -0.35527136788E-14 -0.93851410780E+03  0.10415562742E+04  0.45169762204E+03 0.  0.
      99925    2    3    3    0    0 -0.71862296874E+02  0.24589075876E+02 -0.77610436930E+03  0.82293961511E+03  0.26291216349E+03 0.  0.
         25    1    4    4    0    0 -0.74452127263E+02 -0.20672470375E+01 -0.42684229163E+03  0.45098696521E+03  0.12509000000E+03 0.  0.
         25    1    4    4    0    0  0.25898303894E+01  0.26656322914E+02 -0.34926207767E+03  0.37195264991E+03  0.12509000000E+03 0.  0.
         25    1    3    3    0    0  0.71862296874E+02 -0.24589075876E+02 -0.16240973850E+03  0.21861665907E+03  0.12509000000E+03 0.  0.
<mgrwt>
<rscale>  2 0.45169762E+03</rscale>
<asrwt>0</asrwt>
<pdfrwt beam="1">  1       21 0.75766295E-02 0.45169762E+03</pdfrwt>
<pdfrwt beam="2">  1       21 0.14559342E+00 0.45169762E+03</pdfrwt>
<totfact> 0.38573548E+04</totfact>
</mgrwt>
</event>
<event>
 7    0  0.4784406E-002  0.4569958E+03  0.7546771E-02  0.1025656E+00
         21   -1    0    0  502  501  0.00000000000E+00  0.00000000000E+00  0.43310023723E+03  0.43310023723E+03  0.00000000000E+00 0. -1.
         21   -1    0    0  501  502 -0.00000000000E+00 -0.00000000000E+00 -0.12055245020E+03  0.12055245020E+03  0.00000000000E+00 0. -1.
      99926    2    1    2    0    0  0.00000000000E+00  0.00000000000E+00  0.31254778702E+03  0.55365268743E+03  0.45699581959E+03 0.  0.
      99925    2    3    3    0    0 -0.95312328373E+02 -0.64203642743E+02  0.19167993060E+03  0.34517464423E+03  0.26305473108E+03 0.  0.
         25    1    3    3    0    0  0.95312328373E+02  0.64203642743E+02  0.12086785642E+03  0.20847804320E+03  0.12509000000E+03 0.  0.
         25    1    4    4    0    0 -0.20512347375E+02 -0.62133593225E+02  0.89133009107E+02  0.16695370980E+03  0.12509000000E+03 0.  0.
         25    1    4    4    0    0 -0.74799980998E+02 -0.20700495174E+01  0.10254692150E+03  0.17822093443E+03  0.12509000000E+03 0.  0.
<mgrwt>
<rscale>  2 0.45699582E+03</rscale>
<asrwt>0</asrwt>
<pdfrwt beam="1">  1       21 0.63691211E-01 0.45699582E+03</pdfrwt>
<pdfrwt beam="2">  1       21 0.17728302E-01 0.45699582E+03</pdfrwt>
<totfact> 0.60662277E+04</totfact>
</mgrwt>
</event>
<event>
 7    0  0.4784406E-002  0.4554615E+03  0.7546771E-02  0.1026106E+00
         21   -1    0    0  502  501  0.00000000000E+00  0.00000000000E+00  0.15816873907E+03  0.15816873907E+03  0.00000000000E+00 0. -1.
         21   -1    0    0  501  502 -0.00000000000E+00 -0.00000000000E+00 -0.32788592024E+03  0.32788592024E+03  0.00000000000E+00 0. -1.
      99926    2    1    2    0    0  0.14210854715E-13  0.00000000000E+00 -0.16971718117E+03  0.48605465931E+03  0.45546153542E+03 0.  0.
      99925    2    3    3    0    0  0.68232079441E+02 -0.38982387066E+02 -0.19445444090E+03  0.33627253993E+03  0.26285252207E+03 0.  0.
         25    1    3    3    0    0 -0.68232079441E+02  0.38982387066E+02  0.24737259725E+02  0.14978211938E+03  0.12509000000E+03 0.  0.
         25    1    4    4    0    0  0.35983772290E+02 -0.75769149073E+01 -0.14353348585E+03  0.19391134874E+03  0.12509000000E+03 0.  0.
         25    1    4    4    0    0  0.32248307151E+02 -0.31405472158E+02 -0.50920955046E+02  0.14236119119E+03  0.12509000000E+03 0.  0.
<mgrwt>
<rscale>  2 0.45546154E+03</rscale>
<asrwt>0</asrwt>
<pdfrwt beam="1">  1       21 0.23260109E-01 0.45546154E+03</pdfrwt>
<pdfrwt beam="2">  1       21 0.48218518E-01 0.45546154E+03</pdfrwt>
<totfact> 0.66019721E+04</totfact>
</mgrwt>
</event>
<event>
 7    0  0.4784406E-002  0.4475178E+03  0.7546771E-02  0.1028465E+00
         21   -1    0    0  502  501  0.00000000000E+00  0.00000000000E+00  0.21259684160E+03  0.21259684160E+03  0.00000000000E+00 0.  1.
         21   -1    0    0  501  502 -0.00000000000E+00 -0.00000000000E+00 -0.23550700964E+03  0.23550700964E+03  0.00000000000E+00 0.  1.
      99926    2    1    2    0    0  0.00000000000E+00  0.00000000000E+00 -0.22910168035E+02  0.44810385124E+03  0.44751780490E+03 0.  0.
      99925    2    3    3    0    0 -0.56507397200E+02 -0.81740735714E+02 -0.51372885591E+02  0.28583164720E+03  0.26303217171E+03 0.  0.
         25    1    4    4    0    0 -0.38954882947E+02 -0.82367332533E+02 -0.32154496902E+02  0.15806100134E+03  0.12509000000E+03 0.  0.
         25    1    4    4    0    0 -0.17552514253E+02  0.62659681876E+00 -0.19218388689E+02  0.12777064586E+03  0.12509000000E+03 0.  0.
         25    1    3    3    0    0  0.56507397200E+02  0.81740735714E+02  0.28462717556E+02  0.16227220404E+03  0.12509000000E+03 0.  0.
<mgrwt>
<rscale>  2 0.44751780E+03</rscale>
<asrwt>0</asrwt>
<pdfrwt beam="1">  1       21 0.31264242E-01 0.44751780E+03</pdfrwt>
<pdfrwt beam="2">  1       21 0.34633384E-01 0.44751780E+03</pdfrwt>
<totfact> 0.73335258E+04</totfact>
</mgrwt>
</event>
<event>
 7    0  0.4784406E-002  0.4635874E+03  0.7546771E-02  0.1023746E+00
         21   -1    0    0  502  501  0.00000000000E+00  0.00000000000E+00  0.46687703156E+03  0.46687703156E+03  0.00000000000E+00 0.  1.
         21   -1    0    0  501  502 -0.00000000000E+00 -0.00000000000E+00 -0.11508022769E+03  0.11508022769E+03  0.00000000000E+00 0.  1.
      99926    2    1    2    0    0  0.00000000000E+00  0.14210854715E-13  0.35179680388E+03  0.58195725925E+03  0.46358738160E+03 0.  0.
      99925    2    3    3    0    0 -0.29058095688E+02  0.99531508997E+02  0.14083083264E+03  0.31567725000E+03  0.26280774063E+03 0.  0.
         25    1    4    4    0    0 -0.30723939451E+02  0.14784514455E+02  0.47538396082E+02  0.13809398801E+03  0.12509000000E+03 0.  0.
         25    1    4    4    0    0  0.16658437637E+01  0.84746994541E+02  0.93292436554E+02  0.17758326199E+03  0.12509000000E+03 0.  0.
         25    1    3    3    0    0  0.29058095688E+02 -0.99531508997E+02  0.21096597124E+03  0.26628000926E+03  0.12509000000E+03 0.  0.
<mgrwt>
<rscale>  2 0.46358738E+03</rscale>
<asrwt>0</asrwt>
<pdfrwt beam="1">  1       21 0.68658386E-01 0.46358738E+03</pdfrwt>
<pdfrwt beam="2">  1       21 0.16923563E-01 0.46358738E+03</pdfrwt>
<totfact> 0.55909469E+04</totfact>
</mgrwt>
</event>
<event>
 7    0  0.4784406E-002  0.4508178E+03  0.7546771E-02  0.1027478E+00
         21   -1    0    0  502  501  0.00000000000E+00  0.00000000000E+00  0.92644291005E+02  0.92644291005E+02  0.00000000000E+00 0.  1.
         21   -1    0    0  501  502 -0.00000000000E+00 -0.00000000000E+00 -0.54843276519E+03  0.54843276519E+03  0.00000000000E+00 0.  1.
      99926    2    1    2    0    0  0.00000000000E+00  0.00000000000E+00 -0.45578847418E+03  0.64107705619E+03  0.45081776671E+03 0.  0.
      99925    2    3    3    0    0  0.45403814553E+02 -0.88052954522E+02 -0.22247526251E+03  0.35841578892E+03  0.26296731002E+03 0.  0.
         25    1    3    3    0    0 -0.45403814553E+02  0.88052954522E+02 -0.23331321168E+03  0.28266126728E+03  0.12509000000E+03 0.  0.
         25    1    4    4    0    0  0.32419146368E+02 -0.42706178744E+02 -0.62009489548E+02  0.14955769338E+03  0.12509000000E+03 0.  0.
         25    1    4    4    0    0  0.12984668185E+02 -0.45346775778E+02 -0.16046577296E+03  0.20885809554E+03  0.12509000000E+03 0.  0.
<mgrwt>
<rscale>  2 0.45081777E+03</rscale>
<asrwt>0</asrwt>
<pdfrwt beam="1">  1       21 0.13624161E-01 0.45081777E+03</pdfrwt>
<pdfrwt beam="2">  1       21 0.80651877E-01 0.45081777E+03</pdfrwt>
<totfact> 0.58112707E+04</totfact>
</mgrwt>
</event>
<event>
 7    0  0.4784406E-002  0.4518654E+03  0.7546771E-02  0.1027167E+00
         21   -1    0    0  502  501  0.00000000000E+00  0.00000000000E+00  0.67400017960E+03  0.67400017960E+03  0.00000000000E+00 0.  1.
         21   -1    0    0  501  502 -0.00000000000E+00 -0.00000000000E+00 -0.75735256789E+02  0.75735256789E+02  0.00000000000E+00 0.  1.
      99926    2    1    2    0    0  0.00000000000E+00 -0.71054273576E-14  0.59826492281E+03  0.74973543638E+03  0.45186536348E+03 0.  0.
      99925    2    3    3    0    0 -0.81985704388E+02  0.63839375298E+02  0.43833769045E+03  0.52165354470E+03  0.26303111655E+03 0.  0.
         25    1    3    3    0    0  0.81985704388E+02 -0.63839375298E+02  0.15992723236E+03  0.22808189168E+03  0.12509000000E+03 0.  0.
         25    1    4    4    0    0 -0.73551240045E+02  0.39098988909E+02  0.28368010101E+03  0.32103025349E+03  0.12509000000E+03 0.  0.
         25    1    4    4    0    0 -0.84344643435E+01  0.24740386389E+02  0.15465758943E+03  0.20062329121E+03  0.12509000000E+03 0.  0.
<mgrwt>
<rscale>  2 0.45186536E+03</rscale>
<asrwt>0</asrwt>
<pdfrwt beam="1">  1       21 0.99117670E-01 0.45186536E+03</pdfrwt>
<pdfrwt beam="2">  1       21 0.11137538E-01 0.45186536E+03</pdfrwt>
<totfact> 0.51542582E+04</totfact>
</mgrwt>
</event>
<event>
 6    0  0.5881231E-002  0.4221091E+03  0.7546771E-02  0.1036382E+00
         21   -1    0    0  502  501  0.00000000000E+00  0.00000000000E+00  0.50918427215E+03  0.50918427215E+03  0.00000000000E+00 0. -1.
         21   -1    0    0  501  502 -0.00000000000E+00 -0.00000000000E+00 -0.87481124940E+02  0.87481124940E+02  0.00000000000E+00 0. -1.
      99926    2    1    2    0    0  0.00000000000E+00  0.17763568394E-14  0.42170314721E+03  0.59666539709E+03  0.42210905193E+03 0.  0.
         25    1    3    3    0    0 -0.60203438565E+01  0.25916271075E+02  0.15681998690E+03  0.20235590932E+03  0.12509000000E+03 0.  0.
         25    1    3    3    0    0 -0.52153812467E+02  0.90027903539E+01  0.69439174896E+02  0.15254631264E+03  0.12509000000E+03 0.  0.
         25    1    3    3    0    0  0.58174156324E+02 -0.34919061429E+02  0.19544398542E+03  0.24176317513E+03  0.12509000000E+03 0.  0.
<mgrwt>
<rscale>  2 0.42210905E+03</rscale>
<asrwt>0</asrwt>
<pdfrwt beam="1">  1       21 0.74880039E-01 0.42210905E+03</pdfrwt>
<pdfrwt beam="2">  1       21 0.12864871E-01 0.42210905E+03</pdfrwt>
<totfact> 0.77034011E+04</totfact>
</mgrwt>
</event>
<event>
 7    0  0.4784406E-002  0.4639169E+03  0.7546771E-02  0.1023651E+00
         21   -1    0    0  502  501  0.00000000000E+00  0.00000000000E+00  0.93488285574E+03  0.93488285574E+03  0.00000000000E+00 0. -1.
         21   -1    0    0  501  502 -0.00000000000E+00 -0.00000000000E+00 -0.57552377373E+02  0.57552377373E+02  0.00000000000E+00 0. -1.
      99926    2    1    2    0    0  0.35527136788E-14  0.00000000000E+00  0.87733047837E+03  0.99243523312E+03  0.46391693616E+03 0.  0.
      99925    2    3    3    0    0  0.25713830663E+02  0.38862963984E+02  0.30853822588E+03  0.40818899594E+03  0.26315563555E+03 0.  0.
         25    1    4    4    0    0  0.41088966883E+02  0.25439645102E+02  0.11401608491E+03  0.17601890370E+03  0.12509000000E+03 0.  0.
         25    1    3    3    0    0 -0.25713830663E+02 -0.38862963984E+02  0.56879225249E+03  0.58424623718E+03  0.12509000000E+03 0.  0.
         25    1    4    4    0    0 -0.15375136221E+02  0.13423318882E+02  0.19452214097E+03  0.23217009224E+03  0.12509000000E+03 0.  0.
<mgrwt>
<rscale>  2 0.46391694E+03</rscale>
<asrwt>0</asrwt>
<pdfrwt beam="1">  1       21 0.13748276E+00 0.46391694E+03</pdfrwt>
<pdfrwt beam="2">  1       21 0.84635855E-02 0.46391694E+03</pdfrwt>
<totfact> 0.36829543E+04</totfact>
</mgrwt>
</event>
<event>
 7    0  0.4784406E-002  0.4509899E+03  0.7546771E-02  0.1027427E+00
         21   -1    0    0  502  501  0.00000000000E+00  0.00000000000E+00  0.22361941650E+03  0.22361941650E+03  0.00000000000E+00 0.  1.
         21   -1    0    0  501  502 -0.00000000000E+00 -0.00000000000E+00 -0.22738619772E+03  0.22738619772E+03  0.00000000000E+00 0.  1.
      99926    2    1    2    0    0  0.00000000000E+00  0.00000000000E+00 -0.37667812170E+01  0.45100561422E+03  0.45098988394E+03 0.  0.
      99925    2    3    3    0    0 -0.27959194469E+02  0.96109726996E+02 -0.46797366584E+02  0.28512030578E+03  0.26283987344E+03 0.  0.
         25    1    4    4    0    0 -0.13616071786E+02  0.41041521346E+02  0.17305490694E+02  0.13347955646E+03  0.12509000000E+03 0.  0.
         25    1    4    4    0    0 -0.14343122683E+02  0.55068205650E+02 -0.64102857278E+02  0.15164074932E+03  0.12509000000E+03 0.  0.
         25    1    3    3    0    0  0.27959194469E+02 -0.96109726996E+02  0.43030585367E+02  0.16588530844E+03  0.12509000000E+03 0.  0.
<mgrwt>
<rscale>  2 0.45098988E+03</rscale>
<asrwt>0</asrwt>
<pdfrwt beam="1">  1       21 0.32885208E-01 0.45098988E+03</pdfrwt>
<pdfrwt beam="2">  1       21 0.33439147E-01 0.45098988E+03</pdfrwt>
<totfact> 0.71086863E+04</totfact>
</mgrwt>
</event>
<event>
 7    0  0.4784406E-002  0.4535192E+03  0.7546771E-02  0.1026678E+00
         21   -1    0    0  502  501  0.00000000000E+00  0.00000000000E+00  0.13160180383E+03  0.13160180383E+03  0.00000000000E+00 0. -1.
         21   -1    0    0  501  502 -0.00000000000E+00 -0.00000000000E+00 -0.39072346984E+03  0.39072346984E+03  0.00000000000E+00 0. -1.
      99926    2    1    2    0    0  0.17763568394E-14  0.00000000000E+00 -0.25912166601E+03  0.52232527367E+03  0.45351918782E+03 0.  0.
      99925    2    3    3    0    0  0.11315262539E+02  0.48963827290E+02 -0.47985795637E+02  0.27182306728E+03  0.26279203141E+03 0.  0.
         25    1    4    4    0    0  0.40397105834E+02  0.21067398777E+02 -0.38346649413E+01  0.13318398630E+03  0.12509000000E+03 0.  0.
         25    1    4    4    0    0 -0.29081843294E+02  0.27896428513E+02 -0.44151130696E+02  0.13863908098E+03  0.12509000000E+03 0.  0.
         25    1    3    3    0    0 -0.11315262539E+02 -0.48963827290E+02 -0.21113587038E+03  0.25050220640E+03  0.12509000000E+03 0.  0.
<mgrwt>
<rscale>  2 0.45351919E+03</rscale>
<asrwt>0</asrwt>
<pdfrwt beam="1">  1       21 0.19353207E-01 0.45351919E+03</pdfrwt>
<pdfrwt beam="2">  1       21 0.57459333E-01 0.45351919E+03</pdfrwt>
<totfact> 0.64482677E+04</totfact>
</mgrwt>
</event>
<event>
 7    0  0.4784406E-002  0.4546086E+03  0.7546771E-02  0.1026357E+00
         21   -1    0    0  502  501  0.00000000000E+00  0.00000000000E+00  0.28474015562E+03  0.28474015562E+03  0.00000000000E+00 0.  1.
         21   -1    0    0  501  502 -0.00000000000E+00 -0.00000000000E+00 -0.18145405212E+03  0.18145405212E+03  0.00000000000E+00 0.  1.
      99926    2    1    2    0    0  0.00000000000E+00 -0.14210854715E-13  0.10328610351E+03  0.46619420774E+03  0.45460864505E+03 0.  0.
      99925    2    3    3    0    0 -0.22350155650E+02 -0.78977071648E+02 -0.14426763346E+02  0.27582421424E+03  0.26293337246E+03 0.  0.
         25    1    4    4    0    0 -0.52098314840E+01 -0.45904592335E+02  0.32280141630E+02  0.13720018070E+03  0.12509000000E+03 0.  0.
         25    1    4    4    0    0 -0.17140324166E+02 -0.33072479312E+02 -0.46706904975E+02  0.13862403353E+03  0.12509000000E+03 0.  0.
         25    1    3    3    0    0  0.22350155650E+02  0.78977071648E+02  0.11771286685E+03  0.19036999350E+03  0.12509000000E+03 0.  0.
<mgrwt>
<rscale>  2 0.45460865E+03</rscale>
<asrwt>0</asrwt>
<pdfrwt beam="1">  1       21 0.41873552E-01 0.45460865E+03</pdfrwt>
<pdfrwt beam="2">  1       21 0.26684419E-01 0.45460865E+03</pdfrwt>
<totfact> 0.67930782E+04</totfact>
</mgrwt>
</event>
<event>
 7    0  0.4784406E-002  0.4454277E+03  0.7546771E-02  0.1029094E+00
         21   -1    0    0  502  501  0.00000000000E+00  0.00000000000E+00  0.19479552241E+03  0.19479552241E+03  0.00000000000E+00 0. -1.
         21   -1    0    0  501  502 -0.00000000000E+00 -0.00000000000E+00 -0.25463352126E+03  0.25463352126E+03  0.00000000000E+00 0. -1.
      99926    2    1    2    0    0  0.00000000000E+00 -0.17763568394E-14 -0.59837998848E+02  0.44942904368E+03  0.44542774857E+03 0.  0.
      99925    2    3    3    0    0 -0.26508219344E+02  0.10589645348E+02 -0.13891514997E+03  0.29871232194E+03  0.26290075334E+03 0.  0.
         25    1    4    4    0    0 -0.30888773773E+02 -0.25444709893E+02 -0.47833834418E+02  0.13977529618E+03  0.12509000000E+03 0.  0.
         25    1    4    4    0    0  0.43805544287E+01  0.36034355241E+02 -0.91081315554E+02  0.15893702576E+03  0.12509000000E+03 0.  0.
         25    1    3    3    0    0  0.26508219344E+02 -0.10589645348E+02  0.79077151123E+02  0.15071672174E+03  0.12509000000E+03 0.  0.
<mgrwt>
<rscale>  2 0.44542775E+03</rscale>
<asrwt>0</asrwt>
<pdfrwt beam="1">  1       21 0.28646400E-01 0.44542775E+03</pdfrwt>
<pdfrwt beam="2">  1       21 0.37446106E-01 0.44542775E+03</pdfrwt>
<totfact> 0.74483397E+04</totfact>
</mgrwt>
</event>
<event>
 7    0  0.4784406E-002  0.4524863E+03  0.7546771E-02  0.1026983E+00
         21   -1    0    0  502  501  0.00000000000E+00  0.00000000000E+00  0.46655245874E+03  0.46655245874E+03  0.00000000000E+00 0.  1.
         21   -1    0    0  501  502 -0.00000000000E+00 -0.00000000000E+00 -0.10971105915E+03  0.10971105915E+03  0.00000000000E+00 0.  1.
      99926    2    1    2    0    0  0.00000000000E+00  0.00000000000E+00  0.35684139959E+03  0.57626351788E+03  0.45248630651E+03 0.  0.
      99925    2    3    3    0    0  0.18162140662E+02  0.86309149776E+02  0.13976262163E+03  0.31065132571E+03  0.26304281605E+03 0.  0.
         25    1    3    3    0    0 -0.18162140662E+02 -0.86309149776E+02  0.21707877796E+03  0.26561219217E+03  0.12509000000E+03 0.  0.
         25    1    4    4    0    0  0.66311322910E+01  0.91723301452E+01  0.92010827772E+02  0.15569715503E+03  0.12509000000E+03 0.  0.
         25    1    4    4    0    0  0.11531008371E+02  0.77136819631E+02  0.47751793856E+02  0.15495417069E+03  0.12509000000E+03 0.  0.
<mgrwt>
<rscale>  2 0.45248631E+03</rscale>
<asrwt>0</asrwt>
<pdfrwt beam="1">  1       21 0.68610655E-01 0.45248631E+03</pdfrwt>
<pdfrwt beam="2">  1       21 0.16133979E-01 0.45248631E+03</pdfrwt>
<totfact> 0.61374339E+04</totfact>
</mgrwt>
</event>
<event>
 7    0  0.4784406E-002  0.4577866E+03  0.7546771E-02  0.1025425E+00
         21   -1    0    0  502  501  0.00000000000E+00  0.00000000000E+00  0.53783159663E+03  0.53783159663E+03  0.00000000000E+00 0.  1.
         21   -1    0    0  501  502 -0.00000000000E+00 -0.00000000000E+00 -0.97413672762E+02  0.97413672762E+02  0.00000000000E+00 0.  1.
      99926    2    1    2    0    0  0.00000000000E+00  0.00000000000E+00  0.44041792387E+03  0.63524526939E+03  0.45778663657E+03 0.  0.
      99925    2    3    3    0    0 -0.48078251607E+02  0.78873384245E+02  0.17989533648E+03  0.33184445255E+03  0.26310811386E+03 0.  0.
         25    1    4    4    0    0 -0.36313138180E+02  0.42856497221E+02  0.45752973489E+02  0.14455506232E+03  0.12509000000E+03 0.  0.
         25    1    4    4    0    0 -0.11765113427E+02  0.36016887024E+02  0.13414236299E+03  0.18728939023E+03  0.12509000000E+03 0.  0.
         25    1    3    3    0    0  0.48078251607E+02 -0.78873384245E+02  0.26052258739E+03  0.30340081684E+03  0.12509000000E+03 0.  0.
<mgrwt>
<rscale>  2 0.45778664E+03</rscale>
<asrwt>0</asrwt>
<pdfrwt beam="1">  1       21 0.79092881E-01 0.45778664E+03</pdfrwt>
<pdfrwt beam="2">  1       21 0.14325540E-01 0.45778664E+03</pdfrwt>
<totfact> 0.55332516E+04</totfact>
</mgrwt>
</event>
<event>
 7    0  0.4784406E-002  0.4575569E+03  0.7546771E-02  0.1025492E+00
         21   -1    0    0  502  501  0.00000000000E+00  0.00000000000E+00  0.99230764455E+02  0.99230764455E+02  0.00000000000E+00 0. -1.
         21   -1    0    0  501  502 -0.00000000000E+00 -0.00000000000E+00 -0.52745315802E+03  0.52745315802E+03  0.00000000000E+00 0. -1.
      99926    2    1    2    0    0  0.53290705182E-14  0.14210854715E-13 -0.42822239357E+03  0.62668392248E+03  0.45755690394E+03 0.  0.
      99925    2    3    3    0    0  0.65577390832E+01  0.10374039977E+03 -0.19976112797E+03  0.34624296173E+03  0.26301065722E+03 0.  0.
         25    1    4    4    0    0 -0.36769022134E+02  0.56928366964E+02 -0.95401346098E+02  0.17129426403E+03  0.12509000000E+03 0.  0.
         25    1    3    3    0    0 -0.65577390832E+01 -0.10374039977E+03 -0.22846126559E+03  0.28044096074E+03  0.12509000000E+03 0.  0.
         25    1    4    4    0    0  0.43326761217E+02  0.46812032809E+02 -0.10435978188E+03  0.17494869770E+03  0.12509000000E+03 0.  0.
<mgrwt>
<rscale>  2 0.45755690E+03</rscale>
<asrwt>0</asrwt>
<pdfrwt beam="1">  1       21 0.14592760E-01 0.45755690E+03</pdfrwt>
<pdfrwt beam="2">  1       21 0.77566640E-01 0.45755690E+03</pdfrwt>
<totfact> 0.55927564E+04</totfact>
</mgrwt>
</event>
<event>
 7    0  0.4784406E-002  0.4541868E+03  0.7546771E-02  0.1026481E+00
         21   -1    0    0  502  501  0.00000000000E+00  0.00000000000E+00  0.56366987906E+03  0.56366987906E+03  0.00000000000E+00 0.  1.
         21   -1    0    0  501  502 -0.00000000000E+00 -0.00000000000E+00 -0.91492218665E+02  0.91492218665E+02  0.00000000000E+00 0.  1.
      99926    2    1    2    0    0  0.00000000000E+00  0.00000000000E+00  0.47217766039E+03  0.65516209772E+03  0.45418678021E+03 0.  0.
      99925    2    3    3    0    0 -0.48472164028E+02  0.93799443390E+02  0.35194981071E+03  0.45206081706E+03  0.26332950234E+03 0.  0.
         25    1    4    4    0    0 -0.53987593148E+01  0.77622905362E+02  0.21791145433E+03  0.26303492556E+03  0.12509000000E+03 0.  0.
         25    1    3    3    0    0  0.48472164028E+02 -0.93799443390E+02  0.12022784968E+03  0.20310128066E+03  0.12509000000E+03 0.  0.
         25    1    4    4    0    0 -0.43073404713E+02  0.16176538028E+02  0.13403835638E+03  0.18902589150E+03  0.12509000000E+03 0.  0.
<mgrwt>
<rscale>  2 0.45418678E+03</rscale>
<asrwt>0</asrwt>
<pdfrwt beam="1">  1       21 0.82892628E-01 0.45418678E+03</pdfrwt>
<pdfrwt beam="2">  1       21 0.13454738E-01 0.45418678E+03</pdfrwt>
<totfact> 0.55761897E+04</totfact>
</mgrwt>
</event>
<event>
 7    0  0.4784406E-002  0.4564157E+03  0.7546771E-02  0.1025826E+00
         21   -1    0    0  502  501  0.00000000000E+00  0.00000000000E+00  0.50902456945E+02  0.50902456945E+02  0.00000000000E+00 0. -1.
         21   -1    0    0  501  502 -0.00000000000E+00 -0.00000000000E+00 -0.10231102582E+04  0.10231102582E+04  0.00000000000E+00 0. -1.
      99926    2    1    2    0    0  0.00000000000E+00 -0.14210854715E-13 -0.97220780130E+03  0.10740127152E+04  0.45641571345E+03 0.  0.
      99925    2    3    3    0    0 -0.24567345290E+02  0.11050624341E+03 -0.57094156418E+03  0.63872282852E+03  0.26301596467E+03 0.  0.
         25    1    4    4    0    0 -0.22490906775E+02  0.67532869446E+02 -0.38082241173E+03  0.40711146719E+03  0.12509000000E+03 0.  0.
         25    1    3    3    0    0  0.24567345290E+02 -0.11050624341E+03 -0.40126623712E+03  0.43528988667E+03  0.12509000000E+03 0.  0.
         25    1    4    4    0    0 -0.20764385147E+01  0.42973373964E+02 -0.19011915245E+03  0.23161136133E+03  0.12509000000E+03 0.  0.
<mgrwt>
<rscale>  2 0.45641571E+03</rscale>
<asrwt>0</asrwt>
<pdfrwt beam="1">  1       21 0.74856560E-02 0.45641571E+03</pdfrwt>
<pdfrwt beam="2">  1       21 0.15045738E+00 0.45641571E+03</pdfrwt>
<totfact> 0.36009002E+04</totfact>
</mgrwt>
</event>
<event>
 7    0  0.4784406E-002  0.4410493E+03  0.7546771E-02  0.1030425E+00
         21   -1    0    0  502  501  0.00000000000E+00  0.00000000000E+00  0.10946741090E+03  0.10946741090E+03  0.00000000000E+00 0. -1.
         21   -1    0    0  501  502 -0.00000000000E+00 -0.00000000000E+00 -0.44425203072E+03  0.44425203072E+03  0.00000000000E+00 0. -1.
      99926    2    1    2    0    0  0.00000000000E+00  0.00000000000E+00 -0.33478461982E+03  0.55371944161E+03  0.44104929243E+03 0.  0.
      99925    2    3    3    0    0 -0.58741951068E+02  0.20425826237E+02 -0.11573672276E+03  0.29391697723E+03  0.26291513710E+03 0.  0.
         25    1    4    4    0    0 -0.70374095941E+02  0.11084731934E+02 -0.67891549229E+02  0.15916078417E+03  0.12509000000E+03 0.  0.
         25    1    4    4    0    0  0.11632144873E+02  0.93410943023E+01 -0.47845173530E+02  0.13475619306E+03  0.12509000000E+03 0.  0.
         25    1    3    3    0    0  0.58741951068E+02 -0.20425826237E+02 -0.21904789706E+03  0.25980246439E+03  0.12509000000E+03 0.  0.
<mgrwt>
<rscale>  2 0.44104929E+03</rscale>
<asrwt>0</asrwt>
<pdfrwt beam="1">  1       21 0.16098149E-01 0.44104929E+03</pdfrwt>
<pdfrwt beam="2">  1       21 0.65331179E-01 0.44104929E+03</pdfrwt>
<totfact> 0.68918351E+04</totfact>
</mgrwt>
</event>
<event>
 7    0  0.4784406E-002  0.4527548E+03  0.7546771E-02  0.1026904E+00
         21   -1    0    0  502  501  0.00000000000E+00  0.00000000000E+00  0.67509169937E+02  0.67509169937E+02  0.00000000000E+00 0. -1.
         21   -1    0    0  501  502 -0.00000000000E+00 -0.00000000000E+00 -0.75910764412E+03  0.75910764412E+03  0.00000000000E+00 0. -1.
      99926    2    1    2    0    0  0.00000000000E+00  0.00000000000E+00 -0.69159847418E+03  0.82661681405E+03  0.45275479875E+03 0.  0.
      99925    2    3    3    0    0 -0.26473369023E+02 -0.55296274946E+02 -0.60437946150E+03  0.66225994148E+03  0.26373315930E+03 0.  0.
         25    1    4    4    0    0 -0.29470227631E+02 -0.48683654916E+02 -0.23531917652E+03  0.27250911088E+03  0.12509000000E+03 0.  0.
         25    1    4    4    0    0  0.29968586077E+01 -0.66126200298E+01 -0.36906028497E+03  0.38975083060E+03  0.12509000000E+03 0.  0.
         25    1    3    3    0    0  0.26473369023E+02  0.55296274946E+02 -0.87219012683E+02  0.16435687258E+03  0.12509000000E+03 0.  0.
<mgrwt>
<rscale>  2 0.45275480E+03</rscale>
<asrwt>0</asrwt>
<pdfrwt beam="1">  1       21 0.99278193E-02 0.45275480E+03</pdfrwt>
<pdfrwt beam="2">  1       21 0.11163348E+00 0.45275480E+03</pdfrwt>
<totfact> 0.47332523E+04</totfact>
</mgrwt>
</event>
<event>
 7    0  0.4784406E-002  0.4529410E+03  0.7546771E-02  0.1026849E+00
         21   -1    0    0  502  501  0.00000000000E+00  0.00000000000E+00  0.46017901731E+03  0.46017901731E+03  0.00000000000E+00 0.  1.
         21   -1    0    0  501  502 -0.00000000000E+00 -0.00000000000E+00 -0.11145418824E+03  0.11145418824E+03  0.00000000000E+00 0.  1.
      99926    2    1    2    0    0  0.00000000000E+00  0.35527136788E-14  0.34872482907E+03  0.57163320554E+03  0.45294096224E+03 0.  0.
      99925    2    3    3    0    0  0.97066784593E+02 -0.19596770534E+02  0.15586617477E+03  0.32133745503E+03  0.26297813879E+03 0.  0.
         25    1    3    3    0    0 -0.97066784593E+02  0.19596770534E+02  0.19285865430E+03  0.25029575051E+03  0.12509000000E+03 0.  0.
         25    1    4    4    0    0  0.56516775916E+02  0.19877110959E+02  0.48103665805E+02  0.14680162214E+03  0.12509000000E+03 0.  0.
         25    1    4    4    0    0  0.40550008677E+02 -0.39473881493E+02  0.10776250897E+03  0.17453583289E+03  0.12509000000E+03 0.  0.
<mgrwt>
<rscale>  2 0.45294096E+03</rscale>
<asrwt>0</asrwt>
<pdfrwt beam="1">  1       21 0.67673384E-01 0.45294096E+03</pdfrwt>
<pdfrwt beam="2">  1       21 0.16390322E-01 0.45294096E+03</pdfrwt>
<totfact> 0.61453676E+04</totfact>
</mgrwt>
</event>
<event>
 7    0  0.4784406E-002  0.4583954E+03  0.7546771E-02  0.1025248E+00
         21   -1    0    0  502  501  0.00000000000E+00  0.00000000000E+00  0.54889786834E+03  0.54889786834E+03  0.00000000000E+00 0. -1.
         21   -1    0    0  501  502 -0.00000000000E+00 -0.00000000000E+00 -0.95703753384E+02  0.95703753384E+02  0.00000000000E+00 0. -1.
      99926    2    1    2    0    0  0.00000000000E+00  0.00000000000E+00  0.45319411496E+03  0.64460162173E+03  0.45839540236E+03 0.  0.
      99925    2    3    3    0    0  0.67248329406E+02 -0.94734784599E+02  0.27747324266E+03  0.39960702938E+03  0.26305391142E+03 0.  0.
         25    1    3    3    0    0 -0.67248329406E+02  0.94734784599E+02  0.17572087230E+03  0.24499459235E+03  0.12509000000E+03 0.  0.
         25    1    4    4    0    0  0.87759388815E+01 -0.78229625003E+02  0.15689842079E+03  0.21554933050E+03  0.12509000000E+03 0.  0.
         25    1    4    4    0    0  0.58472390524E+02 -0.16505159596E+02  0.12057482187E+03  0.18405769887E+03  0.12509000000E+03 0.  0.
<mgrwt>
<rscale>  2 0.45839540E+03</rscale>
<asrwt>0</asrwt>
<pdfrwt beam="1">  1       21 0.80720274E-01 0.45839540E+03</pdfrwt>
<pdfrwt beam="2">  1       21 0.14074082E-01 0.45839540E+03</pdfrwt>
<totfact> 0.54537655E+04</totfact>
</mgrwt>
</event>
<event>
 7    0  0.4784406E-002  0.4587696E+03  0.7546771E-02  0.1025139E+00
         21   -1    0    0  502  501  0.00000000000E+00  0.00000000000E+00  0.15304560295E+04  0.15304560295E+04  0.00000000000E+00 0.  1.
         21   -1    0    0  501  502 -0.00000000000E+00 -0.00000000000E+00 -0.34380198051E+02  0.34380198051E+02  0.00000000000E+00 0.  1.
      99926    2    1    2    0    0  0.00000000000E+00  0.00000000000E+00  0.14960758314E+04  0.15648362275E+04  0.45876957790E+03 0.  0.
      99925    2    3    3    0    0  0.84772090195E+02 -0.76796031549E+02  0.10166808389E+04  0.10563571181E+04  0.26299523779E+03 0.  0.
         25    1    4    4    0    0  0.62967237910E+02 -0.54797259936E+02  0.42547829889E+03  0.45127253813E+03  0.12509000000E+03 0.  0.
         25    1    4    4    0    0  0.21804852286E+02 -0.21998771613E+02  0.59120253997E+03  0.60508457995E+03  0.12509000000E+03 0.  0.
         25    1    3    3    0    0 -0.84772090195E+02  0.76796031549E+02  0.47939499258E+03  0.50847910946E+03  0.12509000000E+03 0.  0.
<mgrwt>
<rscale>  2 0.45876958E+03</rscale>
<asrwt>0</asrwt>
<pdfrwt beam="1">  1       21 0.22506702E+00 0.45876958E+03</pdfrwt>
<pdfrwt beam="2">  1       21 0.50559125E-02 0.45876958E+03</pdfrwt>
<totfact> 0.21594785E+04</totfact>
</mgrwt>
</event>
<event>
 7    0  0.4784406E-002  0.4595849E+03  0.7546771E-02  0.1024902E+00
         21   -1    0    0  502  501  0.00000000000E+00  0.00000000000E+00  0.65809803881E+02  0.65809803881E+02  0.00000000000E+00 0. -1.
         21   -1    0    0  501  502 -0.00000000000E+00 -0.00000000000E+00 -0.80238136705E+03  0.80238136705E+03  0.00000000000E+00 0. -1.
      99926    2    1    2    0    0 -0.14210854715E-13 -0.71054273576E-14 -0.73657156317E+03  0.86819117093E+03  0.45958485790E+03 0.  0.
      99925    2    3    3    0    0  0.91504550509E+02  0.59010766506E+02 -0.54451985506E+03  0.61444578671E+03  0.26303307571E+03 0.  0.
         25    1    4    4    0    0  0.87050944749E+02  0.43652580392E+02 -0.30856642240E+03  0.34690655786E+03  0.12509000000E+03 0.  0.
         25    1    3    3    0    0 -0.91504550509E+02 -0.59010766506E+02 -0.19205170810E+03  0.25374538422E+03  0.12509000000E+03 0.  0.
         25    1    4    4    0    0  0.44536057606E+01  0.15358186114E+02 -0.23595343267E+03  0.26753922885E+03  0.12509000000E+03 0.  0.
<mgrwt>
<rscale>  2 0.45958486E+03</rscale>
<asrwt>0</asrwt>
<pdfrwt beam="1">  1       21 0.96779130E-02 0.45958486E+03</pdfrwt>
<pdfrwt beam="2">  1       21 0.11799725E+00 0.45958486E+03</pdfrwt>
<totfact> 0.43066544E+04</totfact>
</mgrwt>
</event>
<event>
 7    0  0.4784406E-002  0.4483449E+03  0.7546771E-02  0.1028217E+00
         21   -1    0    0  502  501  0.00000000000E+00  0.00000000000E+00  0.57237533923E+03  0.57237533923E+03  0.00000000000E+00 0.  1.
         21   -1    0    0  501  502 -0.00000000000E+00 -0.00000000000E+00 -0.87797768614E+02  0.87797768614E+02  0.00000000000E+00 0.  1.
      99926    2    1    2    0    0  0.00000000000E+00  0.00000000000E+00  0.48457757061E+03  0.66017310784E+03  0.44834485653E+03 0.  0.
      99925    2    3    3    0    0 -0.11217500538E+02 -0.94072288549E+02  0.37951548342E+03  0.47133196281E+03  0.26295701021E+03 0.  0.
         25    1    3    3    0    0  0.11217500538E+02  0.94072288549E+02  0.10506208720E+03  0.18884114503E+03  0.12509000000E+03 0.  0.
         25    1    4    4    0    0 -0.89299100101E+01 -0.78023946635E+02  0.25117822980E+03  0.29138546766E+03  0.12509000000E+03 0.  0.
         25    1    4    4    0    0 -0.22875905275E+01 -0.16048341914E+02  0.12833725362E+03  0.17994649515E+03  0.12509000000E+03 0.  0.
<mgrwt>
<rscale>  2 0.44834486E+03</rscale>
<asrwt>0</asrwt>
<pdfrwt beam="1">  1       21 0.84172842E-01 0.44834486E+03</pdfrwt>
<pdfrwt beam="2">  1       21 0.12911437E-01 0.44834486E+03</pdfrwt>
<totfact> 0.58108526E+04</totfact>
</mgrwt>
</event>
<event>
 7    0  0.4784406E-002  0.4513826E+03  0.7546771E-02  0.1027311E+00
         21   -1    0    0  502  501  0.00000000000E+00  0.00000000000E+00  0.30233160499E+03  0.30233160499E+03  0.00000000000E+00 0. -1.
         21   -1    0    0  501  502 -0.00000000000E+00 -0.00000000000E+00 -0.16847915175E+03  0.16847915175E+03  0.00000000000E+00 0. -1.
      99926    2    1    2    0    0  0.00000000000E+00  0.35527136788E-14  0.13385245323E+03  0.47081075674E+03  0.45138264192E+03 0.  0.
      99925    2    3    3    0    0  0.10262877462E+03  0.51231573598E+01  0.44073457087E+02  0.28569811976E+03  0.26291069567E+03 0.  0.
         25    1    3    3    0    0 -0.10262877462E+03 -0.51231573598E+01  0.89778996146E+02  0.18511263698E+03  0.12509000000E+03 0.  0.
         25    1    4    4    0    0  0.37320774943E+02 -0.27855451524E+02 -0.24456727323E+01  0.13350002186E+03  0.12509000000E+03 0.  0.
         25    1    4    4    0    0  0.65307999675E+02  0.32978608883E+02  0.46519129819E+02  0.15219809790E+03  0.12509000000E+03 0.  0.
<mgrwt>
<rscale>  2 0.45138264E+03</rscale>
<asrwt>0</asrwt>
<pdfrwt beam="1">  1       21 0.44460530E-01 0.45138264E+03</pdfrwt>
<pdfrwt beam="2">  1       21 0.24776346E-01 0.45138264E+03</pdfrwt>
<totfact> 0.69344537E+04</totfact>
</mgrwt>
</event>
<event>
 7    0  0.4784406E-002  0.4492658E+03  0.7546771E-02  0.1027941E+00
         21   -1    0    0  502  501  0.00000000000E+00  0.00000000000E+00  0.42374764875E+03  0.42374764875E+03  0.00000000000E+00 0. -1.
         21   -1    0    0  501  502 -0.00000000000E+00 -0.00000000000E+00 -0.11908017576E+03  0.11908017576E+03  0.00000000000E+00 0. -1.
      99926    2    1    2    0    0 -0.14210854715E-13  0.35527136788E-14  0.30466747300E+03  0.54282782451E+03  0.44926582104E+03 0.  0.
      99925    2    3    3    0    0 -0.85340340029E+02  0.18065860457E+02  0.26912659371E+03  0.38623915585E+03  0.26294906945E+03 0.  0.
         25    1    4    4    0    0 -0.11248045732E+02  0.32685170475E+02  0.10916344161E+03  0.16958479881E+03  0.12509000000E+03 0.  0.
         25    1    4    4    0    0 -0.74092294297E+02 -0.14619310018E+02  0.15996315210E+03  0.21665435705E+03  0.12509000000E+03 0.  0.
         25    1    3    3    0    0  0.85340340029E+02 -0.18065860457E+02  0.35540879291E+02  0.15658866866E+03  0.12509000000E+03 0.  0.
<mgrwt>
<rscale>  2 0.44926582E+03</rscale>
<asrwt>0</asrwt>
<pdfrwt beam="1">  1       21 0.62315830E-01 0.44926582E+03</pdfrwt>
<pdfrwt beam="2">  1       21 0.17511791E-01 0.44926582E+03</pdfrwt>
<totfact> 0.65253899E+04</totfact>
</mgrwt>
</event>
<event>
 7    0  0.4784406E-002  0.4472739E+03  0.7546771E-02  0.1028538E+00
         21   -1    0    0  502  501  0.00000000000E+00  0.00000000000E+00  0.41874320819E+02  0.41874320819E+02  0.00000000000E+00 0.  1.
         21   -1    0    0  501  502 -0.00000000000E+00 -0.00000000000E+00 -0.11943712948E+04  0.11943712948E+04  0.00000000000E+00 0.  1.
      99926    2    1    2    0    0  0.71054273576E-14  0.71054273576E-14 -0.11524969740E+04  0.12362456156E+04  0.44727390612E+03 0.  0.
      99925    2    3    3    0    0 -0.53166097056E+02 -0.34058166810E+02 -0.49549879114E+03  0.56447131352E+03  0.26291104801E+03 0.  0.
         25    1    4    4    0    0 -0.97288027630E+01  0.19221258804E+02 -0.21274851063E+03  0.24773684277E+03  0.12509000000E+03 0.  0.
         25    1    4    4    0    0 -0.43437294293E+02 -0.53279425614E+02 -0.28275028051E+03  0.31673447074E+03  0.12509000000E+03 0.  0.
         25    1    3    3    0    0  0.53166097056E+02  0.34058166810E+02 -0.65699818283E+03  0.67177430209E+03  0.12509000000E+03 0.  0.
<mgrwt>
<rscale>  2 0.44727391E+03</rscale>
<asrwt>0</asrwt>
<pdfrwt beam="1">  1       21 0.61579895E-02 0.44727391E+03</pdfrwt>
<pdfrwt beam="2">  1       21 0.17564281E+00 0.44727391E+03</pdfrwt>
<totfact> 0.32962439E+04</totfact>
</mgrwt>
</event>
<event>
 7    0  0.4784406E-002  0.4488467E+03  0.7546771E-02  0.1028067E+00
         21   -1    0    0  502  501  0.00000000000E+00  0.00000000000E+00  0.12976224992E+03  0.12976224992E+03  0.00000000000E+00 0.  1.
         21   -1    0    0  501  502 -0.00000000000E+00 -0.00000000000E+00 -0.38813930664E+03  0.38813930664E+03  0.00000000000E+00 0.  1.
      99926    2    1    2    0    0  0.22204460493E-15  0.00000000000E+00 -0.25837705673E+03  0.51790155656E+03  0.44884665404E+03 0.  0.
      99925    2    3    3    0    0  0.15102014147E+01  0.77022589901E+02 -0.24977483252E+03  0.37074087423E+03  0.26291931994E+03 0.  0.
         25    1    4    4    0    0  0.49100188797E+01  0.47220439743E+02 -0.18036667763E+03  0.22457409627E+03  0.12509000000E+03 0.  0.
         25    1    3    3    0    0 -0.15102014147E+01 -0.77022589901E+02 -0.86022242019E+01  0.14716068233E+03  0.12509000000E+03 0.  0.
         25    1    4    4    0    0 -0.33998174649E+01  0.29802150158E+02 -0.69408154895E+02  0.14616677796E+03  0.12509000000E+03 0.  0.
<mgrwt>
<rscale>  2 0.44884665E+03</rscale>
<asrwt>0</asrwt>
<pdfrwt beam="1">  1       21 0.19082684E-01 0.44884665E+03</pdfrwt>
<pdfrwt beam="2">  1       21 0.57079309E-01 0.44884665E+03</pdfrwt>
<totfact> 0.67254079E+04</totfact>
</mgrwt>
</event>
<event>
 7    0  0.4784406E-002  0.4586290E+03  0.7546771E-02  0.1025180E+00
         21   -1    0    0  502  501  0.00000000000E+00  0.00000000000E+00  0.67440597432E+02  0.67440597432E+02  0.00000000000E+00 0.  1.
         21   -1    0    0  501  502 -0.00000000000E+00 -0.00000000000E+00 -0.77972544217E+03  0.77972544217E+03  0.00000000000E+00 0.  1.
      99926    2    1    2    0    0  0.00000000000E+00 -0.17763568394E-14 -0.71228484474E+03  0.84716603961E+03  0.45862904249E+03 0.  0.
      99925    2    3    3    0    0 -0.11416508463E+03 -0.15690967236E+02 -0.41469633419E+03  0.50440328972E+03  0.26300143742E+03 0.  0.
         25    1    4    4    0    0 -0.20231056538E+02  0.14808312601E+02 -0.17540959808E+03  0.21689771084E+03  0.12509000000E+03 0.  0.
         25    1    3    3    0    0  0.11416508463E+03  0.15690967236E+02 -0.29758851055E+03  0.34276274989E+03  0.12509000000E+03 0.  0.
         25    1    4    4    0    0 -0.93934028090E+02 -0.30499279837E+02 -0.23928673612E+03  0.28750557888E+03  0.12509000000E+03 0.  0.
<mgrwt>
<rscale>  2 0.45862904E+03</rscale>
<asrwt>0</asrwt>
<pdfrwt beam="1">  1       21 0.99177346E-02 0.45862904E+03</pdfrwt>
<pdfrwt beam="2">  1       21 0.11466551E+00 0.45862904E+03</pdfrwt>
<totfact> 0.44291926E+04</totfact>
</mgrwt>
</event>
<event>
 7    0  0.4784406E-002  0.4540601E+03  0.7546771E-02  0.1026518E+00
         21   -1    0    0  502  501  0.00000000000E+00  0.00000000000E+00  0.86163462637E+03  0.86163462637E+03  0.00000000000E+00 0.  1.
         21   -1    0    0  501  502 -0.00000000000E+00 -0.00000000000E+00 -0.59819602694E+02  0.59819602694E+02  0.00000000000E+00 0.  1.
      99926    2    1    2    0    0  0.00000000000E+00  0.00000000000E+00  0.80181502368E+03  0.92145422907E+03  0.45406008861E+03 0.  0.
      99925    2    3    3    0    0 -0.11011213402E+03 -0.27747215775E+02  0.49456228088E+03  0.57081717156E+03  0.26143030359E+03 0.  0.
         25    1    4    4    0    0 -0.70252180279E+02  0.11332862690E+01  0.31833427968E+03  0.34917169829E+03  0.12509000000E+03 0.  0.
         25    1    3    3    0    0  0.11011213402E+03  0.27747215775E+02  0.30725274280E+03  0.35063705751E+03  0.12509000000E+03 0.  0.
         25    1    4    4    0    0 -0.39859953740E+02 -0.28880502044E+02  0.17622800120E+03  0.22164547326E+03  0.12509000000E+03 0.  0.
<mgrwt>
<rscale>  2 0.45406009E+03</rscale>
<asrwt>0</asrwt>
<pdfrwt beam="1">  1       21 0.12671097E+00 0.45406009E+03</pdfrwt>
<pdfrwt beam="2">  1       21 0.87970009E-02 0.45406009E+03</pdfrwt>
<totfact> 0.42631497E+04</totfact>
</mgrwt>
</event>
<event>
 7    0  0.4784406E-002  0.4535231E+03  0.7546771E-02  0.1026677E+00
         21   -1    0    0  502  501  0.00000000000E+00  0.00000000000E+00  0.95004517162E+02  0.95004517162E+02  0.00000000000E+00 0. -1.
         21   -1    0    0  501  502 -0.00000000000E+00 -0.00000000000E+00 -0.54124591613E+03  0.54124591613E+03  0.00000000000E+00 0. -1.
      99926    2    1    2    0    0 -0.35527136788E-14 -0.71054273576E-14 -0.44624139897E+03  0.63625043329E+03  0.45352312809E+03 0.  0.
      99925    2    3    3    0    0 -0.31869656593E+02 -0.45272912922E+02 -0.41740626004E+03  0.49644955707E+03  0.26299974361E+03 0.  0.
         25    1    4    4    0    0 -0.39144175161E+01 -0.13460920699E+02 -0.27381411657E+03  0.30136057735E+03  0.12509000000E+03 0.  0.
         25    1    4    4    0    0 -0.27955239077E+02 -0.31811992223E+02 -0.14359214347E+03  0.19508897972E+03  0.12509000000E+03 0.  0.
         25    1    3    3    0    0  0.31869656593E+02  0.45272912922E+02 -0.28835138934E+02  0.13980087622E+03  0.12509000000E+03 0.  0.
<mgrwt>
<rscale>  2 0.45352313E+03</rscale>
<asrwt>0</asrwt>
<pdfrwt beam="1">  1       21 0.13971253E-01 0.45352313E+03</pdfrwt>
<pdfrwt beam="2">  1       21 0.79594986E-01 0.45352313E+03</pdfrwt>
<totfact> 0.57164035E+04</totfact>
</mgrwt>
</event>
<event>
 7    0  0.4784406E-002  0.4543433E+03  0.7546771E-02  0.1026435E+00
         21   -1    0    0  502  501  0.00000000000E+00  0.00000000000E+00  0.50782506905E+03  0.50782506905E+03  0.00000000000E+00 0.  1.
         21   -1    0    0  501  502 -0.00000000000E+00 -0.00000000000E+00 -0.10162351216E+03  0.10162351216E+03  0.00000000000E+00 0.  1.
      99926    2    1    2    0    0  0.00000000000E+00  0.00000000000E+00  0.40620155689E+03  0.60944858121E+03  0.45434333748E+03 0.  0.
      99925    2    3    3    0    0 -0.12099423064E+02 -0.41189263184E+02  0.39534943255E+03  0.47675258224E+03  0.26296178317E+03 0.  0.
         25    1    3    3    0    0  0.12099423064E+02  0.41189263184E+02  0.10852124339E+02  0.13269599897E+03  0.12509000000E+03 0.  0.
         25    1    4    4    0    0  0.65979725822E+01 -0.21598153755E+02  0.26586424594E+03  0.29468851158E+03  0.12509000000E+03 0.  0.
         25    1    4    4    0    0 -0.18697395646E+02 -0.19591109429E+02  0.12948518662E+03  0.18206407066E+03  0.12509000000E+03 0.  0.
<mgrwt>
<rscale>  2 0.45434334E+03</rscale>
<asrwt>0</asrwt>
<pdfrwt beam="1">  1       21 0.74680156E-01 0.45434334E+03</pdfrwt>
<pdfrwt beam="2">  1       21 0.14944634E-01 0.45434334E+03</pdfrwt>
<totfact> 0.58402768E+04</totfact>
</mgrwt>
</event>
<event>
 7    0  0.4784406E-002  0.4532124E+03  0.7546771E-02  0.1026768E+00
         21   -1    0    0  502  501  0.00000000000E+00  0.00000000000E+00  0.36151798986E+03  0.36151798986E+03  0.00000000000E+00 0. -1.
         21   -1    0    0  501  502 -0.00000000000E+00 -0.00000000000E+00 -0.14204101087E+03  0.14204101087E+03  0.00000000000E+00 0. -1.
      99926    2    1    2    0    0  0.44408920985E-15  0.00000000000E+00  0.21947697899E+03  0.50355900073E+03  0.45321244788E+03 0.  0.
      99925    2    3    3    0    0 -0.27412302389E+01  0.77500614579E+02  0.49298788849E+02  0.27856570283E+03  0.26297266133E+03 0.  0.
         25    1    4    4    0    0  0.79064653678E+01  0.42078165550E+02  0.64735207269E+02  0.14721154632E+03  0.12509000000E+03 0.  0.
         25    1    4    4    0    0 -0.10647695607E+02  0.35422449029E+02 -0.15436418420E+02  0.13135415650E+03  0.12509000000E+03 0.  0.
         25    1    3    3    0    0  0.27412302389E+01 -0.77500614579E+02  0.17017819014E+03  0.22499329790E+03  0.12509000000E+03 0.  0.
<mgrwt>
<rscale>  2 0.45321245E+03</rscale>
<asrwt>0</asrwt>
<pdfrwt beam="1">  1       21 0.53164410E-01 0.45321245E+03</pdfrwt>
<pdfrwt beam="2">  1       21 0.20888384E-01 0.45321245E+03</pdfrwt>
<totfact> 0.65952151E+04</totfact>
</mgrwt>
</event>
<event>
 7    0  0.4784406E-002  0.4596798E+03  0.7546771E-02  0.1024874E+00
         21   -1    0    0  502  501  0.00000000000E+00  0.00000000000E+00  0.34137539498E+03  0.34137539498E+03  0.00000000000E+00 0.  1.
         21   -1    0    0  501  502 -0.00000000000E+00 -0.00000000000E+00 -0.15474569305E+03  0.15474569305E+03  0.00000000000E+00 0.  1.
      99926    2    1    2    0    0  0.00000000000E+00  0.00000000000E+00  0.18662970193E+03  0.49612108803E+03  0.45967976717E+03 0.  0.
      99925    2    3    3    0    0  0.41461392381E+02 -0.85015837772E+02  0.19212695547E+03  0.33919923606E+03  0.26305249474E+03 0.  0.
         25    1    3    3    0    0 -0.41461392381E+02  0.85015837772E+02 -0.54972535412E+01  0.15692185197E+03  0.12509000000E+03 0.  0.
         25    1    4    4    0    0  0.33969953352E+02 -0.64948794088E+02  0.14142308126E+03  0.20253468739E+03  0.12509000000E+03 0.  0.
         25    1    4    4    0    0  0.74914390290E+01 -0.20067043684E+02  0.50703874214E+02  0.13666454866E+03  0.12509000000E+03 0.  0.
<mgrwt>
<rscale>  2 0.45967977E+03</rscale>
<asrwt>0</asrwt>
<pdfrwt beam="1">  1       21 0.50202264E-01 0.45967977E+03</pdfrwt>
<pdfrwt beam="2">  1       21 0.22756720E-01 0.45967977E+03</pdfrwt>
<totfact> 0.63164596E+04</totfact>
</mgrwt>
</event>
<event>
 7    0  0.4784406E-002  0.4550950E+03  0.7546771E-02  0.1026213E+00
         21   -1    0    0  502  501  0.00000000000E+00  0.00000000000E+00  0.10610377303E+04  0.10610377303E+04  0.00000000000E+00 0. -1.
         21   -1    0    0  501  502 -0.00000000000E+00 -0.00000000000E+00 -0.48799269149E+02  0.48799269149E+02  0.00000000000E+00 0. -1.
      99926    2    1    2    0    0  0.00000000000E+00  0.00000000000E+00  0.10122384612E+04  0.11098369995E+04  0.45509500449E+03 0.  0.
      99925    2    3    3    0    0  0.50551812899E+02 -0.13884094870E+02  0.88176217357E+03  0.92163544898E+03  0.26298120884E+03 0.  0.
         25    1    4    4    0    0  0.57684086431E+02 -0.12755762207E+02  0.37782361846E+03  0.40235352374E+03  0.12509000000E+03 0.  0.
         25    1    3    3    0    0 -0.50551812899E+02  0.13884094870E+02  0.13047628759E+03  0.18820155047E+03  0.12509000000E+03 0.  0.
         25    1    4    4    0    0 -0.71322735319E+01 -0.11283326628E+01  0.50393855511E+03  0.51928192524E+03  0.12509000000E+03 0.  0.
<mgrwt>
<rscale>  2 0.45509500E+03</rscale>
<asrwt>0</asrwt>
<pdfrwt beam="1">  1       21 0.15603495E+00 0.45509500E+03</pdfrwt>
<pdfrwt beam="2">  1       21 0.71763638E-02 0.45509500E+03</pdfrwt>
<totfact> 0.35125850E+04</totfact>
</mgrwt>
</event>
<event>
 7    0  0.4784406E-002  0.4622403E+03  0.7546771E-02  0.1024133E+00
         21   -1    0    0  502  501  0.00000000000E+00  0.00000000000E+00  0.14994527867E+04  0.14994527867E+04  0.00000000000E+00 0.  1.
         21   -1    0    0  501  502 -0.00000000000E+00 -0.00000000000E+00 -0.35624007259E+02  0.35624007259E+02  0.00000000000E+00 0.  1.
      99926    2    1    2    0    0 -0.99920072216E-15  0.00000000000E+00  0.14638287795E+04  0.15350767940E+04  0.46224027068E+03 0.  0.
      99925    2    3    3    0    0  0.25952889513E+00  0.11958639260E+03  0.94020227996E+03  0.98359407283E+03  0.26301330805E+03 0.  0.
         25    1    4    4    0    0  0.25636895454E+02  0.78098689165E+02  0.40357606375E+03  0.43043908162E+03  0.12509000000E+03 0.  0.
         25    1    3    3    0    0 -0.25952889513E+00 -0.11958639260E+03  0.52362649951E+03  0.55148272116E+03  0.12509000000E+03 0.  0.
         25    1    4    4    0    0 -0.25377366558E+02  0.41487703431E+02  0.53662621621E+03  0.55315499121E+03  0.12509000000E+03 0.  0.
<mgrwt>
<rscale>  2 0.46224027E+03</rscale>
<asrwt>0</asrwt>
<pdfrwt beam="1">  1       21 0.22050772E+00 0.46224027E+03</pdfrwt>
<pdfrwt beam="2">  1       21 0.52388256E-02 0.46224027E+03</pdfrwt>
<totfact> 0.21687036E+04</totfact>
</mgrwt>
</event>
<event>
 7    0  0.4784406E-002  0.4514859E+03  0.7546771E-02  0.1027280E+00
         21   -1    0    0  502  501  0.00000000000E+00  0.00000000000E+00  0.91704253557E+03  0.91704253557E+03  0.00000000000E+00 0. -1.
         21   -1    0    0  501  502 -0.00000000000E+00 -0.00000000000E+00 -0.55569799469E+02  0.55569799469E+02  0.00000000000E+00 0. -1.
      99926    2    1    2    0    0  0.00000000000E+00  0.00000000000E+00  0.86147273611E+03  0.97261233504E+03  0.45148585717E+03 0.  0.
      99925    2    3    3    0    0 -0.75890114312E+02  0.75413720332E+02  0.59678606115E+03  0.66091844247E+03  0.26308372462E+03 0.  0.
         25    1    4    4    0    0 -0.42011042238E+02  0.39610841321E+02  0.20755074906E+03  0.24911597290E+03  0.12509000000E+03 0.  0.
         25    1    3    3    0    0  0.75890114312E+02 -0.75413720332E+02  0.26468667496E+03  0.31169389257E+03  0.12509000000E+03 0.  0.
         25    1    4    4    0    0 -0.33879072073E+02  0.35802879011E+02  0.38923531209E+03  0.41180246957E+03  0.12509000000E+03 0.  0.
<mgrwt>
<rscale>  2 0.45148586E+03</rscale>
<asrwt>0</asrwt>
<pdfrwt beam="1">  1       21 0.13485919E+00 0.45148586E+03</pdfrwt>
<pdfrwt beam="2">  1       21 0.81720299E-02 0.45148586E+03</pdfrwt>
<totfact> 0.41363177E+04</totfact>
</mgrwt>
</event>
<event>
 7    0  0.4784406E-002  0.4661898E+03  0.7546771E-02  0.1023001E+00
         21   -1    0    0  502  501  0.00000000000E+00  0.00000000000E+00  0.19453144053E+04  0.19453144053E+04  0.00000000000E+00 0. -1.
         21   -1    0    0  501  502 -0.00000000000E+00 -0.00000000000E+00 -0.27930304123E+02  0.27930304123E+02  0.00000000000E+00 0. -1.
      99926    2    1    2    0    0 -0.14210854715E-13 -0.35527136788E-14  0.19173841012E+04  0.19732447095E+04  0.46618975946E+03 0.  0.
      99925    2    3    3    0    0 -0.10253133476E+03 -0.29740708783E+02  0.14564647913E+04  0.14838662233E+04  0.26300588584E+03 0.  0.
         25    1    4    4    0    0 -0.22116055088E+02 -0.40535288015E+02  0.61433132514E+03  0.62863559764E+03  0.12509000000E+03 0.  0.
         25    1    3    3    0    0  0.10253133476E+03  0.29740708783E+02  0.46091930997E+03  0.48937848622E+03  0.12509000000E+03 0.  0.
         25    1    4    4    0    0 -0.80415279674E+02  0.10794579232E+02  0.84213346611E+03  0.85523062561E+03  0.12509000000E+03 0.  0.
<mgrwt>
<rscale>  2 0.46618976E+03</rscale>
<asrwt>0</asrwt>
<pdfrwt beam="1">  1       21 0.28607556E+00 0.46618976E+03</pdfrwt>
<pdfrwt beam="2">  1       21 0.41073990E-02 0.46618976E+03</pdfrwt>
<totfact> 0.12986645E+04</totfact>
</mgrwt>
</event>
<event>
 6    0  0.4784406E-002  0.4557248E+03  0.7546771E-02  0.1026028E+00
         21   -1    0    0  502  501  0.00000000000E+00  0.00000000000E+00  0.60265671443E+02  0.60265671443E+02  0.00000000000E+00 0. -1.
         21   -1    0    0  501  502 -0.00000000000E+00 -0.00000000000E+00 -0.86153963982E+03  0.86153963982E+03  0.00000000000E+00 0. -1.
      99926    2    1    2    0    0 -0.14210854715E-13  0.00000000000E+00 -0.80127396838E+03  0.92180531127E+03  0.45572476285E+03 0.  0.
         25    1    3    3    0    0 -0.91506713142E+01  0.28232467783E+02 -0.19080314428E+03  0.23007423799E+03  0.12509000000E+03 0.  0.
         25    1    3    3    0    0 -0.81530772372E+02 -0.41736221156E+02 -0.20080762757E+03  0.25369349694E+03  0.12509000000E+03 0.  0.
         25    1    3    3    0    0  0.90681443686E+02  0.13503753373E+02 -0.40966319653E+03  0.43803757633E+03  0.12509000000E+03 0.  0.
<mgrwt>
<rscale>  2 0.45572476E+03</rscale>
<asrwt>0</asrwt>
<pdfrwt beam="1">  1       21 0.88625989E-02 0.45572476E+03</pdfrwt>
<pdfrwt beam="2">  1       21 0.12669700E+00 0.45572476E+03</pdfrwt>
<totfact> 0.42065170E+04</totfact>
</mgrwt>
</event>
<event>
 7    0  0.4784406E-002  0.4346314E+03  0.7546771E-02  0.1032407E+00
         21   -1    0    0  502  501  0.00000000000E+00  0.00000000000E+00  0.12750447644E+04  0.12750447644E+04  0.00000000000E+00 0.  1.
         21   -1    0    0  501  502 -0.00000000000E+00 -0.00000000000E+00 -0.37038792257E+02  0.37038792257E+02  0.00000000000E+00 0.  1.
      99926    2    1    2    0    0  0.00000000000E+00  0.00000000000E+00  0.12380059722E+04  0.13120835567E+04  0.43463142155E+03 0.  0.
      99925    2    3    3    0    0  0.25778285692E+02 -0.72995830001E+02  0.64012234602E+03  0.69636832240E+03  0.26301960261E+03 0.  0.
         25    1    4    4    0    0 -0.25531884270E+02 -0.38995227912E+02  0.34664371836E+03  0.37145912358E+03  0.12509000000E+03 0.  0.
         25    1    3    3    0    0 -0.25778285692E+02  0.72995830001E+02  0.59788362616E+03  0.61571523430E+03  0.12509000000E+03 0.  0.
         25    1    4    4    0    0  0.51310169962E+02 -0.34000602089E+02  0.29347862766E+03  0.32490919882E+03  0.12509000000E+03 0.  0.
<mgrwt>
<rscale>  2 0.43463142E+03</rscale>
<asrwt>0</asrwt>
<pdfrwt beam="1">  1       21 0.18750655E+00 0.43463142E+03</pdfrwt>
<pdfrwt beam="2">  1       21 0.54468821E-02 0.43463142E+03</pdfrwt>
<totfact> 0.33812743E+04</totfact>
</mgrwt>
</event>
<event>
 7    0  0.4784406E-002  0.4578856E+03  0.7546771E-02  0.1025396E+00
         21   -1    0    0  502  501  0.00000000000E+00  0.00000000000E+00  0.10226558269E+03  0.10226558269E+03  0.00000000000E+00 0.  1.
         21   -1    0    0  501  502 -0.00000000000E+00 -0.00000000000E+00 -0.51253605143E+03  0.51253605143E+03  0.00000000000E+00 0.  1.
      99926    2    1    2    0    0  0.71054273576E-14  0.35527136788E-14 -0.41027046874E+03  0.61480163412E+03  0.45788556626E+03 0.  0.
      99925    2    3    3    0    0 -0.61388314191E+02  0.15575276395E+02 -0.38782347797E+03  0.47280695165E+03  0.26292251542E+03 0.  0.
         25    1    4    4    0    0 -0.13445331295E+02  0.35092171702E+02 -0.14783616803E+03  0.19726955702E+03  0.12509000000E+03 0.  0.
         25    1    3    3    0    0  0.61388314191E+02 -0.15575276395E+02 -0.22446990777E+02  0.14199468247E+03  0.12509000000E+03 0.  0.
         25    1    4    4    0    0 -0.47942982896E+02 -0.19516895307E+02 -0.23998730994E+03  0.27553739463E+03  0.12509000000E+03 0.  0.
<mgrwt>
<rscale>  2 0.45788557E+03</rscale>
<asrwt>0</asrwt>
<pdfrwt beam="1">  1       21 0.15039056E-01 0.45788557E+03</pdfrwt>
<pdfrwt beam="2">  1       21 0.75372948E-01 0.45788557E+03</pdfrwt>
<totfact> 0.56478135E+04</totfact>
</mgrwt>
</event>
<event>
 7    0  0.4784406E-002  0.4371099E+03  0.7546771E-02  0.1031637E+00
         21   -1    0    0  502  501  0.00000000000E+00  0.00000000000E+00  0.19312832292E+03  0.19312832292E+03  0.00000000000E+00 0.  1.
         21   -1    0    0  501  502 -0.00000000000E+00 -0.00000000000E+00 -0.24732911563E+03  0.24732911563E+03  0.00000000000E+00 0.  1.
      99926    2    1    2    0    0  0.00000000000E+00 -0.14210854715E-13 -0.54200792708E+02  0.44045743855E+03  0.43710985947E+03 0.  0.
      99925    2    3    3    0    0  0.10972462049E+02  0.82627408992E+02  0.12033508033E+02  0.27619492203E+03  0.26304209929E+03 0.  0.
         25    1    4    4    0    0  0.13804271793E+02  0.15615185368E+02  0.36948839750E+02  0.13208753458E+03  0.12509000000E+03 0.  0.
         25    1    4    4    0    0 -0.28318097438E+01  0.67012223625E+02 -0.24915331717E+02  0.14410738744E+03  0.12509000000E+03 0.  0.
         25    1    3    3    0    0 -0.10972462049E+02 -0.82627408992E+02 -0.66234300742E+02  0.16426251652E+03  0.12509000000E+03 0.  0.
<mgrwt>
<rscale>  2 0.43710986E+03</rscale>
<asrwt>0</asrwt>
<pdfrwt beam="1">  1       21 0.28401224E-01 0.43710986E+03</pdfrwt>
<pdfrwt beam="2">  1       21 0.36371929E-01 0.43710986E+03</pdfrwt>
<totfact> 0.80517727E+04</totfact>
</mgrwt>
</event>
<event>
 7    0  0.4784406E-002  0.4517226E+03  0.7546771E-02  0.1027210E+00
         21   -1    0    0  502  501  0.00000000000E+00  0.00000000000E+00  0.59602978751E+03  0.59602978751E+03  0.00000000000E+00 0.  1.
         21   -1    0    0  501  502 -0.00000000000E+00 -0.00000000000E+00 -0.85588542426E+02  0.85588542426E+02  0.00000000000E+00 0.  1.
      99926    2    1    2    0    0  0.71054273576E-14  0.00000000000E+00  0.51044124508E+03  0.68161832993E+03  0.45172257307E+03 0.  0.
      99925    2    3    3    0    0  0.61194214511E+02  0.71237182911E+02  0.40879940697E+03  0.49507600371E+03  0.26299016367E+03 0.  0.
         25    1    3    3    0    0 -0.61194214511E+02 -0.71237182911E+02  0.10164183811E+03  0.18654232623E+03  0.12509000000E+03 0.  0.
         25    1    4    4    0    0  0.59363722560E+02  0.17734512835E+02  0.24655643065E+03  0.28333045388E+03  0.12509000000E+03 0.  0.
         25    1    4    4    0    0  0.18304919515E+01  0.53502670077E+02  0.16224297632E+03  0.21174554983E+03  0.12509000000E+03 0.  0.
<mgrwt>
<rscale>  2 0.45172257E+03</rscale>
<asrwt>0</asrwt>
<pdfrwt beam="1">  1       21 0.87651437E-01 0.45172257E+03</pdfrwt>
<pdfrwt beam="2">  1       21 0.12586551E-01 0.45172257E+03</pdfrwt>
<totfact> 0.55326698E+04</totfact>
</mgrwt>
</event>
<event>
 7    0  0.4784406E-002  0.4556824E+03  0.7546771E-02  0.1026041E+00
         21   -1    0    0  502  501  0.00000000000E+00  0.00000000000E+00  0.20366538993E+03  0.20366538993E+03  0.00000000000E+00 0. -1.
         21   -1    0    0  501  502 -0.00000000000E+00 -0.00000000000E+00 -0.25488676730E+03  0.25488676730E+03  0.00000000000E+00 0. -1.
      99926    2    1    2    0    0  0.71054273576E-14  0.00000000000E+00 -0.51221377364E+02  0.45855215723E+03  0.45568240190E+03 0.  0.
      99925    2    3    3    0    0  0.63935991836E+02 -0.94692649574E+02 -0.26629021533E+02  0.28735986476E+03  0.26232056373E+03 0.  0.
         25    1    4    4    0    0  0.67833654816E+02 -0.36713372527E+02 -0.27068642378E+02  0.14943057233E+03  0.12509000000E+03 0.  0.
         25    1    3    3    0    0 -0.63935991836E+02  0.94692649574E+02 -0.24592355831E+02  0.17119229247E+03  0.12509000000E+03 0.  0.
         25    1    4    4    0    0 -0.38976629798E+01 -0.57979277048E+02  0.43962084512E+00  0.13792929243E+03  0.12509000000E+03 0.  0.
<mgrwt>
<rscale>  2 0.45568240E+03</rscale>
<asrwt>0</asrwt>
<pdfrwt beam="1">  1       21 0.29950793E-01 0.45568240E+03</pdfrwt>
<pdfrwt beam="2">  1       21 0.37483348E-01 0.45568240E+03</pdfrwt>
<totfact> 0.67915754E+04</totfact>
</mgrwt>
</event>
<event>
 7    0  0.4784406E-002  0.4597087E+03  0.7546771E-02  0.1024866E+00
         21   -1    0    0  502  501  0.00000000000E+00  0.00000000000E+00  0.13795302775E+04  0.13795302775E+04  0.00000000000E+00 0.  1.
         21   -1    0    0  501  502 -0.00000000000E+00 -0.00000000000E+00 -0.38297827461E+02  0.38297827461E+02  0.00000000000E+00 0.  1.
      99926    2    1    2    0    0  0.00000000000E+00  0.00000000000E+00  0.13412324501E+04  0.14178281050E+04  0.45970865794E+03 0.  0.
      99925    2    3    3    0    0 -0.35322995417E+02  0.74490677766E+02  0.10975168616E+04  0.11317487956E+04  0.26365792203E+03 0.  0.
         25    1    4    4    0    0 -0.16427149560E+02  0.37160512496E+00  0.41960181842E+03  0.43815885641E+03  0.12509000000E+03 0.  0.
         25    1    3    3    0    0  0.35322995417E+02 -0.74490677766E+02  0.24371558849E+03  0.28607930938E+03  0.12509000000E+03 0.  0.
         25    1    4    4    0    0 -0.18895845857E+02  0.74119072641E+02  0.67791504315E+03  0.69358993919E+03  0.12509000000E+03 0.  0.
<mgrwt>
<rscale>  2 0.45970866E+03</rscale>
<asrwt>0</asrwt>
<pdfrwt beam="1">  1       21 0.20287207E+00 0.45970866E+03</pdfrwt>
<pdfrwt beam="2">  1       21 0.56320344E-02 0.45970866E+03</pdfrwt>
<totfact> 0.24935853E+04</totfact>
</mgrwt>
</event>
<event>
 7    0  0.4784406E-002  0.4451208E+03  0.7546771E-02  0.1029187E+00
         21   -1    0    0  502  501  0.00000000000E+00  0.00000000000E+00  0.52357777129E+03  0.52357777129E+03  0.00000000000E+00 0.  1.
         21   -1    0    0  501  502 -0.00000000000E+00 -0.00000000000E+00 -0.94605127029E+02  0.94605127029E+02  0.00000000000E+00 0.  1.
      99926    2    1    2    0    0  0.00000000000E+00  0.53290705182E-14  0.42897264426E+03  0.61818289832E+03  0.44512084455E+03 0.  0.
      99925    2    3    3    0    0  0.10196153148E+03 -0.15509968130E+02  0.25791215158E+03  0.38250109319E+03  0.26296709936E+03 0.  0.
         25    1    4    4    0    0  0.60968102587E+02  0.17283930904E+02  0.17203632398E+03  0.22194559845E+03  0.12509000000E+03 0.  0.
         25    1    4    4    0    0  0.40993428891E+02 -0.32793899034E+02  0.85875827595E+02  0.16055549474E+03  0.12509000000E+03 0.  0.
         25    1    3    3    0    0 -0.10196153148E+03  0.15509968130E+02  0.17106049268E+03  0.23568180513E+03  0.12509000000E+03 0.  0.
<mgrwt>
<rscale>  2 0.44512084E+03</rscale>
<asrwt>0</asrwt>
<pdfrwt beam="1">  1       21 0.76996730E-01 0.44512084E+03</pdfrwt>
<pdfrwt beam="2">  1       21 0.13912519E-01 0.44512084E+03</pdfrwt>
<totfact> 0.62291836E+04</totfact>
</mgrwt>
</event>
<event>
 7    0  0.4784406E-002  0.4481246E+03  0.7546771E-02  0.1028283E+00
         21   -1    0    0  502  501  0.00000000000E+00  0.00000000000E+00  0.10312916447E+04  0.10312916447E+04  0.00000000000E+00 0.  1.
         21   -1    0    0  501  502 -0.00000000000E+00 -0.00000000000E+00 -0.48680611763E+02  0.48680611763E+02  0.00000000000E+00 0.  1.
      99926    2    1    2    0    0  0.00000000000E+00 -0.71054273576E-14  0.98261103291E+03  0.10799722564E+04  0.44812457272E+03 0.  0.
      99925    2    3    3    0    0 -0.13212350474E+02 -0.57049679388E+02  0.40772268946E+03  0.48872497512E+03  0.26303056417E+03 0.  0.
         25    1    4    4    0    0 -0.25292574935E+02 -0.63432322079E+02  0.19421356034E+03  0.24089372958E+03  0.12509000000E+03 0.  0.
         25    1    3    3    0    0  0.13212350474E+02  0.57049679388E+02  0.57488834345E+03  0.59124728131E+03  0.12509000000E+03 0.  0.
         25    1    4    4    0    0  0.12080224462E+02  0.63826426903E+01  0.21350912912E+03  0.24783124554E+03  0.12509000000E+03 0.  0.
<mgrwt>
<rscale>  2 0.44812457E+03</rscale>
<asrwt>0</asrwt>
<pdfrwt beam="1">  1       21 0.15166052E+00 0.44812457E+03</pdfrwt>
<pdfrwt beam="2">  1       21 0.71589141E-02 0.44812457E+03</pdfrwt>
<totfact> 0.38205278E+04</totfact>
</mgrwt>
</event>
<event>
 7    0  0.4784406E-002  0.4543083E+03  0.7546771E-02  0.1026445E+00
         21   -1    0    0  502  501  0.00000000000E+00  0.00000000000E+00  0.23516182226E+03  0.23516182226E+03  0.00000000000E+00 0. -1.
         21   -1    0    0  501  502 -0.00000000000E+00 -0.00000000000E+00 -0.21941919373E+03  0.21941919373E+03  0.00000000000E+00 0. -1.
      99926    2    1    2    0    0  0.00000000000E+00  0.00000000000E+00  0.15742628533E+02  0.45458101598E+03  0.45430834214E+03 0.  0.
      99925    2    3    3    0    0 -0.39855735054E+02 -0.10423510099E+03  0.24564904040E+02  0.28671566357E+03  0.26296197697E+03 0.  0.
         25    1    4    4    0    0 -0.39328962334E+02 -0.26860803542E+02  0.37660004991E+02  0.13904694934E+03  0.12509000000E+03 0.  0.
         25    1    3    3    0    0  0.39855735054E+02  0.10423510099E+03 -0.88222755066E+01  0.16786535241E+03  0.12509000000E+03 0.  0.
         25    1    4    4    0    0 -0.52677271972E+00 -0.77374297444E+02 -0.13095100951E+02  0.14766871423E+03  0.12509000000E+03 0.  0.
<mgrwt>
<rscale>  2 0.45430834E+03</rscale>
<asrwt>0</asrwt>
<pdfrwt beam="1">  1       21 0.34582621E-01 0.45430834E+03</pdfrwt>
<pdfrwt beam="2">  1       21 0.32267528E-01 0.45430834E+03</pdfrwt>
<totfact> 0.68956274E+04</totfact>
</mgrwt>
</event>
<event>
 7    0  0.4784406E-002  0.4521245E+03  0.7546771E-02  0.1027090E+00
         21   -1    0    0  502  501  0.00000000000E+00  0.00000000000E+00  0.50260054195E+02  0.50260054195E+02  0.00000000000E+00 0.  1.
         21   -1    0    0  501  502 -0.00000000000E+00 -0.00000000000E+00 -0.10167943569E+04  0.10167943569E+04  0.00000000000E+00 0.  1.
      99926    2    1    2    0    0  0.00000000000E+00 -0.27755575616E-16 -0.96653430272E+03  0.10670544111E+04  0.45212449385E+03 0.  0.
      99925    2    3    3    0    0 -0.33220687517E+02  0.10167869148E-01 -0.36118013460E+03  0.44801903963E+03  0.26299497345E+03 0.  0.
         25    1    4    4    0    0 -0.24977554360E+02 -0.53968798171E+01 -0.24847151358E+03  0.27935390761E+03  0.12509000000E+03 0.  0.
         25    1    4    4    0    0 -0.82431331571E+01  0.54070476862E+01 -0.11270862102E+03  0.16866513202E+03  0.12509000000E+03 0.  0.
         25    1    3    3    0    0  0.33220687517E+02 -0.10167869148E-01 -0.60535416812E+03  0.61903537148E+03  0.12509000000E+03 0.  0.
<mgrwt>
<rscale>  2 0.45212449E+03</rscale>
<asrwt>0</asrwt>
<pdfrwt beam="1">  1       21 0.73911841E-02 0.45212449E+03</pdfrwt>
<pdfrwt beam="2">  1       21 0.14952859E+00 0.45212449E+03</pdfrwt>
<totfact> 0.37492050E+04</totfact>
</mgrwt>
</event>
<event>
 7    0  0.4784406E-002  0.4551596E+03  0.7546771E-02  0.1026194E+00
         21   -1    0    0  502  501  0.00000000000E+00  0.00000000000E+00  0.21379622170E+03  0.21379622170E+03  0.00000000000E+00 0. -1.
         21   -1    0    0  501  502 -0.00000000000E+00 -0.00000000000E+00 -0.24225198804E+03  0.24225198804E+03  0.00000000000E+00 0. -1.
      99926    2    1    2    0    0 -0.14210854715E-13  0.00000000000E+00 -0.28455766334E+02  0.45604820974E+03  0.45515957528E+03 0.  0.
      99925    2    3    3    0    0  0.76240562899E+02  0.60866747110E+02  0.39805789489E+02  0.28335040304E+03  0.26303149183E+03 0.  0.
         25    1    4    4    0    0  0.68061905728E+02  0.59704297643E+01  0.33157906568E+02  0.14633873004E+03  0.12509000000E+03 0.  0.
         25    1    3    3    0    0 -0.76240562899E+02 -0.60866747110E+02 -0.68261555823E+02  0.17269780670E+03  0.12509000000E+03 0.  0.
         25    1    4    4    0    0  0.81786571715E+01  0.54896317346E+02  0.66478829218E+01  0.13701167300E+03  0.12509000000E+03 0.  0.
<mgrwt>
<rscale>  2 0.45515958E+03</rscale>
<asrwt>0</asrwt>
<pdfrwt beam="1">  1       21 0.31440621E-01 0.45515958E+03</pdfrwt>
<pdfrwt beam="2">  1       21 0.35625292E-01 0.45515958E+03</pdfrwt>
<totfact> 0.68381998E+04</totfact>
</mgrwt>
</event>
<event>
 7    0  0.4784406E-002  0.4192088E+03  0.7546771E-02  0.1037324E+00
         21   -1    0    0  502  501  0.00000000000E+00  0.00000000000E+00  0.36935382209E+03  0.36935382209E+03  0.00000000000E+00 0.  1.
         21   -1    0    0  501  502 -0.00000000000E+00 -0.00000000000E+00 -0.11894829135E+03  0.11894829135E+03  0.00000000000E+00 0.  1.
      99926    2    1    2    0    0  0.00000000000E+00  0.00000000000E+00  0.25040553074E+03  0.48830211344E+03  0.41920880736E+03 0.  0.
      99925    2    3    3    0    0  0.54648814803E+02  0.29406510726E+02  0.21169153068E+03  0.34339691087E+03  0.26316705417E+03 0.  0.
         25    1    4    4    0    0  0.16847054066E+02 -0.44439500556E+01  0.14669832572E+03  0.19357551186E+03  0.12509000000E+03 0.  0.
         25    1    3    3    0    0 -0.54648814803E+02 -0.29406510726E+02  0.38714000061E+02  0.14490520257E+03  0.12509000000E+03 0.  0.
         25    1    4    4    0    0  0.37801760738E+02  0.33850460782E+02  0.64993204965E+02  0.14982139901E+03  0.12509000000E+03 0.  0.
<mgrwt>
<rscale>  2 0.41920881E+03</rscale>
<asrwt>0</asrwt>
<pdfrwt beam="1">  1       21 0.54316738E-01 0.41920881E+03</pdfrwt>
<pdfrwt beam="2">  1       21 0.17492396E-01 0.41920881E+03</pdfrwt>
<totfact> 0.88748012E+04</totfact>
</mgrwt>
</event>
<event>
 7    0  0.4784406E-002  0.4484090E+03  0.7546771E-02  0.1028198E+00
         21   -1    0    0  502  501  0.00000000000E+00  0.00000000000E+00  0.32080965236E+03  0.32080965236E+03  0.00000000000E+00 0.  1.
         21   -1    0    0  501  502 -0.00000000000E+00 -0.00000000000E+00 -0.15668997512E+03  0.15668997512E+03  0.00000000000E+00 0.  1.
      99926    2    1    2    0    0  0.00000000000E+00  0.00000000000E+00  0.16411967724E+03  0.47749962748E+03  0.44840899387E+03 0.  0.
      99925    2    3    3    0    0  0.73868973604E+02  0.70887602803E+02  0.71269640955E+02  0.29108526422E+03  0.26300112515E+03 0.  0.
         25    1    4    4    0    0  0.53999296742E+02  0.17342524248E+01  0.50380006082E+02  0.14527417111E+03  0.12509000000E+03 0.  0.
         25    1    4    4    0    0  0.19869676862E+02  0.69153350378E+02  0.20889634872E+02  0.14581109310E+03  0.12509000000E+03 0.  0.
         25    1    3    3    0    0 -0.73868973604E+02 -0.70887602803E+02  0.92850036290E+02  0.18641436326E+03  0.12509000000E+03 0.  0.
<mgrwt>
<rscale>  2 0.44840899E+03</rscale>
<asrwt>0</asrwt>
<pdfrwt beam="1">  1       21 0.47177890E-01 0.44840899E+03</pdfrwt>
<pdfrwt beam="2">  1       21 0.23042643E-01 0.44840899E+03</pdfrwt>
<totfact> 0.70499343E+04</totfact>
</mgrwt>
</event>
<event>
 7    0  0.4784406E-002  0.4526059E+03  0.7546771E-02  0.1026948E+00
         21   -1    0    0  502  501  0.00000000000E+00  0.00000000000E+00  0.38753215174E+02  0.38753215174E+02  0.00000000000E+00 0. -1.
         21   -1    0    0  501  502 -0.00000000000E+00 -0.00000000000E+00 -0.13215165531E+04  0.13215165531E+04  0.00000000000E+00 0. -1.
      99926    2    1    2    0    0 -0.71054273576E-14  0.17763568394E-14 -0.12827633379E+04  0.13602697683E+04  0.45260585651E+03 0.  0.
      99925    2    3    3    0    0  0.24421439865E+02 -0.14732103551E+02 -0.11311143064E+04  0.11616284371E+04  0.26295933152E+03 0.  0.
         25    1    4    4    0    0 -0.14685733788E+02 -0.21337613750E+02 -0.44012112803E+03  0.45828493318E+03  0.12509000000E+03 0.  0.
         25    1    3    3    0    0 -0.24421439865E+02  0.14732103551E+02 -0.15164903147E+03  0.19864133116E+03  0.12509000000E+03 0.  0.
         25    1    4    4    0    0  0.39107173653E+02  0.66055101992E+01 -0.69099317841E+03  0.70334350392E+03  0.12509000000E+03 0.  0.
<mgrwt>
<rscale>  2 0.45260586E+03</rscale>
<asrwt>0</asrwt>
<pdfrwt beam="1">  1       21 0.56990035E-02 0.45260586E+03</pdfrwt>
<pdfrwt beam="2">  1       21 0.19434063E+00 0.45260586E+03</pdfrwt>
<totfact> 0.27926347E+04</totfact>
</mgrwt>
</event>
<event>
 7    0  0.4784406E-002  0.4551708E+03  0.7546771E-02  0.1026191E+00
         21   -1    0    0  502  501  0.00000000000E+00  0.00000000000E+00  0.31970467571E+03  0.31970467571E+03  0.00000000000E+00 0.  1.
         21   -1    0    0  501  502 -0.00000000000E+00 -0.00000000000E+00 -0.16200924956E+03  0.16200924956E+03  0.00000000000E+00 0.  1.
      99926    2    1    2    0    0  0.00000000000E+00  0.00000000000E+00  0.15769542615E+03  0.48171392526E+03  0.45517080131E+03 0.  0.
      99925    2    3    3    0    0 -0.36662657685E+02 -0.10557729559E+03  0.78631989201E+02  0.29627053505E+03  0.26287359016E+03 0.  0.
         25    1    4    4    0    0  0.21130059104E+02 -0.61181201151E+02  0.36614906765E+02  0.14552586804E+03  0.12509000000E+03 0.  0.
         25    1    4    4    0    0 -0.57792716789E+02 -0.44396094435E+02  0.42017082436E+02  0.15074466701E+03  0.12509000000E+03 0.  0.
         25    1    3    3    0    0  0.36662657685E+02  0.10557729559E+03  0.79063436948E+02  0.18544339021E+03  0.12509000000E+03 0.  0.
<mgrwt>
<rscale>  2 0.45517080E+03</rscale>
<asrwt>0</asrwt>
<pdfrwt beam="1">  1       21 0.47015394E-01 0.45517080E+03</pdfrwt>
<pdfrwt beam="2">  1       21 0.23824890E-01 0.45517080E+03</pdfrwt>
<totfact> 0.66485364E+04</totfact>
</mgrwt>
</event>
<event>
 7    0  0.4784406E-002  0.4555065E+03  0.7546771E-02  0.1026093E+00
         21   -1    0    0  502  501  0.00000000000E+00  0.00000000000E+00  0.22430976505E+03  0.22430976505E+03  0.00000000000E+00 0. -1.
         21   -1    0    0  501  502 -0.00000000000E+00 -0.00000000000E+00 -0.23124957497E+03  0.23124957497E+03  0.00000000000E+00 0. -1.
      99926    2    1    2    0    0 -0.71054273576E-14  0.00000000000E+00 -0.69398099179E+01  0.45555934002E+03  0.45550647780E+03 0.  0.
      99925    2    3    3    0    0 -0.63667383267E+02 -0.70949789846E+02 -0.66549391703E+02  0.28736832150E+03  0.26280091760E+03 0.  0.
         25    1    4    4    0    0 -0.14435003090E+02 -0.47268249785E+02  0.22329007512E+01  0.13451821697E+03  0.12509000000E+03 0.  0.
         25    1    3    3    0    0  0.63667383267E+02  0.70949789846E+02  0.59609581785E+02  0.16819101852E+03  0.12509000000E+03 0.  0.
         25    1    4    4    0    0 -0.49232380177E+02 -0.23681540061E+02 -0.68782292454E+02  0.15285010452E+03  0.12509000000E+03 0.  0.
<mgrwt>
<rscale>  2 0.45550648E+03</rscale>
<asrwt>0</asrwt>
<pdfrwt beam="1">  1       21 0.32986730E-01 0.45550648E+03</pdfrwt>
<pdfrwt beam="2">  1       21 0.34007290E-01 0.45550648E+03</pdfrwt>
<totfact> 0.68228695E+04</totfact>
</mgrwt>
</event>
<event>
 7    0  0.4784406E-002  0.4513768E+03  0.7546771E-02  0.1027312E+00
         21   -1    0    0  502  501  0.00000000000E+00  0.00000000000E+00  0.12312959056E+03  0.12312959056E+03  0.00000000000E+00 0.  1.
         21   -1    0    0  501  502 -0.00000000000E+00 -0.00000000000E+00 -0.41367198929E+03  0.41367198929E+03  0.00000000000E+00 0.  1.
      99926    2    1    2    0    0  0.44408920985E-14  0.00000000000E+00 -0.29054239873E+03  0.53680157985E+03  0.45137683887E+03 0.  0.
      99925    2    3    3    0    0 -0.54156968684E+01 -0.84565114404E+02 -0.10066556901E+03  0.29414687268E+03  0.26307458558E+03 0.  0.
         25    1    4    4    0    0  0.36683685476E+02 -0.44227528998E+02 -0.39673406323E+02  0.14325939540E+03  0.12509000000E+03 0.  0.
         25    1    4    4    0    0 -0.42099382344E+02 -0.40337585406E+02 -0.60992162689E+02  0.15088747728E+03  0.12509000000E+03 0.  0.
         25    1    3    3    0    0  0.54156968684E+01  0.84565114404E+02 -0.18987682972E+03  0.24265470717E+03  0.12509000000E+03 0.  0.
<mgrwt>
<rscale>  2 0.45137684E+03</rscale>
<asrwt>0</asrwt>
<pdfrwt beam="1">  1       21 0.18107293E-01 0.45137684E+03</pdfrwt>
<pdfrwt beam="2">  1       21 0.60834115E-01 0.45137684E+03</pdfrwt>
<totfact> 0.64579207E+04</totfact>
</mgrwt>
</event>
<event>
 7    0  0.4784406E-002  0.4540574E+03  0.7546771E-02  0.1026519E+00
         21   -1    0    0  502  501  0.00000000000E+00  0.00000000000E+00  0.30862797167E+02  0.30862797167E+02  0.00000000000E+00 0.  1.
         21   -1    0    0  501  502 -0.00000000000E+00 -0.00000000000E+00 -0.16700376500E+04  0.16700376500E+04  0.00000000000E+00 0.  1.
      99926    2    1    2    0    0 -0.17763568394E-14  0.00000000000E+00 -0.16391748528E+04  0.17009004471E+04  0.45405741158E+03 0.  0.
      99925    2    3    3    0    0 -0.69858383991E+01 -0.32141162868E+02 -0.63018870101E+03  0.68365789057E+03  0.26299896609E+03 0.  0.
         25    1    4    4    0    0  0.18859835421E+02 -0.77734371393E+01 -0.22658682382E+03  0.25962514621E+03  0.12509000000E+03 0.  0.
         25    1    3    3    0    0  0.69858383991E+01  0.32141162868E+02 -0.10089861518E+04  0.10172425566E+04  0.12509000000E+03 0.  0.
         25    1    4    4    0    0 -0.25845673820E+02 -0.24367725729E+02 -0.40360187719E+03  0.42403274436E+03  0.12509000000E+03 0.  0.
<mgrwt>
<rscale>  2 0.45405741E+03</rscale>
<asrwt>0</asrwt>
<pdfrwt beam="1">  1       21 0.45386469E-02 0.45405741E+03</pdfrwt>
<pdfrwt beam="2">  1       21 0.24559376E+00 0.45405741E+03</pdfrwt>
<totfact> 0.19384406E+04</totfact>
</mgrwt>
</event>
<event>
 7    0  0.4784406E-002  0.4435339E+03  0.7546771E-02  0.1029668E+00
         21   -1    0    0  502  501  0.00000000000E+00  0.00000000000E+00  0.17467997710E+04  0.17467997710E+04  0.00000000000E+00 0.  1.
         21   -1    0    0  501  502 -0.00000000000E+00 -0.00000000000E+00 -0.28154679500E+02  0.28154679500E+02  0.00000000000E+00 0.  1.
      99926    2    1    2    0    0  0.14210854715E-13  0.00000000000E+00  0.17186450915E+04  0.17749544505E+04  0.44353393422E+03 0.  0.
      99925    2    3    3    0    0 -0.94199043001E+02  0.10606875966E+02  0.94148245166E+03  0.98210185236E+03  0.26296173884E+03 0.  0.
         25    1    4    4    0    0 -0.48695757444E+01  0.10251498185E+02  0.44238737600E+03  0.45987270470E+03  0.12509000000E+03 0.  0.
         25    1    3    3    0    0  0.94199043001E+02 -0.10606875966E+02  0.77716263979E+03  0.79285259810E+03  0.12509000000E+03 0.  0.
         25    1    4    4    0    0 -0.89329467257E+02  0.35537778158E+00  0.49909507566E+03  0.52222914765E+03  0.12509000000E+03 0.  0.
<mgrwt>
<rscale>  2 0.44353393E+03</rscale>
<asrwt>0</asrwt>
<pdfrwt beam="1">  1       21 0.25688225E+00 0.44353393E+03</pdfrwt>
<pdfrwt beam="2">  1       21 0.41403952E-02 0.44353393E+03</pdfrwt>
<totfact> 0.19417226E+04</totfact>
</mgrwt>
</event>
<event>
 7    0  0.4784406E-002  0.4569548E+03  0.7546771E-02  0.1025668E+00
         21   -1    0    0  502  501  0.00000000000E+00  0.00000000000E+00  0.73264527715E+02  0.73264527715E+02  0.00000000000E+00 0.  1.
         21   -1    0    0  501  502 -0.00000000000E+00 -0.00000000000E+00 -0.71251300278E+03  0.71251300278E+03  0.00000000000E+00 0.  1.
      99926    2    1    2    0    0  0.00000000000E+00 -0.14210854715E-13 -0.63924847506E+03  0.78577753049E+03  0.45695482770E+03 0.  0.
      99925    2    3    3    0    0 -0.71950191219E+02 -0.86760895939E+02 -0.36220408178E+03  0.46157792063E+03  0.26297927082E+03 0.  0.
         25    1    4    4    0    0 -0.18411461359E+02 -0.32995233842E+01 -0.15805548515E+03  0.20243249060E+03  0.12509000000E+03 0.  0.
         25    1    4    4    0    0 -0.53538729860E+02 -0.83461372555E+02 -0.20414859662E+03  0.25914543003E+03  0.12509000000E+03 0.  0.
         25    1    3    3    0    0  0.71950191219E+02  0.86760895939E+02 -0.27704439329E+03  0.32419960986E+03  0.12509000000E+03 0.  0.
<mgrwt>
<rscale>  2 0.45695483E+03</rscale>
<asrwt>0</asrwt>
<pdfrwt beam="1">  1       21 0.10774195E-01 0.45695483E+03</pdfrwt>
<pdfrwt beam="2">  1       21 0.10478132E+00 0.45695483E+03</pdfrwt>
<totfact> 0.47724012E+04</totfact>
</mgrwt>
</event>
<event>
 7    0  0.4784406E-002  0.4596382E+03  0.7546771E-02  0.1024886E+00
         21   -1    0    0  502  501  0.00000000000E+00  0.00000000000E+00  0.14127534760E+04  0.14127534760E+04  0.00000000000E+00 0.  1.
         21   -1    0    0  501  502 -0.00000000000E+00 -0.00000000000E+00 -0.37385730846E+02  0.37385730846E+02  0.00000000000E+00 0.  1.
      99926    2    1    2    0    0  0.71054273576E-14  0.00000000000E+00  0.13753677452E+04  0.14501392069E+04  0.45963821080E+03 0.  0.
      99925    2    3    3    0    0 -0.58061396039E+02  0.97901051056E+02  0.77039613940E+03  0.82197211652E+03  0.26300609730E+03 0.  0.
         25    1    3    3    0    0  0.58061396039E+02 -0.97901051056E+02  0.60497160579E+03  0.62816709037E+03  0.12509000000E+03 0.  0.
         25    1    4    4    0    0 -0.24132287027E+02  0.23184652916E+02  0.26576793842E+03  0.29563491100E+03  0.12509000000E+03 0.  0.
         25    1    4    4    0    0 -0.33929109012E+02  0.74716398140E+02  0.50462820098E+03  0.52633720552E+03  0.12509000000E+03 0.  0.
<mgrwt>
<rscale>  2 0.45963821E+03</rscale>
<asrwt>0</asrwt>
<pdfrwt beam="1">  1       21 0.20775783E+00 0.45963821E+03</pdfrwt>
<pdfrwt beam="2">  1       21 0.54979025E-02 0.45963821E+03</pdfrwt>
<totfact> 0.24144095E+04</totfact>
</mgrwt>
</event>
<event>
 7    0  0.4784406E-002  0.4542607E+03  0.7546771E-02  0.1026459E+00
         21   -1    0    0  502  501  0.00000000000E+00  0.00000000000E+00  0.71431927726E+02  0.71431927726E+02  0.00000000000E+00 0.  1.
         21   -1    0    0  501  502 -0.00000000000E+00 -0.00000000000E+00 -0.72220069539E+03  0.72220069539E+03  0.00000000000E+00 0.  1.
      99926    2    1    2    0    0  0.14210854715E-13  0.35527136788E-14 -0.65076876766E+03  0.79363262312E+03  0.45426066472E+03 0.  0.
      99925    2    3    3    0    0 -0.10083849921E+03 -0.19168349166E+02 -0.49006433280E+03  0.56557725261E+03  0.26301853519E+03 0.  0.
         25    1    4    4    0    0 -0.51321743408E+02 -0.49984988133E+02 -0.24063456658E+03  0.28050832985E+03  0.12509000000E+03 0.  0.
         25    1    4    4    0    0 -0.49516755803E+02  0.30816638967E+02 -0.24942976622E+03  0.28506892275E+03  0.12509000000E+03 0.  0.
         25    1    3    3    0    0  0.10083849921E+03  0.19168349166E+02 -0.16070443486E+03  0.22805537051E+03  0.12509000000E+03 0.  0.
<mgrwt>
<rscale>  2 0.45426066E+03</rscale>
<asrwt>0</asrwt>
<pdfrwt beam="1">  1       21 0.10504695E-01 0.45426066E+03</pdfrwt>
<pdfrwt beam="2">  1       21 0.10620599E+00 0.45426066E+03</pdfrwt>
<totfact> 0.48354305E+04</totfact>
</mgrwt>
</event>
<event>
 7    0  0.4784406E-002  0.4470535E+03  0.7546771E-02  0.1028604E+00
         21   -1    0    0  502  501  0.00000000000E+00  0.00000000000E+00  0.31390002359E+03  0.31390002359E+03  0.00000000000E+00 0.  1.
         21   -1    0    0  501  502 -0.00000000000E+00 -0.00000000000E+00 -0.15917235374E+03  0.15917235374E+03  0.00000000000E+00 0.  1.
      99926    2    1    2    0    0  0.00000000000E+00 -0.71054273576E-14  0.15472766985E+03  0.47307237733E+03  0.44705348939E+03 0.  0.
      99925    2    3    3    0    0 -0.64487008772E+02  0.48815497140E+02  0.26282939142E+02  0.27638205218E+03  0.26297284806E+03 0.  0.
         25    1    3    3    0    0  0.64487008772E+02 -0.48815497140E+02  0.12844473071E+03  0.19669032515E+03  0.12509000000E+03 0.  0.
         25    1    4    4    0    0 -0.53070144494E+02 -0.51861348573E+01  0.31403426568E+02  0.13956009290E+03  0.12509000000E+03 0.  0.
         25    1    4    4    0    0 -0.11416864278E+02  0.54001631998E+02 -0.51204874260E+01  0.13682195927E+03  0.12509000000E+03 0.  0.
<mgrwt>
<rscale>  2 0.44705349E+03</rscale>
<asrwt>0</asrwt>
<pdfrwt beam="1">  1       21 0.46161768E-01 0.44705349E+03</pdfrwt>
<pdfrwt beam="2">  1       21 0.23407699E-01 0.44705349E+03</pdfrwt>
<totfact> 0.71619466E+04</totfact>
</mgrwt>
</event>
<event>
 7    0  0.4784406E-002  0.4566254E+03  0.7546771E-02  0.1025764E+00
         21   -1    0    0  502  501  0.00000000000E+00  0.00000000000E+00  0.94479316821E+03  0.94479316821E+03  0.00000000000E+00 0. -1.
         21   -1    0    0  501  502 -0.00000000000E+00 -0.00000000000E+00 -0.55172601189E+02  0.55172601189E+02  0.00000000000E+00 0. -1.
      99926    2    1    2    0    0  0.00000000000E+00  0.00000000000E+00  0.88962056702E+03  0.99996576940E+03  0.45662543370E+03 0.  0.
      99925    2    3    3    0    0 -0.58862057417E+02 -0.93168201472E+02  0.62727256140E+03  0.68912973590E+03  0.26321829542E+03 0.  0.
         25    1    4    4    0    0 -0.48474418997E+02 -0.86575169387E+02  0.35065511827E+03  0.38529410756E+03  0.12509000000E+03 0.  0.
         25    1    3    3    0    0  0.58862057417E+02  0.93168201472E+02  0.26234800562E+03  0.31083603350E+03  0.12509000000E+03 0.  0.
         25    1    4    4    0    0 -0.10387638420E+02 -0.65930320856E+01  0.27661744313E+03  0.30383562833E+03  0.12509000000E+03 0.  0.
<mgrwt>
<rscale>  2 0.45662543E+03</rscale>
<asrwt>0</asrwt>
<pdfrwt beam="1">  1       21 0.13894016E+00 0.45662543E+03</pdfrwt>
<pdfrwt beam="2">  1       21 0.81136184E-02 0.45662543E+03</pdfrwt>
<totfact> 0.38674843E+04</totfact>
</mgrwt>
</event>
<event>
 7    0  0.4784406E-002  0.4572812E+03  0.7546771E-02  0.1025573E+00
         21   -1    0    0  502  501  0.00000000000E+00  0.00000000000E+00  0.53929170491E+03  0.53929170491E+03  0.00000000000E+00 0. -1.
         21   -1    0    0  501  502 -0.00000000000E+00 -0.00000000000E+00 -0.96935523550E+02  0.96935523550E+02  0.00000000000E+00 0. -1.
      99926    2    1    2    0    0  0.00000000000E+00  0.00000000000E+00  0.44235618136E+03  0.63622722846E+03  0.45728119909E+03 0.  0.
      99925    2    3    3    0    0  0.34311940740E+02  0.52743529754E+02  0.41242282167E+03  0.49303957770E+03  0.26274750642E+03 0.  0.
         25    1    4    4    0    0 -0.84956093393E+01  0.45660006661E+02  0.25100245248E+03  0.28426528250E+03  0.12509000000E+03 0.  0.
         25    1    4    4    0    0  0.42807550079E+02  0.70835230929E+01  0.16142036920E+03  0.20877429520E+03  0.12509000000E+03 0.  0.
         25    1    3    3    0    0 -0.34311940740E+02 -0.52743529754E+02  0.29933359686E+02  0.14318765076E+03  0.12509000000E+03 0.  0.
<mgrwt>
<rscale>  2 0.45728120E+03</rscale>
<asrwt>0</asrwt>
<pdfrwt beam="1">  1       21 0.79307602E-01 0.45728120E+03</pdfrwt>
<pdfrwt beam="2">  1       21 0.14255224E-01 0.45728120E+03</pdfrwt>
<totfact> 0.55496038E+04</totfact>
</mgrwt>
</event>
<event>
 7    0  0.4784406E-002  0.4524520E+03  0.7546771E-02  0.1026993E+00
         21   -1    0    0  502  501  0.00000000000E+00  0.00000000000E+00  0.57759047398E+03  0.57759047398E+03  0.00000000000E+00 0.  1.
         21   -1    0    0  501  502 -0.00000000000E+00 -0.00000000000E+00 -0.88606365840E+02  0.88606365840E+02  0.00000000000E+00 0.  1.
      99926    2    1    2    0    0  0.14210854715E-13  0.00000000000E+00  0.48898410814E+03  0.66619683982E+03  0.45245195477E+03 0.  0.
      99925    2    3    3    0    0 -0.78585833421E+02  0.18350118733E+01  0.42360346065E+03  0.50463806522E+03  0.26275575068E+03 0.  0.
         25    1    3    3    0    0  0.78585833421E+02 -0.18350118733E+01  0.65380647491E+02  0.16155877460E+03  0.12509000000E+03 0.  0.
         25    1    4    4    0    0 -0.69982374507E+02 -0.16963333409E+02  0.18720825786E+03  0.23638893234E+03  0.12509000000E+03 0.  0.
         25    1    4    4    0    0 -0.86034589138E+01  0.18798345282E+02  0.23639520279E+03  0.26824913288E+03  0.12509000000E+03 0.  0.
<mgrwt>
<rscale>  2 0.45245195E+03</rscale>
<asrwt>0</asrwt>
<pdfrwt beam="1">  1       21 0.84939774E-01 0.45245195E+03</pdfrwt>
<pdfrwt beam="2">  1       21 0.13030348E-01 0.45245195E+03</pdfrwt>
<totfact> 0.55891149E+04</totfact>
</mgrwt>
</event>
<event>
 7    0  0.4784406E-002  0.4569624E+03  0.7546771E-02  0.1025666E+00
         21   -1    0    0  502  501  0.00000000000E+00  0.00000000000E+00  0.39203542045E+03  0.39203542045E+03  0.00000000000E+00 0.  1.
         21   -1    0    0  501  502 -0.00000000000E+00 -0.00000000000E+00 -0.13316053825E+03  0.13316053825E+03  0.00000000000E+00 0.  1.
      99926    2    1    2    0    0 -0.14210854715E-13  0.00000000000E+00  0.25887488219E+03  0.52519595870E+03  0.45696235119E+03 0.  0.
      99925    2    3    3    0    0  0.10943085375E+03 -0.32990229840E+02  0.17352942820E+03  0.33547294577E+03  0.26337457713E+03 0.  0.
         25    1    4    4    0    0  0.39287052231E+02  0.19831876727E+02  0.98692768315E+02  0.16530138059E+03  0.12509000000E+03 0.  0.
         25    1    3    3    0    0 -0.10943085375E+03  0.32990229840E+02  0.85345453995E+02  0.18972301293E+03  0.12509000000E+03 0.  0.
         25    1    4    4    0    0  0.70143801519E+02 -0.52822106568E+02  0.74836659884E+02  0.17017156518E+03  0.12509000000E+03 0.  0.
<mgrwt>
<rscale>  2 0.45696235E+03</rscale>
<asrwt>0</asrwt>
<pdfrwt beam="1">  1       21 0.57652268E-01 0.45696235E+03</pdfrwt>
<pdfrwt beam="2">  1       21 0.19582432E-01 0.45696235E+03</pdfrwt>
<totfact> 0.62554079E+04</totfact>
</mgrwt>
</event>
<event>
 7    0  0.4784406E-002  0.4550682E+03  0.7546771E-02  0.1026221E+00
         21   -1    0    0  502  501  0.00000000000E+00  0.00000000000E+00  0.36220710842E+03  0.36220710842E+03  0.00000000000E+00 0. -1.
         21   -1    0    0  501  502 -0.00000000000E+00 -0.00000000000E+00 -0.14293412906E+03  0.14293412906E+03  0.00000000000E+00 0. -1.
      99926    2    1    2    0    0  0.00000000000E+00  0.00000000000E+00  0.21927297935E+03  0.50514123748E+03  0.45506816009E+03 0.  0.
      99925    2    3    3    0    0 -0.72854911371E+02 -0.74152249132E+02  0.88209656580E+02  0.29625969967E+03  0.26302561087E+03 0.  0.
         25    1    4    4    0    0 -0.54709553252E+02 -0.41681125811E+02  0.84118636510E+02  0.16569219829E+03  0.12509000000E+03 0.  0.
         25    1    4    4    0    0 -0.18145358120E+02 -0.32471123321E+02  0.40910200693E+01  0.13056750138E+03  0.12509000000E+03 0.  0.
         25    1    3    3    0    0  0.72854911371E+02  0.74152249132E+02  0.13106332277E+03  0.20888153781E+03  0.12509000000E+03 0.  0.
<mgrwt>
<rscale>  2 0.45506816E+03</rscale>
<asrwt>0</asrwt>
<pdfrwt beam="1">  1       21 0.53265751E-01 0.45506816E+03</pdfrwt>
<pdfrwt beam="2">  1       21 0.21019725E-01 0.45506816E+03</pdfrwt>
<totfact> 0.64875858E+04</totfact>
</mgrwt>
</event>
<event>
 7    0  0.4784406E-002  0.4435330E+03  0.7546771E-02  0.1029668E+00
         21   -1    0    0  502  501  0.00000000000E+00  0.00000000000E+00  0.35550280711E+03  0.35550280711E+03  0.00000000000E+00 0.  1.
         21   -1    0    0  501  502 -0.00000000000E+00 -0.00000000000E+00 -0.13834033985E+03  0.13834033985E+03  0.00000000000E+00 0.  1.
      99926    2    1    2    0    0  0.00000000000E+00  0.00000000000E+00  0.21716246726E+03  0.49384314697E+03  0.44353299383E+03 0.  0.
      99925    2    3    3    0    0  0.51708698184E+02 -0.12851234146E+02  0.23504770119E+03  0.35670696144E+03  0.26297051322E+03 0.  0.
         25    1    3    3    0    0 -0.51708698184E+02  0.12851234146E+02 -0.17885233929E+02  0.13713618552E+03  0.12509000000E+03 0.  0.
         25    1    4    4    0    0  0.21087830314E+02 -0.34703842639E+02  0.79867057021E+02  0.15386782698E+03  0.12509000000E+03 0.  0.
         25    1    4    4    0    0  0.30620867870E+02  0.21852608493E+02  0.15518064417E+03  0.20283913447E+03  0.12509000000E+03 0.  0.
<mgrwt>
<rscale>  2 0.44353299E+03</rscale>
<asrwt>0</asrwt>
<pdfrwt beam="1">  1       21 0.52279825E-01 0.44353299E+03</pdfrwt>
<pdfrwt beam="2">  1       21 0.20344168E-01 0.44353299E+03</pdfrwt>
<totfact> 0.72043128E+04</totfact>
</mgrwt>
</event>
<event>
 7    0  0.4784406E-002  0.4513733E+03  0.7546771E-02  0.1027313E+00
         21   -1    0    0  502  501  0.00000000000E+00  0.00000000000E+00  0.19658765242E+04  0.19658765242E+04  0.00000000000E+00 0. -1.
         21   -1    0    0  501  502 -0.00000000000E+00 -0.00000000000E+00 -0.25909286420E+02  0.25909286420E+02  0.00000000000E+00 0. -1.
      99926    2    1    2    0    0  0.00000000000E+00  0.00000000000E+00  0.19399672378E+04  0.19917858107E+04  0.45137327317E+03 0.  0.
      99925    2    3    3    0    0  0.10200220529E+03  0.40202485977E+02  0.12424703734E+04  0.12747292761E+04  0.26302358988E+03 0.  0.
         25    1    3    3    0    0 -0.10200220529E+03 -0.40202485977E+02  0.69749686447E+03  0.71705653460E+03  0.12509000000E+03 0.  0.
         25    1    4    4    0    0  0.41693330845E+02  0.22148507432E+02  0.78500649207E+03  0.79631123997E+03  0.12509000000E+03 0.  0.
         25    1    4    4    0    0  0.60308874448E+02  0.18053978545E+02  0.45746388129E+03  0.47841803610E+03  0.12509000000E+03 0.  0.
<mgrwt>
<rscale>  2 0.45137327E+03</rscale>
<asrwt>0</asrwt>
<pdfrwt beam="1">  1       21 0.28909939E+00 0.45137327E+03</pdfrwt>
<pdfrwt beam="2">  1       21 0.38101905E-02 0.45137327E+03</pdfrwt>
<totfact> 0.14240973E+04</totfact>
</mgrwt>
</event>
<event>
 6    0  0.4784406E-002  0.4555900E+03  0.7546771E-02  0.1026068E+00
         21   -1    0    0  502  501  0.00000000000E+00  0.00000000000E+00  0.23385526777E+02  0.23385526777E+02  0.00000000000E+00 0.  1.
         21   -1    0    0  501  502 -0.00000000000E+00 -0.00000000000E+00 -0.22189175520E+04  0.22189175520E+04  0.00000000000E+00 0.  1.
      99926    2    1    2    0    0  0.00000000000E+00  0.00000000000E+00 -0.21955320252E+04  0.22423030788E+04  0.45558997279E+03 0.  0.
         25    1    3    3    0    0 -0.72764675233E+02 -0.11632888226E+02 -0.86894265312E+03  0.88098743723E+03  0.12509000000E+03 0.  0.
         25    1    3    3    0    0 -0.54569321169E+01  0.50822187115E+02 -0.85563817209E+03  0.86624295810E+03  0.12509000000E+03 0.  0.
         25    1    3    3    0    0  0.78221607350E+02 -0.39189298888E+02 -0.47095120001E+03  0.49507268345E+03  0.12509000000E+03 0.  0.
<mgrwt>
<rscale>  2 0.45558997E+03</rscale>
<asrwt>0</asrwt>
<pdfrwt beam="1">  1       21 0.34390492E-02 0.45558997E+03</pdfrwt>
<pdfrwt beam="2">  1       21 0.32631130E+00 0.45558997E+03</pdfrwt>
<totfact> 0.10095448E+04</totfact>
</mgrwt>
</event>
<event>
 7    0  0.4784406E-002  0.4508534E+03  0.7546771E-02  0.1027468E+00
         21   -1    0    0  502  501  0.00000000000E+00  0.00000000000E+00  0.35756185468E+03  0.35756185468E+03  0.00000000000E+00 0. -1.
         21   -1    0    0  501  502 -0.00000000000E+00 -0.00000000000E+00 -0.14212140346E+03  0.14212140346E+03  0.00000000000E+00 0. -1.
      99926    2    1    2    0    0  0.00000000000E+00  0.35527136788E-14  0.21544045122E+03  0.49968325814E+03  0.45085338020E+03 0.  0.
      99925    2    3    3    0    0  0.93359986265E+02  0.12738058846E+02  0.74853962834E+02  0.28923037981E+03  0.26300713236E+03 0.  0.
         25    1    4    4    0    0  0.55262052128E+02 -0.32824940959E+02  0.44016359920E+02  0.14736457917E+03  0.12509000000E+03 0.  0.
         25    1    4    4    0    0  0.38097934137E+02  0.45562999805E+02  0.30837602913E+02  0.14186580064E+03  0.12509000000E+03 0.  0.
         25    1    3    3    0    0 -0.93359986265E+02 -0.12738058846E+02  0.14058648839E+03  0.21045287833E+03  0.12509000000E+03 0.  0.
<mgrwt>
<rscale>  2 0.45085338E+03</rscale>
<asrwt>0</asrwt>
<pdfrwt beam="1">  1       21 0.52582626E-01 0.45085338E+03</pdfrwt>
<pdfrwt beam="2">  1       21 0.20900206E-01 0.45085338E+03</pdfrwt>
<totfact> 0.67487042E+04</totfact>
</mgrwt>
</event>
<event>
 7    0  0.4784406E-002  0.4509828E+03  0.7546771E-02  0.1027429E+00
         21   -1    0    0  502  501  0.00000000000E+00  0.00000000000E+00  0.30226101483E+02  0.30226101483E+02  0.00000000000E+00 0.  1.
         21   -1    0    0  501  502 -0.00000000000E+00 -0.00000000000E+00 -0.16822010191E+04  0.16822010191E+04  0.00000000000E+00 0.  1.
      99926    2    1    2    0    0  0.71054273576E-14  0.00000000000E+00 -0.16519749176E+04  0.17124271206E+04  0.45098283213E+03 0.  0.
      99925    2    3    3    0    0 -0.55236551107E+02 -0.34013972481E+02 -0.70879302503E+03  0.75877749021E+03  0.26295950339E+03 0.  0.
         25    1    4    4    0    0 -0.26916178531E+02  0.23766830230E+02 -0.33492949004E+03  0.35932522077E+03  0.12509000000E+03 0.  0.
         25    1    3    3    0    0  0.55236551107E+02  0.34013972481E+02 -0.94318189262E+03  0.95364963040E+03  0.12509000000E+03 0.  0.
         25    1    4    4    0    0 -0.28320372576E+02 -0.57780802711E+02 -0.37386353499E+03  0.39945226944E+03  0.12509000000E+03 0.  0.
<mgrwt>
<rscale>  2 0.45098283E+03</rscale>
<asrwt>0</asrwt>
<pdfrwt beam="1">  1       21 0.44450143E-02 0.45098283E+03</pdfrwt>
<pdfrwt beam="2">  1       21 0.24738254E+00 0.45098283E+03</pdfrwt>
<totfact> 0.19608852E+04</totfact>
</mgrwt>
</event>
<event>
 7    0  0.4784406E-002  0.4549480E+03  0.7546771E-02  0.1026257E+00
         21   -1    0    0  502  501  0.00000000000E+00  0.00000000000E+00  0.52672644381E+02  0.52672644381E+02  0.00000000000E+00 0. -1.
         21   -1    0    0  501  502 -0.00000000000E+00 -0.00000000000E+00 -0.98237751645E+03  0.98237751645E+03  0.00000000000E+00 0. -1.
      99926    2    1    2    0    0  0.00000000000E+00 -0.71054273576E-14 -0.92970487207E+03  0.10350501608E+04  0.45494800394E+03 0.  0.
      99925    2    3    3    0    0 -0.83861306267E+02  0.35133995872E+02 -0.73789845107E+03  0.78866767852E+03  0.26312633219E+03 0.  0.
         25    1    4    4    0    0 -0.14710762084E+02 -0.15172063829E+02 -0.33397811601E+03  0.35726109236E+03  0.12509000000E+03 0.  0.
         25    1    3    3    0    0  0.83861306267E+02 -0.35133995872E+02 -0.19180642100E+03  0.24638248231E+03  0.12509000000E+03 0.  0.
         25    1    4    4    0    0 -0.69150544183E+02  0.50306059700E+02 -0.40392033507E+03  0.43140658616E+03  0.12509000000E+03 0.  0.
<mgrwt>
<rscale>  2 0.45494800E+03</rscale>
<asrwt>0</asrwt>
<pdfrwt beam="1">  1       21 0.77459774E-02 0.45494800E+03</pdfrwt>
<pdfrwt beam="2">  1       21 0.14446728E+00 0.45494800E+03</pdfrwt>
<totfact> 0.37846138E+04</totfact>
</mgrwt>
</event>
<event>
 7    0  0.4784406E-002  0.4570515E+03  0.7546771E-02  0.1025640E+00
         21   -1    0    0  502  501  0.00000000000E+00  0.00000000000E+00  0.18973730284E+03  0.18973730284E+03  0.00000000000E+00 0. -1.
         21   -1    0    0  501  502 -0.00000000000E+00 -0.00000000000E+00 -0.27524384008E+03  0.27524384008E+03  0.00000000000E+00 0. -1.
      99926    2    1    2    0    0  0.00000000000E+00  0.00000000000E+00 -0.85506537245E+02  0.46498114292E+03  0.45705152374E+03 0.  0.
      99925    2    3    3    0    0  0.90646959624E+02 -0.65760221174E+02 -0.32490943663E+02  0.28891456676E+03  0.26433820663E+03 0.  0.
         25    1    4    4    0    0  0.23390593949E+02 -0.67551987960E+02 -0.28225929272E+02  0.14681485669E+03  0.12509000000E+03 0.  0.
         25    1    4    4    0    0  0.67256365675E+02  0.17917667854E+01 -0.42650143914E+01  0.14209971006E+03  0.12509000000E+03 0.  0.
         25    1    3    3    0    0 -0.90646959624E+02  0.65760221174E+02 -0.53015593582E+02  0.17606657616E+03  0.12509000000E+03 0.  0.
<mgrwt>
<rscale>  2 0.45705152E+03</rscale>
<asrwt>0</asrwt>
<pdfrwt beam="1">  1       21 0.27902545E-01 0.45705152E+03</pdfrwt>
<pdfrwt beam="2">  1       21 0.40477035E-01 0.45705152E+03</pdfrwt>
<totfact> 0.66716874E+04</totfact>
</mgrwt>
</event>
<event>
 7    0  0.4784406E-002  0.4576187E+03  0.7546771E-02  0.1025474E+00
         21   -1    0    0  502  501  0.00000000000E+00  0.00000000000E+00  0.59185574402E+02  0.59185574402E+02  0.00000000000E+00 0. -1.
         21   -1    0    0  501  502 -0.00000000000E+00 -0.00000000000E+00 -0.88456893333E+03  0.88456893333E+03  0.00000000000E+00 0. -1.
      99926    2    1    2    0    0  0.00000000000E+00  0.00000000000E+00 -0.82538335893E+03  0.94375450773E+03  0.45761870774E+03 0.  0.
      99925    2    3    3    0    0 -0.60668085065E+02 -0.21120797357E+02 -0.71636711558E+03  0.76582543748E+03  0.26302101016E+03 0.  0.
         25    1    4    4    0    0 -0.58907937934E+01 -0.48447100926E+01 -0.43427328000E+03  0.45199442750E+03  0.12509000000E+03 0.  0.
         25    1    4    4    0    0 -0.54777291271E+02 -0.16276087264E+02 -0.28209383558E+03  0.31383100998E+03  0.12509000000E+03 0.  0.
         25    1    3    3    0    0  0.60668085065E+02  0.21120797357E+02 -0.10901624335E+03  0.17792907025E+03  0.12509000000E+03 0.  0.
<mgrwt>
<rscale>  2 0.45761871E+03</rscale>
<asrwt>0</asrwt>
<pdfrwt beam="1">  1       21 0.87037612E-02 0.45761871E+03</pdfrwt>
<pdfrwt beam="2">  1       21 0.13008366E+00 0.45761871E+03</pdfrwt>
<totfact> 0.40557752E+04</totfact>
</mgrwt>
</event>
<event>
 7    0  0.4784406E-002  0.4565565E+03  0.7546771E-02  0.1025785E+00
         21   -1    0    0  502  501  0.00000000000E+00  0.00000000000E+00  0.23423256235E+03  0.23423256235E+03  0.00000000000E+00 0.  1.
         21   -1    0    0  501  502 -0.00000000000E+00 -0.00000000000E+00 -0.22247531789E+03  0.22247531789E+03  0.00000000000E+00 0.  1.
      99926    2    1    2    0    0 -0.14210854715E-13  0.17763568394E-14  0.11757244465E+02  0.45670788024E+03  0.45655651904E+03 0.  0.
      99925    2    3    3    0    0  0.10931962887E+03  0.80500163466E+01  0.40809321281E+02  0.28786737773E+03  0.26303353862E+03 0.  0.
         25    1    4    4    0    0  0.48141196822E+02  0.44043481725E+02  0.17524354367E+02  0.14216896360E+03  0.12509000000E+03 0.  0.
         25    1    3    3    0    0 -0.10931962887E+03 -0.80500163466E+01 -0.29052076816E+02  0.16884050251E+03  0.12509000000E+03 0.  0.
         25    1    4    4    0    0  0.61178432047E+02 -0.35993465379E+02  0.23284966914E+02  0.14569841414E+03  0.12509000000E+03 0.  0.
<mgrwt>
<rscale>  2 0.45655652E+03</rscale>
<asrwt>0</asrwt>
<pdfrwt beam="1">  1       21 0.34445965E-01 0.45655652E+03</pdfrwt>
<pdfrwt beam="2">  1       21 0.32716959E-01 0.45655652E+03</pdfrwt>
<totfact> 0.67577683E+04</totfact>
</mgrwt>
</event>
<event>
 7    0  0.4784406E-002  0.4503965E+03  0.7546771E-02  0.1027604E+00
         21   -1    0    0  502  501  0.00000000000E+00  0.00000000000E+00  0.57006263111E+03  0.57006263111E+03  0.00000000000E+00 0.  1.
         21   -1    0    0  501  502 -0.00000000000E+00 -0.00000000000E+00 -0.88962600819E+02  0.88962600819E+02  0.00000000000E+00 0.  1.
      99926    2    1    2    0    0  0.00000000000E+00  0.00000000000E+00  0.48110003030E+03  0.65902523193E+03  0.45039651106E+03 0.  0.
      99925    2    3    3    0    0  0.92391108649E+02  0.28593998791E+02  0.23111902483E+03  0.36323519674E+03  0.26300203571E+03 0.  0.
         25    1    3    3    0    0 -0.92391108649E+02 -0.28593998791E+02  0.24998100547E+03  0.29579003519E+03  0.12509000000E+03 0.  0.
         25    1    4    4    0    0  0.13986598796E+02 -0.33352066238E+01  0.77791119186E+02  0.14800579338E+03  0.12509000000E+03 0.  0.
         25    1    4    4    0    0  0.78404509852E+02  0.31929205415E+02  0.15332790564E+03  0.21522940336E+03  0.12509000000E+03 0.  0.
<mgrwt>
<rscale>  2 0.45039651E+03</rscale>
<asrwt>0</asrwt>
<pdfrwt beam="1">  1       21 0.83832738E-01 0.45039651E+03</pdfrwt>
<pdfrwt beam="2">  1       21 0.13082736E-01 0.45039651E+03</pdfrwt>
<totfact> 0.57233704E+04</totfact>
</mgrwt>
</event>
<event>
 7    0  0.4784406E-002  0.4589126E+03  0.7546771E-02  0.1025097E+00
         21   -1    0    0  502  501  0.00000000000E+00  0.00000000000E+00  0.84299813540E+03  0.84299813540E+03  0.00000000000E+00 0.  1.
         21   -1    0    0  501  502 -0.00000000000E+00 -0.00000000000E+00 -0.62455890857E+02  0.62455890857E+02  0.00000000000E+00 0.  1.
      99926    2    1    2    0    0  0.00000000000E+00  0.66613381478E-15  0.78054224455E+03  0.90545402626E+03  0.45891262583E+03 0.  0.
      99925    2    3    3    0    0 -0.99283012357E+02  0.16183601246E+01  0.36845447351E+03  0.46349975852E+03  0.26308476100E+03 0.  0.
         25    1    4    4    0    0 -0.67338248940E+02 -0.32051069687E+02  0.22069811376E+03  0.26441799552E+03  0.12509000000E+03 0.  0.
         25    1    3    3    0    0  0.99283012357E+02 -0.16183601246E+01  0.41208777104E+03  0.44195426774E+03  0.12509000000E+03 0.  0.
         25    1    4    4    0    0 -0.31944763418E+02  0.33669429811E+02  0.14775635975E+03  0.19908176300E+03  0.12509000000E+03 0.  0.
<mgrwt>
<rscale>  2 0.45891263E+03</rscale>
<asrwt>0</asrwt>
<pdfrwt beam="1">  1       21 0.12397031E+00 0.45891263E+03</pdfrwt>
<pdfrwt beam="2">  1       21 0.91846903E-02 0.45891263E+03</pdfrwt>
<totfact> 0.41706448E+04</totfact>
</mgrwt>
</event>
<event>
 7    0  0.4784406E-002  0.4545469E+03  0.7546771E-02  0.1026375E+00
         21   -1    0    0  502  501  0.00000000000E+00  0.00000000000E+00  0.31010001685E+03  0.31010001685E+03  0.00000000000E+00 0.  1.
         21   -1    0    0  501  502 -0.00000000000E+00 -0.00000000000E+00 -0.16656955924E+03  0.16656955924E+03  0.00000000000E+00 0.  1.
      99926    2    1    2    0    0  0.00000000000E+00 -0.14210854715E-13  0.14353045761E+03  0.47666957609E+03  0.45454690903E+03 0.  0.
      99925    2    3    3    0    0 -0.79336672121E+02  0.72568308996E+02  0.12534015875E+03  0.31072120434E+03  0.26320532748E+03 0.  0.
         25    1    4    4    0    0 -0.73133142731E+02  0.62557235179E+02  0.57821692748E+02  0.16808545592E+03  0.12509000000E+03 0.  0.
         25    1    4    4    0    0 -0.62035293907E+01  0.10011073816E+02  0.67518466000E+02  0.14263574842E+03  0.12509000000E+03 0.  0.
         25    1    3    3    0    0  0.79336672121E+02 -0.72568308996E+02  0.18190298860E+02  0.16594837175E+03  0.12509000000E+03 0.  0.
<mgrwt>
<rscale>  2 0.45454691E+03</rscale>
<asrwt>0</asrwt>
<pdfrwt beam="1">  1       21 0.45602944E-01 0.45454691E+03</pdfrwt>
<pdfrwt beam="2">  1       21 0.24495523E-01 0.45454691E+03</pdfrwt>
<totfact> 0.67184605E+04</totfact>
</mgrwt>
</event>
<event>
 7    0  0.4784406E-002  0.4589205E+03  0.7546771E-02  0.1025095E+00
         21   -1    0    0  502  501  0.00000000000E+00  0.00000000000E+00  0.60871721671E+03  0.60871721671E+03  0.00000000000E+00 0. -1.
         21   -1    0    0  501  502 -0.00000000000E+00 -0.00000000000E+00 -0.86496656180E+02  0.86496656180E+02  0.00000000000E+00 0. -1.
      99926    2    1    2    0    0 -0.71054273576E-14  0.00000000000E+00  0.52222056053E+03  0.69521387289E+03  0.45892048900E+03 0.  0.
      99925    2    3    3    0    0 -0.60516243631E+02  0.71427528697E+02  0.22171995502E+03  0.35652193379E+03  0.26302859772E+03 0.  0.
         25    1    4    4    0    0 -0.19835126407E+02  0.35528211451E+02  0.15922406316E+03  0.20653207121E+03  0.12509000000E+03 0.  0.
         25    1    4    4    0    0 -0.40681117224E+02  0.35899317246E+02  0.62495891853E+02  0.14998986258E+03  0.12509000000E+03 0.  0.
         25    1    3    3    0    0  0.60516243631E+02 -0.71427528697E+02  0.30050060552E+03  0.33869193910E+03  0.12509000000E+03 0.  0.
<mgrwt>
<rscale>  2 0.45892049E+03</rscale>
<asrwt>0</asrwt>
<pdfrwt beam="1">  1       21 0.89517235E-01 0.45892049E+03</pdfrwt>
<pdfrwt beam="2">  1       21 0.12720097E-01 0.45892049E+03</pdfrwt>
<totfact> 0.51554242E+04</totfact>
</mgrwt>
</event>
<event>
 7    0  0.4784406E-002  0.4560465E+03  0.7546771E-02  0.1025934E+00
         21   -1    0    0  502  501  0.00000000000E+00  0.00000000000E+00  0.35912661981E+03  0.35912661981E+03  0.00000000000E+00 0.  1.
         21   -1    0    0  501  502 -0.00000000000E+00 -0.00000000000E+00 -0.14478067366E+03  0.14478067366E+03  0.00000000000E+00 0.  1.
      99926    2    1    2    0    0  0.35527136788E-14 -0.17763568394E-14  0.21434594615E+03  0.50390729348E+03  0.45604646231E+03 0.  0.
      99925    2    3    3    0    0 -0.30571685802E+02 -0.14412140429E+02  0.25535823342E+03  0.36799609610E+03  0.26281354912E+03 0.  0.
         25    1    3    3    0    0  0.30571685802E+02  0.14412140429E+02 -0.41012287273E+02  0.13591119737E+03  0.12509000000E+03 0.  0.
         25    1    4    4    0    0 -0.64470091197E+01  0.12097590919E+02  0.78104699035E+02  0.14810728457E+03  0.12509000000E+03 0.  0.
         25    1    4    4    0    0 -0.24124676682E+02 -0.26509731349E+02  0.17725353439E+03  0.21988881153E+03  0.12509000000E+03 0.  0.
<mgrwt>
<rscale>  2 0.45604646E+03</rscale>
<asrwt>0</asrwt>
<pdfrwt beam="1">  1       21 0.52812738E-01 0.45604646E+03</pdfrwt>
<pdfrwt beam="2">  1       21 0.21291276E-01 0.45604646E+03</pdfrwt>
<totfact> 0.64459932E+04</totfact>
</mgrwt>
</event>
<event>
 7    0  0.4784406E-002  0.4562095E+03  0.7546771E-02  0.1025886E+00
         21   -1    0    0  502  501  0.00000000000E+00  0.00000000000E+00  0.80702062186E+03  0.80702062186E+03  0.00000000000E+00 0. -1.
         21   -1    0    0  501  502 -0.00000000000E+00 -0.00000000000E+00 -0.64473912354E+02  0.64473912354E+02  0.00000000000E+00 0. -1.
      99926    2    1    2    0    0  0.71054273576E-14  0.14210854715E-13  0.74254670951E+03  0.87149453422E+03  0.45620949943E+03 0.  0.
      99925    2    3    3    0    0 -0.35645024220E+02 -0.81529653096E+02  0.32994433455E+03  0.43126064183E+03  0.26306809994E+03 0.  0.
         25    1    4    4    0    0 -0.32909618212E+02 -0.29257647137E+02  0.21915876435E+03  0.25615839822E+03  0.12509000000E+03 0.  0.
         25    1    3    3    0    0  0.35645024220E+02  0.81529653096E+02  0.41260237496E+03  0.44023389239E+03  0.12509000000E+03 0.  0.
         25    1    4    4    0    0 -0.27354060087E+01 -0.52272005959E+02  0.11078557020E+03  0.17510224361E+03  0.12509000000E+03 0.  0.
<mgrwt>
<rscale>  2 0.45620950E+03</rscale>
<asrwt>0</asrwt>
<pdfrwt beam="1">  1       21 0.11867950E+00 0.45620950E+03</pdfrwt>
<pdfrwt beam="2">  1       21 0.94814582E-02 0.45620950E+03</pdfrwt>
<totfact> 0.44070125E+04</totfact>
</mgrwt>
</event>
<event>
 7    0  0.4784406E-002  0.4537657E+03  0.7546771E-02  0.1026605E+00
         21   -1    0    0  502  501  0.00000000000E+00  0.00000000000E+00  0.96250835320E+02  0.96250835320E+02  0.00000000000E+00 0.  1.
         21   -1    0    0  501  502 -0.00000000000E+00 -0.00000000000E+00 -0.53480921321E+03  0.53480921321E+03  0.00000000000E+00 0.  1.
      99926    2    1    2    0    0  0.00000000000E+00  0.00000000000E+00 -0.43855837789E+03  0.63106004853E+03  0.45376572593E+03 0.  0.
      99925    2    3    3    0    0 -0.19510423180E+02  0.10996579674E+03 -0.28889631233E+03  0.40629489324E+03  0.26294738624E+03 0.  0.
         25    1    3    3    0    0  0.19510423180E+02 -0.10996579674E+03 -0.14966206557E+03  0.22476515530E+03  0.12509000000E+03 0.  0.
         25    1    4    4    0    0  0.22147715975E+02  0.77728404060E+02 -0.16827827571E+03  0.22471607040E+03  0.12509000000E+03 0.  0.
         25    1    4    4    0    0 -0.41658139155E+02  0.32237392681E+02 -0.12061803661E+03  0.18157882283E+03  0.12509000000E+03 0.  0.
<mgrwt>
<rscale>  2 0.45376573E+03</rscale>
<asrwt>0</asrwt>
<pdfrwt beam="1">  1       21 0.14154535E-01 0.45376573E+03</pdfrwt>
<pdfrwt beam="2">  1       21 0.78648414E-01 0.45376573E+03</pdfrwt>
<totfact> 0.57362882E+04</totfact>
</mgrwt>
</event>
<event>
 7    0  0.4784406E-002  0.4677864E+03  0.7546771E-02  0.1022547E+00
         21   -1    0    0  502  501  0.00000000000E+00  0.00000000000E+00  0.57153153759E+03  0.57153153759E+03  0.00000000000E+00 0.  1.
         21   -1    0    0  501  502 -0.00000000000E+00 -0.00000000000E+00 -0.95718309994E+02  0.95718309994E+02  0.00000000000E+00 0.  1.
      99926    2    1    2    0    0  0.00000000000E+00  0.00000000000E+00  0.47581322759E+03  0.66724984758E+03  0.46778641659E+03 0.  0.
      99925    2    3    3    0    0 -0.12146829870E+03  0.26433591720E+02  0.28107833757E+03  0.40452857350E+03  0.26303051642E+03 0.  0.
         25    1    3    3    0    0  0.12146829870E+03 -0.26433591720E+02  0.19473489002E+03  0.26272127408E+03  0.12509000000E+03 0.  0.
         25    1    4    4    0    0 -0.70941796026E+02  0.30330805441E+02  0.19601346114E+03  0.24499281873E+03  0.12509000000E+03 0.  0.
         25    1    4    4    0    0 -0.50526502678E+02 -0.38972137214E+01  0.85064876427E+02  0.15953575477E+03  0.12509000000E+03 0.  0.
<mgrwt>
<rscale>  2 0.46778642E+03</rscale>
<asrwt>0</asrwt>
<pdfrwt beam="1">  1       21 0.84048754E-01 0.46778642E+03</pdfrwt>
<pdfrwt beam="2">  1       21 0.14076222E-01 0.46778642E+03</pdfrwt>
<totfact> 0.49531660E+04</totfact>
</mgrwt>
</event>
<event>
 7    0  0.4784406E-002  0.4466378E+03  0.7546771E-02  0.1028729E+00
         21   -1    0    0  502  501  0.00000000000E+00  0.00000000000E+00  0.80337123731E+03  0.80337123731E+03  0.00000000000E+00 0.  1.
         21   -1    0    0  501  502 -0.00000000000E+00 -0.00000000000E+00 -0.62077563611E+02  0.62077563611E+02  0.00000000000E+00 0.  1.
      99926    2    1    2    0    0  0.17763568394E-14  0.00000000000E+00  0.74129367370E+03  0.86544880092E+03  0.44663779100E+03 0.  0.
      99925    2    3    3    0    0  0.65182341181E+01 -0.53256988788E+02  0.64529230772E+03  0.69888780729E+03  0.26298899319E+03 0.  0.
         25    1    3    3    0    0 -0.65182341181E+01  0.53256988788E+02  0.96001365978E+02  0.16656099363E+03  0.12509000000E+03 0.  0.
         25    1    4    4    0    0  0.22500588905E+02 -0.48679714401E+02  0.40840701211E+03  0.43048784737E+03  0.12509000000E+03 0.  0.
         25    1    4    4    0    0 -0.15982354787E+02 -0.45772743868E+01  0.23688529562E+03  0.26839995992E+03  0.12509000000E+03 0.  0.
<mgrwt>
<rscale>  2 0.44663779E+03</rscale>
<asrwt>0</asrwt>
<pdfrwt beam="1">  1       21 0.11814282E+00 0.44663779E+03</pdfrwt>
<pdfrwt beam="2">  1       21 0.91290539E-02 0.44663779E+03</pdfrwt>
<totfact> 0.47815459E+04</totfact>
</mgrwt>
</event>
<event>
 7    0  0.4784406E-002  0.4501624E+03  0.7546771E-02  0.1027674E+00
         21   -1    0    0  502  501  0.00000000000E+00  0.00000000000E+00  0.56206463279E+02  0.56206463279E+02  0.00000000000E+00 0.  1.
         21   -1    0    0  501  502 -0.00000000000E+00 -0.00000000000E+00 -0.90134727304E+03  0.90134727304E+03  0.00000000000E+00 0.  1.
      99926    2    1    2    0    0  0.00000000000E+00  0.00000000000E+00 -0.84514080976E+03  0.95755373632E+03  0.45016238138E+03 0.  0.
      99925    2    3    3    0    0  0.20090863184E+02  0.42042995817E+02 -0.32482851704E+03  0.42039114796E+03  0.26276205113E+03 0.  0.
         25    1    4    4    0    0  0.12086055717E+02 -0.95937972121E+01 -0.11523597258E+03  0.17077749021E+03  0.12509000000E+03 0.  0.
         25    1    3    3    0    0 -0.20090863184E+02 -0.42042995817E+02 -0.52031229272E+03  0.53716258836E+03  0.12509000000E+03 0.  0.
         25    1    4    4    0    0  0.80048074671E+01  0.51636793029E+02 -0.20959254446E+03  0.24961365774E+03  0.12509000000E+03 0.  0.
<mgrwt>
<rscale>  2 0.45016238E+03</rscale>
<asrwt>0</asrwt>
<pdfrwt beam="1">  1       21 0.82656560E-02 0.45016238E+03</pdfrwt>
<pdfrwt beam="2">  1       21 0.13255107E+00 0.45016238E+03</pdfrwt>
<totfact> 0.42418370E+04</totfact>
</mgrwt>
</event>
<event>
 7    0  0.4784406E-002  0.4498895E+03  0.7546771E-02  0.1027755E+00
         21   -1    0    0  502  501  0.00000000000E+00  0.00000000000E+00  0.54944809614E+02  0.54944809614E+02  0.00000000000E+00 0. -1.
         21   -1    0    0  501  502 -0.00000000000E+00 -0.00000000000E+00 -0.92092657291E+03  0.92092657291E+03  0.00000000000E+00 0. -1.
      99926    2    1    2    0    0  0.00000000000E+00  0.00000000000E+00 -0.86598176330E+03  0.97587138253E+03  0.44988947628E+03 0.  0.
      99925    2    3    3    0    0  0.67491374768E+02 -0.70980309210E+02 -0.64788481771E+03  0.70604351936E+03  0.26296278112E+03 0.  0.
         25    1    4    4    0    0  0.23754260739E+02 -0.69538940624E+02 -0.38979804396E+03  0.41592060822E+03  0.12509000000E+03 0.  0.
         25    1    4    4    0    0  0.43737114029E+02 -0.14413685861E+01 -0.25808677374E+03  0.29012291114E+03  0.12509000000E+03 0.  0.
         25    1    3    3    0    0 -0.67491374768E+02  0.70980309210E+02 -0.21809694559E+03  0.26982786316E+03  0.12509000000E+03 0.  0.
<mgrwt>
<rscale>  2 0.44988948E+03</rscale>
<asrwt>0</asrwt>
<pdfrwt beam="1">  1       21 0.80801193E-02 0.44988948E+03</pdfrwt>
<pdfrwt beam="2">  1       21 0.13543037E+00 0.44988948E+03</pdfrwt>
<totfact> 0.41753819E+04</totfact>
</mgrwt>
</event>
<event>
 7    0  0.4784406E-002  0.4525514E+03  0.7546771E-02  0.1026964E+00
         21   -1    0    0  502  501  0.00000000000E+00  0.00000000000E+00  0.26048594123E+03  0.26048594123E+03  0.00000000000E+00 0.  1.
         21   -1    0    0  501  502 -0.00000000000E+00 -0.00000000000E+00 -0.19655838651E+03  0.19655838651E+03  0.00000000000E+00 0.  1.
      99926    2    1    2    0    0  0.00000000000E+00  0.00000000000E+00  0.63927554722E+02  0.45704432774E+03  0.45255141727E+03 0.  0.
      99925    2    3    3    0    0 -0.26423353516E+02 -0.88812393726E+02 -0.21029456558E+02  0.27969992621E+03  0.26306648549E+03 0.  0.
         25    1    4    4    0    0 -0.18434414663E+02 -0.70660545299E+02  0.20772273185E+02  0.14632749482E+03  0.12509000000E+03 0.  0.
         25    1    3    3    0    0  0.26423353516E+02  0.88812393726E+02  0.84957011280E+02  0.17734440154E+03  0.12509000000E+03 0.  0.
         25    1    4    4    0    0 -0.79889388529E+01 -0.18151848427E+02 -0.41801729744E+02  0.13337243139E+03  0.12509000000E+03 0.  0.
<mgrwt>
<rscale>  2 0.45255142E+03</rscale>
<asrwt>0</asrwt>
<pdfrwt beam="1">  1       21 0.38306756E-01 0.45255142E+03</pdfrwt>
<pdfrwt beam="2">  1       21 0.28905645E-01 0.45255142E+03</pdfrwt>
<totfact> 0.69748563E+04</totfact>
</mgrwt>
</event>
<event>
 7    0  0.4784406E-002  0.4585358E+03  0.7546771E-02  0.1025207E+00
         21   -1    0    0  502  501  0.00000000000E+00  0.00000000000E+00  0.52583747135E+02  0.52583747135E+02  0.00000000000E+00 0.  1.
         21   -1    0    0  501  502 -0.00000000000E+00 -0.00000000000E+00 -0.99962011049E+03  0.99962011049E+03  0.00000000000E+00 0.  1.
      99926    2    1    2    0    0  0.00000000000E+00  0.00000000000E+00 -0.94703636335E+03  0.10522038576E+04  0.45853580502E+03 0.  0.
      99925    2    3    3    0    0 -0.80934187594E+02  0.83830603627E+02 -0.59189138107E+03  0.65805492718E+03  0.26291247095E+03 0.  0.
         25    1    4    4    0    0 -0.56378813678E+02  0.62199460959E+01 -0.25657197866E+03  0.29102224433E+03  0.12509000000E+03 0.  0.
         25    1    3    3    0    0  0.80934187594E+02 -0.83830603627E+02 -0.35514498228E+03  0.39414893044E+03  0.12509000000E+03 0.  0.
         25    1    4    4    0    0 -0.24555373916E+02  0.77610657531E+02 -0.33531940241E+03  0.36703268286E+03  0.12509000000E+03 0.  0.
<mgrwt>
<rscale>  2 0.45853581E+03</rscale>
<asrwt>0</asrwt>
<pdfrwt beam="1">  1       21 0.77329040E-02 0.45853581E+03</pdfrwt>
<pdfrwt beam="2">  1       21 0.14700296E+00 0.45853581E+03</pdfrwt>
<totfact> 0.36187581E+04</totfact>
</mgrwt>
</event>
<event>
 7    0  0.4784406E-002  0.4581141E+03  0.7546771E-02  0.1025330E+00
         21   -1    0    0  502  501  0.00000000000E+00  0.00000000000E+00  0.49493076855E+02  0.49493076855E+02  0.00000000000E+00 0. -1.
         21   -1    0    0  501  502 -0.00000000000E+00 -0.00000000000E+00 -0.10600905247E+04  0.10600905247E+04  0.00000000000E+00 0. -1.
      99926    2    1    2    0    0  0.00000000000E+00  0.88817841970E-15 -0.10105974478E+04  0.11095836015E+04  0.45811414216E+03 0.  0.
      99925    2    3    3    0    0 -0.47663376449E+02  0.39511007950E+01 -0.37777654101E+03  0.46274728773E+03  0.26293065381E+03 0.  0.
         25    1    3    3    0    0  0.47663376449E+02 -0.39511007950E+01 -0.63282090681E+03  0.64683631380E+03  0.12509000000E+03 0.  0.
         25    1    4    4    0    0  0.15396741321E+02  0.13691099932E+02 -0.18350434273E+03  0.22303779447E+03  0.12509000000E+03 0.  0.
         25    1    4    4    0    0 -0.63060117770E+02 -0.97399991366E+01 -0.19427219828E+03  0.23970949326E+03  0.12509000000E+03 0.  0.
<mgrwt>
<rscale>  2 0.45811414E+03</rscale>
<asrwt>0</asrwt>
<pdfrwt beam="1">  1       21 0.72783944E-02 0.45811414E+03</pdfrwt>
<pdfrwt beam="2">  1       21 0.15589565E+00 0.45811414E+03</pdfrwt>
<totfact> 0.34319763E+04</totfact>
</mgrwt>
</event>
<event>
 7    0  0.4784406E-002  0.4449351E+03  0.7546771E-02  0.1029243E+00
         21   -1    0    0  502  501  0.00000000000E+00  0.00000000000E+00  0.77167132354E+03  0.77167132354E+03  0.00000000000E+00 0. -1.
         21   -1    0    0  501  502 -0.00000000000E+00 -0.00000000000E+00 -0.64135864326E+02  0.64135864326E+02  0.00000000000E+00 0. -1.
      99926    2    1    2    0    0 -0.26645352591E-14  0.00000000000E+00  0.70753545921E+03  0.83580718786E+03  0.44493508430E+03 0.  0.
      99925    2    3    3    0    0 -0.59895011826E+01 -0.96528437619E+02  0.38153648678E+03  0.47348626448E+03  0.26318346930E+03 0.  0.
         25    1    4    4    0    0 -0.40757827032E+02 -0.65042177496E+02  0.20337034970E+03  0.25079611750E+03  0.12509000000E+03 0.  0.
         25    1    3    3    0    0  0.59895011826E+01  0.96528437619E+02  0.32599897244E+03  0.36232092339E+03  0.12509000000E+03 0.  0.
         25    1    4    4    0    0  0.34768325849E+02 -0.31486260123E+02  0.17816613708E+03  0.22269014698E+03  0.12509000000E+03 0.  0.
<mgrwt>
<rscale>  2 0.44493508E+03</rscale>
<asrwt>0</asrwt>
<pdfrwt beam="1">  1       21 0.11348107E+00 0.44493508E+03</pdfrwt>
<pdfrwt beam="2">  1       21 0.94317452E-02 0.44493508E+03</pdfrwt>
<totfact> 0.49906816E+04</totfact>
</mgrwt>
</event>
<event>
 7    0  0.4784406E-002  0.4356399E+03  0.7546771E-02  0.1032093E+00
         21   -1    0    0  502  501  0.00000000000E+00  0.00000000000E+00  0.48604310824E+02  0.48604310824E+02  0.00000000000E+00 0.  1.
         21   -1    0    0  501  502 -0.00000000000E+00 -0.00000000000E+00 -0.97615885315E+03  0.97615885315E+03  0.00000000000E+00 0.  1.
      99926    2    1    2    0    0  0.00000000000E+00 -0.14210854715E-13 -0.92755454233E+03  0.10247631640E+04  0.43563988941E+03 0.  0.
      99925    2    3    3    0    0 -0.24681519256E+02 -0.68730117739E+02 -0.45759920459E+03  0.53299234942E+03  0.26334541201E+03 0.  0.
         25    1    4    4    0    0 -0.23175320773E+02 -0.69911106851E+02 -0.20602913826E+03  0.25203208578E+03  0.12509000000E+03 0.  0.
         25    1    4    4    0    0 -0.15061984831E+01  0.11809891122E+01 -0.25157006633E+03  0.28096026364E+03  0.12509000000E+03 0.  0.
         25    1    3    3    0    0  0.24681519256E+02  0.68730117739E+02 -0.46995533774E+03  0.49177081455E+03  0.12509000000E+03 0.  0.
<mgrwt>
<rscale>  2 0.43563989E+03</rscale>
<asrwt>0</asrwt>
<pdfrwt beam="1">  1       21 0.71476932E-02 0.43563989E+03</pdfrwt>
<pdfrwt beam="2">  1       21 0.14355276E+00 0.43563989E+03</pdfrwt>
<totfact> 0.44584543E+04</totfact>
</mgrwt>
</event>
<event>
 7    0  0.4784406E-002  0.4615422E+03  0.7546771E-02  0.1024335E+00
         21   -1    0    0  502  501  0.00000000000E+00  0.00000000000E+00  0.16773940414E+02  0.16773940414E+02  0.00000000000E+00 0.  1.
         21   -1    0    0  501  502 -0.00000000000E+00 -0.00000000000E+00 -0.31748829249E+04  0.31748829249E+04  0.00000000000E+00 0.  1.
      99926    2    1    2    0    0  0.35527136788E-14 -0.17763568394E-14 -0.31581089845E+04  0.31916568653E+04  0.46154218444E+03 0.  0.
      99925    2    3    3    0    0  0.24821248075E+02  0.48922636562E+01 -0.11664804659E+04  0.11959435360E+04  0.26261042517E+03 0.  0.
         25    1    3    3    0    0 -0.24821248075E+02 -0.48922636562E+01 -0.19916285186E+04  0.19957133293E+04  0.12509000000E+03 0.  0.
         25    1    4    4    0    0  0.32493664699E+02  0.36517424477E+02 -0.62148240101E+03  0.63582799828E+03  0.12509000000E+03 0.  0.
         25    1    4    4    0    0 -0.76724166247E+01 -0.31625160820E+02 -0.54499806486E+03  0.56011553770E+03  0.12509000000E+03 0.  0.
<mgrwt>
<rscale>  2 0.46154218E+03</rscale>
<asrwt>0</asrwt>
<pdfrwt beam="1">  1       21 0.24667547E-02 0.46154218E+03</pdfrwt>
<pdfrwt beam="2">  1       21 0.46689478E+00 0.46154218E+03</pdfrwt>
<totfact> 0.22004772E+03</totfact>
</mgrwt>
</event>
<event>
 7    0  0.4784406E-002  0.4682602E+03  0.7546771E-02  0.1022412E+00
         21   -1    0    0  502  501  0.00000000000E+00  0.00000000000E+00  0.57665513205E+03  0.57665513205E+03  0.00000000000E+00 0. -1.
         21   -1    0    0  501  502 -0.00000000000E+00 -0.00000000000E+00 -0.95060110731E+02  0.95060110731E+02  0.00000000000E+00 0. -1.
      99926    2    1    2    0    0  0.00000000000E+00  0.00000000000E+00  0.48159502132E+03  0.67171524278E+03  0.46826018710E+03 0.  0.
      99925    2    3    3    0    0 -0.88028419491E+02  0.63341542063E+02  0.20885700321E+03  0.35266244431E+03  0.26265642625E+03 0.  0.
         25    1    3    3    0    0  0.88028419491E+02 -0.63341542063E+02  0.27273801811E+03  0.31905279847E+03  0.12509000000E+03 0.  0.
         25    1    4    4    0    0 -0.59375095786E+02  0.30204422258E+02  0.15380740660E+03  0.20914572802E+03  0.12509000000E+03 0.  0.
         25    1    4    4    0    0 -0.28653323705E+02  0.33137119806E+02  0.55049596612E+02  0.14351671629E+03  0.12509000000E+03 0.  0.
<mgrwt>
<rscale>  2 0.46826019E+03</rscale>
<asrwt>0</asrwt>
<pdfrwt beam="1">  1       21 0.84802224E-01 0.46826019E+03</pdfrwt>
<pdfrwt beam="2">  1       21 0.13979428E-01 0.46826019E+03</pdfrwt>
<totfact> 0.49125481E+04</totfact>
</mgrwt>
</event>
<event>
 7    0  0.4784406E-002  0.4591365E+03  0.7546771E-02  0.1025032E+00
         21   -1    0    0  502  501  0.00000000000E+00  0.00000000000E+00  0.14722049791E+03  0.14722049791E+03  0.00000000000E+00 0. -1.
         21   -1    0    0  501  502 -0.00000000000E+00 -0.00000000000E+00 -0.35797715170E+03  0.35797715170E+03  0.00000000000E+00 0. -1.
      99926    2    1    2    0    0 -0.14210854715E-13  0.71054273576E-14 -0.21075665379E+03  0.50519764961E+03  0.45913646997E+03 0.  0.
      99925    2    3    3    0    0 -0.10955640332E+03  0.40817045522E+02 -0.13720518925E+03  0.31884861487E+03  0.26300292496E+03 0.  0.
         25    1    4    4    0    0 -0.45875577930E+02 -0.18941138770E+02 -0.75289211198E+02  0.15420541110E+03  0.12509000000E+03 0.  0.
         25    1    3    3    0    0  0.10955640332E+03 -0.40817045522E+02 -0.73551464544E+02  0.18634903474E+03  0.12509000000E+03 0.  0.
         25    1    4    4    0    0 -0.63680825387E+02  0.59758184292E+02 -0.61915978049E+02  0.16464320378E+03  0.12509000000E+03 0.  0.
<mgrwt>
<rscale>  2 0.45913647E+03</rscale>
<asrwt>0</asrwt>
<pdfrwt beam="1">  1       21 0.21650073E-01 0.45913647E+03</pdfrwt>
<pdfrwt beam="2">  1       21 0.52643699E-01 0.45913647E+03</pdfrwt>
<totfact> 0.62818969E+04</totfact>
</mgrwt>
</event>
<event>
 7    0  0.4784406E-002  0.4548024E+03  0.7546771E-02  0.1026300E+00
         21   -1    0    0  502  501  0.00000000000E+00  0.00000000000E+00  0.35194417003E+03  0.35194417003E+03  0.00000000000E+00 0.  1.
         21   -1    0    0  501  502 -0.00000000000E+00 -0.00000000000E+00 -0.14693040927E+03  0.14693040927E+03  0.00000000000E+00 0.  1.
      99926    2    1    2    0    0  0.17763568394E-14  0.14210854715E-13  0.20501376076E+03  0.49887457930E+03  0.45480237881E+03 0.  0.
      99925    2    3    3    0    0  0.58411501234E+01  0.10902158658E+03  0.15720910486E+03  0.32609547581E+03  0.26401464225E+03 0.  0.
         25    1    4    4    0    0  0.24484629883E+02  0.51539814702E+02  0.11945715753E+03  0.18213558188E+03  0.12509000000E+03 0.  0.
         25    1    3    3    0    0 -0.58411501234E+01 -0.10902158658E+03  0.47804655899E+02  0.17277910348E+03  0.12509000000E+03 0.  0.
         25    1    4    4    0    0 -0.18643479760E+02  0.57481771878E+02  0.37751947326E+02  0.14395989394E+03  0.12509000000E+03 0.  0.
<mgrwt>
<rscale>  2 0.45480238E+03</rscale>
<asrwt>0</asrwt>
<pdfrwt beam="1">  1       21 0.51756496E-01 0.45480238E+03</pdfrwt>
<pdfrwt beam="2">  1       21 0.21607413E-01 0.45480238E+03</pdfrwt>
<totfact> 0.65452415E+04</totfact>
</mgrwt>
</event>
<event>
 6    0  0.4784406E-002  0.4471566E+03  0.7546771E-02  0.1028573E+00
         21   -1    0    0  502  501  0.00000000000E+00  0.00000000000E+00  0.77773693856E+03  0.77773693856E+03  0.00000000000E+00 0.  1.
         21   -1    0    0  501  502 -0.00000000000E+00 -0.00000000000E+00 -0.64272700585E+02  0.64272700585E+02  0.00000000000E+00 0.  1.
      99926    2    1    2    0    0  0.71054273576E-14  0.00000000000E+00  0.71346423797E+03  0.84200963914E+03  0.44715658727E+03 0.  0.
         25    1    3    3    0    0 -0.55825701755E+02 -0.42395603434E+02  0.16257676500E+03  0.21677778665E+03  0.12509000000E+03 0.  0.
         25    1    3    3    0    0  0.40538310170E+02  0.91006121514E+02  0.27692120746E+03  0.31977856711E+03  0.12509000000E+03 0.  0.
         25    1    3    3    0    0  0.15287391585E+02 -0.48610518080E+02  0.27396626551E+03  0.30545328538E+03  0.12509000000E+03 0.  0.
<mgrwt>
<rscale>  2 0.44715659E+03</rscale>
<asrwt>0</asrwt>
<pdfrwt beam="1">  1       21 0.11437307E+00 0.44715659E+03</pdfrwt>
<pdfrwt beam="2">  1       21 0.94518682E-02 0.44715659E+03</pdfrwt>
<totfact> 0.48728874E+04</totfact>
</mgrwt>
</event>
<event>
 7    0  0.4784406E-002  0.4619050E+03  0.7546771E-02  0.1024230E+00
         21   -1    0    0  502  501  0.00000000000E+00  0.00000000000E+00  0.66580482215E+03  0.66580482215E+03  0.00000000000E+00 0. -1.
         21   -1    0    0  501  502 -0.00000000000E+00 -0.00000000000E+00 -0.80112147084E+02  0.80112147084E+02  0.00000000000E+00 0. -1.
      99926    2    1    2    0    0  0.00000000000E+00  0.00000000000E+00  0.58569267506E+03  0.74591696923E+03  0.46190498521E+03 0.  0.
      99925    2    3    3    0    0  0.35561010871E+02  0.88930539234E+02  0.25088468494E+03  0.37589382853E+03  0.26302056742E+03 0.  0.
         25    1    4    4    0    0  0.41330429044E+02  0.72471413116E+02  0.10761624342E+03  0.18490287729E+03  0.12509000000E+03 0.  0.
         25    1    3    3    0    0 -0.35561010871E+02 -0.88930539234E+02  0.33480799012E+03  0.37002314070E+03  0.12509000000E+03 0.  0.
         25    1    4    4    0    0 -0.57694181729E+01  0.16459126119E+02  0.14326844152E+03  0.19099095123E+03  0.12509000000E+03 0.  0.
<mgrwt>
<rscale>  2 0.46190499E+03</rscale>
<asrwt>0</asrwt>
<pdfrwt beam="1">  1       21 0.97912471E-01 0.46190499E+03</pdfrwt>
<pdfrwt beam="2">  1       21 0.11781198E-01 0.46190499E+03</pdfrwt>
<totfact> 0.47830455E+04</totfact>
</mgrwt>
</event>
<event>
 7    0  0.4784406E-002  0.4549929E+03  0.7546771E-02  0.1026243E+00
         21   -1    0    0  502  501  0.00000000000E+00  0.00000000000E+00  0.34430670994E+03  0.34430670994E+03  0.00000000000E+00 0.  1.
         21   -1    0    0  501  502 -0.00000000000E+00 -0.00000000000E+00 -0.15031548437E+03  0.15031548437E+03  0.00000000000E+00 0.  1.
      99926    2    1    2    0    0  0.00000000000E+00  0.14210854715E-13  0.19399122556E+03  0.49462219431E+03  0.45499287853E+03 0.  0.
      99925    2    3    3    0    0 -0.80696335315E+02  0.71506862105E+02  0.15939730906E+03  0.32589348596E+03  0.26300937663E+03 0.  0.
         25    1    3    3    0    0  0.80696335315E+02 -0.71506862105E+02  0.34593916501E+02  0.16872870835E+03  0.12509000000E+03 0.  0.
         25    1    4    4    0    0 -0.63233289979E+02  0.71002582548E+02  0.10065190650E+03  0.18659616843E+03  0.12509000000E+03 0.  0.
         25    1    4    4    0    0 -0.17463045337E+02  0.50427955643E+00  0.58745402557E+02  0.13929731753E+03  0.12509000000E+03 0.  0.
<mgrwt>
<rscale>  2 0.45499288E+03</rscale>
<asrwt>0</asrwt>
<pdfrwt beam="1">  1       21 0.50633340E-01 0.45499288E+03</pdfrwt>
<pdfrwt beam="2">  1       21 0.22105218E-01 0.45499288E+03</pdfrwt>
<totfact> 0.65653850E+04</totfact>
</mgrwt>
</event>
<event>
 7    0  0.4784406E-002  0.4578185E+03  0.7546771E-02  0.1025416E+00
         21   -1    0    0  502  501  0.00000000000E+00  0.00000000000E+00  0.15064171190E+03  0.15064171190E+03  0.00000000000E+00 0.  1.
         21   -1    0    0  501  502 -0.00000000000E+00 -0.00000000000E+00 -0.34784154854E+03  0.34784154854E+03  0.00000000000E+00 0.  1.
      99926    2    1    2    0    0  0.00000000000E+00  0.00000000000E+00 -0.19719983664E+03  0.49848326044E+03  0.45781850702E+03 0.  0.
      99925    2    3    3    0    0  0.10595011308E+03  0.39119044146E+02 -0.95992985570E+02  0.30189724649E+03  0.26300488224E+03 0.  0.
         25    1    3    3    0    0 -0.10595011308E+03 -0.39119044146E+02 -0.10120685107E+03  0.19658601395E+03  0.12509000000E+03 0.  0.
         25    1    4    4    0    0  0.92059225295E+02  0.38823895726E+02 -0.60327673822E+02  0.17108223803E+03  0.12509000000E+03 0.  0.
         25    1    4    4    0    0  0.13890887789E+02  0.29514842000E+00 -0.35665311748E+02  0.13081500846E+03  0.12509000000E+03 0.  0.
<mgrwt>
<rscale>  2 0.45781851E+03</rscale>
<asrwt>0</asrwt>
<pdfrwt beam="1">  1       21 0.22153193E-01 0.45781851E+03</pdfrwt>
<pdfrwt beam="2">  1       21 0.51153168E-01 0.45781851E+03</pdfrwt>
<totfact> 0.63934825E+04</totfact>
</mgrwt>
</event>
<event>
 7    0  0.4784406E-002  0.4575724E+03  0.7546771E-02  0.1025488E+00
         21   -1    0    0  502  501  0.00000000000E+00  0.00000000000E+00  0.61711921131E+02  0.61711921131E+02  0.00000000000E+00 0.  1.
         21   -1    0    0  501  502 -0.00000000000E+00 -0.00000000000E+00 -0.84818507095E+03  0.84818507095E+03  0.00000000000E+00 0.  1.
      99926    2    1    2    0    0  0.00000000000E+00  0.00000000000E+00 -0.78647314982E+03  0.90989699208E+03  0.45757242139E+03 0.  0.
      99925    2    3    3    0    0  0.10855529854E+03 -0.36649652676E+02 -0.52566649802E+03  0.59877793512E+03  0.26283511668E+03 0.  0.
         25    1    4    4    0    0  0.16832101431E+02 -0.34740769436E+02 -0.26128936621E+03  0.29224969067E+03  0.12509000000E+03 0.  0.
         25    1    3    3    0    0 -0.10855529854E+03  0.36649652676E+02 -0.26080665180E+03  0.31111905696E+03  0.12509000000E+03 0.  0.
         25    1    4    4    0    0  0.91723197111E+02 -0.19088832393E+01 -0.26437713181E+03  0.30652824445E+03  0.12509000000E+03 0.  0.
<mgrwt>
<rscale>  2 0.45757242E+03</rscale>
<asrwt>0</asrwt>
<pdfrwt beam="1">  1       21 0.90752831E-02 0.45757242E+03</pdfrwt>
<pdfrwt beam="2">  1       21 0.12473309E+00 0.45757242E+03</pdfrwt>
<totfact> 0.41957257E+04</totfact>
</mgrwt>
</event>
<event>
 7    0  0.4784406E-002  0.4473097E+03  0.7546771E-02  0.1028527E+00
         21   -1    0    0  502  501  0.00000000000E+00  0.00000000000E+00  0.12602305304E+03  0.12602305304E+03  0.00000000000E+00 0.  1.
         21   -1    0    0  501  502 -0.00000000000E+00 -0.00000000000E+00 -0.39692333279E+03  0.39692333279E+03  0.00000000000E+00 0.  1.
      99926    2    1    2    0    0  0.00000000000E+00 -0.14210854715E-13 -0.27090027975E+03  0.52294638583E+03  0.44730969237E+03 0.  0.
      99925    2    3    3    0    0  0.44975723086E+02  0.80160654717E+02 -0.11089858430E+03  0.30001905041E+03  0.26318128424E+03 0.  0.
         25    1    4    4    0    0  0.61863484885E+02  0.28903359021E+02 -0.58585619973E+02  0.15408529421E+03  0.12509000000E+03 0.  0.
         25    1    3    3    0    0 -0.44975723086E+02 -0.80160654717E+02 -0.16000169546E+03  0.22292733543E+03  0.12509000000E+03 0.  0.
         25    1    4    4    0    0 -0.16887761799E+02  0.51257295695E+02 -0.52312964324E+02  0.14593375619E+03  0.12509000000E+03 0.  0.
<mgrwt>
<rscale>  2 0.44730969E+03</rscale>
<asrwt>0</asrwt>
<pdfrwt beam="1">  1       21 0.18532802E-01 0.44730969E+03</pdfrwt>
<pdfrwt beam="2">  1       21 0.58371078E-01 0.44730969E+03</pdfrwt>
<totfact> 0.67720418E+04</totfact>
</mgrwt>
</event>
<event>
 7    0  0.4784406E-002  0.4457616E+03  0.7546771E-02  0.1028994E+00
         21   -1    0    0  502  501  0.00000000000E+00  0.00000000000E+00  0.59249233096E+02  0.59249233096E+02  0.00000000000E+00 0.  1.
         21   -1    0    0  501  502 -0.00000000000E+00 -0.00000000000E+00 -0.83842167342E+03  0.83842167342E+03  0.00000000000E+00 0.  1.
      99926    2    1    2    0    0 -0.88817841970E-15 -0.14210854715E-13 -0.77917244032E+03  0.89767090652E+03  0.44576155582E+03 0.  0.
      99925    2    3    3    0    0 -0.10598571665E+01  0.94094815941E+02 -0.58495068183E+03  0.64822240029E+03  0.26300194369E+03 0.  0.
         25    1    4    4    0    0 -0.18260454298E+02  0.85178956543E+02 -0.33479217856E+03  0.36786167203E+03  0.12509000000E+03 0.  0.
         25    1    4    4    0    0  0.17200597132E+02  0.89158593975E+01 -0.25015850327E+03  0.28036072826E+03  0.12509000000E+03 0.  0.
         25    1    3    3    0    0  0.10598571665E+01 -0.94094815941E+02 -0.19422175849E+03  0.24944850622E+03  0.12509000000E+03 0.  0.
<mgrwt>
<rscale>  2 0.44576156E+03</rscale>
<asrwt>0</asrwt>
<pdfrwt beam="1">  1       21 0.87131237E-02 0.44576156E+03</pdfrwt>
<pdfrwt beam="2">  1       21 0.12329729E+00 0.44576156E+03</pdfrwt>
<totfact> 0.46615058E+04</totfact>
</mgrwt>
</event>
<event>
 7    0  0.4784406E-002  0.4545382E+03  0.7546771E-02  0.1026377E+00
         21   -1    0    0  502  501  0.00000000000E+00  0.00000000000E+00  0.17790635518E+03  0.17790635518E+03  0.00000000000E+00 0. -1.
         21   -1    0    0  501  502 -0.00000000000E+00 -0.00000000000E+00 -0.29032832914E+03  0.29032832914E+03  0.00000000000E+00 0. -1.
      99926    2    1    2    0    0  0.00000000000E+00  0.00000000000E+00 -0.11242197396E+03  0.46823468432E+03  0.45453824853E+03 0.  0.
      99925    2    3    3    0    0 -0.87288619786E+02  0.71351935446E+02 -0.68912488921E+02  0.29430658072E+03  0.26297724329E+03 0.  0.
         25    1    4    4    0    0 -0.60778372255E+02  0.72051681147E+02 -0.53479712871E+02  0.16550843809E+03  0.12509000000E+03 0.  0.
         25    1    4    4    0    0 -0.26510247531E+02 -0.69974570103E+00 -0.15432776050E+02  0.12879814263E+03  0.12509000000E+03 0.  0.
         25    1    3    3    0    0  0.87288619786E+02 -0.71351935446E+02 -0.43509485035E+02  0.17392810361E+03  0.12509000000E+03 0.  0.
<mgrwt>
<rscale>  2 0.45453825E+03</rscale>
<asrwt>0</asrwt>
<pdfrwt beam="1">  1       21 0.26162700E-01 0.45453825E+03</pdfrwt>
<pdfrwt beam="2">  1       21 0.42695342E-01 0.45453825E+03</pdfrwt>
<totfact> 0.67815360E+04</totfact>
</mgrwt>
</event>
<event>
 7    0  0.4784406E-002  0.4515586E+03  0.7546771E-02  0.1027258E+00
         21   -1    0    0  502  501  0.00000000000E+00  0.00000000000E+00  0.51740535816E+03  0.51740535816E+03  0.00000000000E+00 0.  1.
         21   -1    0    0  501  502 -0.00000000000E+00 -0.00000000000E+00 -0.98522926133E+02  0.98522926133E+02  0.00000000000E+00 0.  1.
      99926    2    1    2    0    0  0.71054273576E-14  0.88817841970E-15  0.41888243203E+03  0.61592828430E+03  0.45155858926E+03 0.  0.
      99925    2    3    3    0    0 -0.53458337375E+02 -0.64427310268E+01  0.13368098879E+03  0.29987975330E+03  0.26297900498E+03 0.  0.
         25    1    4    4    0    0  0.11962321349E+02 -0.14106591654E+02  0.53024827616E+02  0.13711759006E+03  0.12509000000E+03 0.  0.
         25    1    3    3    0    0  0.53458337375E+02  0.64427310268E+01  0.28520144324E+03  0.31604853100E+03  0.12509000000E+03 0.  0.
         25    1    4    4    0    0 -0.65420658724E+02  0.76638606274E+01  0.80656161175E+02  0.16276216324E+03  0.12509000000E+03 0.  0.
<mgrwt>
<rscale>  2 0.45155859E+03</rscale>
<asrwt>0</asrwt>
<pdfrwt beam="1">  1       21 0.76089022E-01 0.45155859E+03</pdfrwt>
<pdfrwt beam="2">  1       21 0.14488666E-01 0.45155859E+03</pdfrwt>
<totfact> 0.59303800E+04</totfact>
</mgrwt>
</event>
<event>
 7    0  0.4784406E-002  0.4523296E+03  0.7546771E-02  0.1027030E+00
         21   -1    0    0  502  501  0.00000000000E+00  0.00000000000E+00  0.12499096578E+04  0.12499096578E+04  0.00000000000E+00 0. -1.
         21   -1    0    0  501  502 -0.00000000000E+00 -0.00000000000E+00 -0.40923375691E+02  0.40923375691E+02  0.00000000000E+00 0. -1.
      99926    2    1    2    0    0 -0.14210854715E-13 -0.71054273576E-14  0.12089862821E+04  0.12908330335E+04  0.45232962541E+03 0.  0.
      99925    2    3    3    0    0  0.75421968232E+02  0.49925209661E+02  0.58159298345E+03  0.64472866177E+03  0.26314188009E+03 0.  0.
         25    1    3    3    0    0 -0.75421968232E+02 -0.49925209661E+02  0.62739329865E+03  0.64610437171E+03  0.12509000000E+03 0.  0.
         25    1    4    4    0    0  0.73335288224E+02  0.46152083608E+02  0.34498015940E+03  0.37705025899E+03  0.12509000000E+03 0.  0.
         25    1    4    4    0    0  0.20866800081E+01  0.37731260534E+01  0.23661282404E+03  0.26767840278E+03  0.12509000000E+03 0.  0.
<mgrwt>
<rscale>  2 0.45232963E+03</rscale>
<asrwt>0</asrwt>
<pdfrwt beam="1">  1       21 0.18381022E+00 0.45232963E+03</pdfrwt>
<pdfrwt beam="2">  1       21 0.60181443E-02 0.45232963E+03</pdfrwt>
<totfact> 0.30000384E+04</totfact>
</mgrwt>
</event>
<event>
 7    0  0.4784406E-002  0.4439750E+03  0.7546771E-02  0.1029534E+00
         21   -1    0    0  502  501  0.00000000000E+00  0.00000000000E+00  0.72687427277E+03  0.72687427277E+03  0.00000000000E+00 0.  1.
         21   -1    0    0  501  502 -0.00000000000E+00 -0.00000000000E+00 -0.67795022267E+02  0.67795022267E+02  0.00000000000E+00 0.  1.
      99926    2    1    2    0    0  0.00000000000E+00  0.14210854715E-13  0.65907925051E+03  0.79466929504E+03  0.44397503312E+03 0.  0.
      99925    2    3    3    0    0  0.43781260916E+02  0.82358569325E+02  0.49455065822E+03  0.56791634902E+03  0.26315184436E+03 0.  0.
         25    1    4    4    0    0  0.38283391280E+02  0.68460683144E+02  0.20984233898E+03  0.25658097847E+03  0.12509000000E+03 0.  0.
         25    1    4    4    0    0  0.54978696360E+01  0.13897886181E+02  0.28470831924E+03  0.31133537055E+03  0.12509000000E+03 0.  0.
         25    1    3    3    0    0 -0.43781260916E+02 -0.82358569325E+02  0.16452859228E+03  0.22675294602E+03  0.12509000000E+03 0.  0.
<mgrwt>
<rscale>  2 0.44397503E+03</rscale>
<asrwt>0</asrwt>
<pdfrwt beam="1">  1       21 0.10689327E+00 0.44397503E+03</pdfrwt>
<pdfrwt beam="2">  1       21 0.99698566E-02 0.44397503E+03</pdfrwt>
<totfact> 0.52413902E+04</totfact>
</mgrwt>
</event>
<event>
 7    0  0.4784406E-002  0.4574947E+03  0.7546771E-02  0.1025510E+00
         21   -1    0    0  502  501  0.00000000000E+00  0.00000000000E+00  0.17303945649E+03  0.17303945649E+03  0.00000000000E+00 0.  1.
         21   -1    0    0  501  502 -0.00000000000E+00 -0.00000000000E+00 -0.30238969188E+03  0.30238969188E+03  0.00000000000E+00 0.  1.
      99926    2    1    2    0    0  0.00000000000E+00 -0.14210854715E-13 -0.12935023539E+03  0.47542914837E+03  0.45749469038E+03 0.  0.
      99925    2    3    3    0    0 -0.27059207739E+02 -0.11116480515E+03 -0.98302857238E+02  0.30308860637E+03  0.26288673786E+03 0.  0.
         25    1    3    3    0    0  0.27059207739E+02  0.11116480515E+03 -0.31047378154E+02  0.17234054200E+03  0.12509000000E+03 0.  0.
         25    1    4    4    0    0  0.12998707597E+02 -0.80214988996E+02 -0.31260615845E+02  0.15240782481E+03  0.12509000000E+03 0.  0.
         25    1    4    4    0    0 -0.40057915336E+02 -0.30949816156E+02 -0.67042241393E+02  0.15068078156E+03  0.12509000000E+03 0.  0.
<mgrwt>
<rscale>  2 0.45749469E+03</rscale>
<asrwt>0</asrwt>
<pdfrwt beam="1">  1       21 0.25446979E-01 0.45749469E+03</pdfrwt>
<pdfrwt beam="2">  1       21 0.44469072E-01 0.45749469E+03</pdfrwt>
<totfact> 0.65723626E+04</totfact>
</mgrwt>
</event>
<event>
 7    0  0.4784406E-002  0.4499896E+03  0.7546771E-02  0.1027725E+00
         21   -1    0    0  502  501  0.00000000000E+00  0.00000000000E+00  0.94225234730E+03  0.94225234730E+03  0.00000000000E+00 0.  1.
         21   -1    0    0  501  502 -0.00000000000E+00 -0.00000000000E+00 -0.53725165444E+02  0.53725165444E+02  0.00000000000E+00 0.  1.
      99926    2    1    2    0    0  0.35527136788E-14  0.00000000000E+00  0.88852718186E+03  0.99597751274E+03  0.44998961432E+03 0.  0.
      99925    2    3    3    0    0 -0.18851491239E+02 -0.68185580234E+02  0.74339745374E+03  0.79173550395E+03  0.26306022487E+03 0.  0.
         25    1    4    4    0    0  0.31319694321E+02 -0.33900296251E+02  0.36623226056E+03  0.38974829071E+03  0.12509000000E+03 0.  0.
         25    1    3    3    0    0  0.18851491239E+02  0.68185580234E+02  0.14512972812E+03  0.20424200879E+03  0.12509000000E+03 0.  0.
         25    1    4    4    0    0 -0.50171185560E+02 -0.34285283983E+02  0.37716519318E+03  0.40198721324E+03  0.12509000000E+03 0.  0.
<mgrwt>
<rscale>  2 0.44998961E+03</rscale>
<asrwt>0</asrwt>
<pdfrwt beam="1">  1       21 0.13856651E+00 0.44998961E+03</pdfrwt>
<pdfrwt beam="2">  1       21 0.79007602E-02 0.44998961E+03</pdfrwt>
<totfact> 0.40900851E+04</totfact>
</mgrwt>
</event>
<event>
 7    0  0.4784406E-002  0.4557302E+03  0.7546771E-02  0.1026027E+00
         21   -1    0    0  502  501  0.00000000000E+00  0.00000000000E+00  0.98298186666E+02  0.98298186666E+02  0.00000000000E+00 0. -1.
         21   -1    0    0  501  502 -0.00000000000E+00 -0.00000000000E+00 -0.52821435630E+03  0.52821435630E+03  0.00000000000E+00 0. -1.
      99926    2    1    2    0    0  0.00000000000E+00  0.35527136788E-14 -0.42991616963E+03  0.62651254296E+03  0.45573024212E+03 0.  0.
      99925    2    3    3    0    0 -0.93794890025E+02  0.18572741136E+02 -0.18524438479E+03  0.33555856291E+03  0.26294797763E+03 0.  0.
         25    1    3    3    0    0  0.93794890025E+02 -0.18572741136E+02 -0.24467178484E+03  0.29095398005E+03  0.12509000000E+03 0.  0.
         25    1    4    4    0    0 -0.59050667976E+02 -0.27985643131E+02 -0.10588609536E+03  0.17643568489E+03  0.12509000000E+03 0.  0.
         25    1    4    4    0    0 -0.34744222049E+02  0.46558384267E+02 -0.79358289422E+02  0.15912287803E+03  0.12509000000E+03 0.  0.
<mgrwt>
<rscale>  2 0.45573024E+03</rscale>
<asrwt>0</asrwt>
<pdfrwt beam="1">  1       21 0.14455615E-01 0.45573024E+03</pdfrwt>
<pdfrwt beam="2">  1       21 0.77678583E-01 0.45573024E+03</pdfrwt>
<totfact> 0.56747449E+04</totfact>
</mgrwt>
</event>
<event>
 7    0  0.4784406E-002  0.4625507E+03  0.7546771E-02  0.1024044E+00
         21   -1    0    0  502  501  0.00000000000E+00  0.00000000000E+00  0.59935646176E+02  0.59935646176E+02  0.00000000000E+00 0.  1.
         21   -1    0    0  501  502 -0.00000000000E+00 -0.00000000000E+00 -0.89242882068E+03  0.89242882068E+03  0.00000000000E+00 0.  1.
      99926    2    1    2    0    0  0.00000000000E+00  0.00000000000E+00 -0.83249317451E+03  0.95236446686E+03  0.46255074547E+03 0.  0.
      99925    2    3    3    0    0 -0.93684176794E+02  0.69866236246E+02 -0.46167741033E+03  0.54394084485E+03  0.26280714515E+03 0.  0.
         25    1    4    4    0    0 -0.28019154740E+02  0.65970311247E+02 -0.26606011344E+03  0.30260972731E+03  0.12509000000E+03 0.  0.
         25    1    4    4    0    0 -0.65665022054E+02  0.38959249997E+01 -0.19561729689E+03  0.24133111754E+03  0.12509000000E+03 0.  0.
         25    1    3    3    0    0  0.93684176794E+02 -0.69866236246E+02 -0.37081576418E+03  0.40842362201E+03  0.12509000000E+03 0.  0.
<mgrwt>
<rscale>  2 0.46255075E+03</rscale>
<asrwt>0</asrwt>
<pdfrwt beam="1">  1       21 0.88140653E-02 0.46255075E+03</pdfrwt>
<pdfrwt beam="2">  1       21 0.13123954E+00 0.46255075E+03</pdfrwt>
<totfact> 0.38708630E+04</totfact>
</mgrwt>
</event>
<event>
 7    0  0.4784406E-002  0.4552121E+03  0.7546771E-02  0.1026179E+00
         21   -1    0    0  502  501  0.00000000000E+00  0.00000000000E+00  0.21371587541E+03  0.21371587541E+03  0.00000000000E+00 0.  1.
         21   -1    0    0  501  502 -0.00000000000E+00 -0.00000000000E+00 -0.24239896631E+03  0.24239896631E+03  0.00000000000E+00 0.  1.
      99926    2    1    2    0    0 -0.71054273576E-14  0.00000000000E+00 -0.28683090893E+02  0.45611484172E+03  0.45521207050E+03 0.  0.
      99925    2    3    3    0    0 -0.56568073390E+02  0.57626286263E+01 -0.11632571806E+03  0.29313664375E+03  0.26299099683E+03 0.  0.
         25    1    3    3    0    0  0.56568073390E+02 -0.57626286263E+01  0.87642627168E+02  0.16297819797E+03  0.12509000000E+03 0.  0.
         25    1    4    4    0    0 -0.36305776175E+02  0.25393667074E+02 -0.23345322038E+02  0.13474219782E+03  0.12509000000E+03 0.  0.
         25    1    4    4    0    0 -0.20262297215E+02 -0.19631038447E+02 -0.92980396022E+02  0.15839444594E+03  0.12509000000E+03 0.  0.
<mgrwt>
<rscale>  2 0.45521207E+03</rscale>
<asrwt>0</asrwt>
<pdfrwt beam="1">  1       21 0.31428805E-01 0.45521207E+03</pdfrwt>
<pdfrwt beam="2">  1       21 0.35646907E-01 0.45521207E+03</pdfrwt>
<totfact> 0.68348509E+04</totfact>
</mgrwt>
</event>
<event>
 6    0  0.4784406E-002  0.4509073E+03  0.7546771E-02  0.1027452E+00
         21   -1    0    0  502  501  0.00000000000E+00  0.00000000000E+00  0.22450299621E+03  0.22450299621E+03  0.00000000000E+00 0.  1.
         21   -1    0    0  501  502 -0.00000000000E+00 -0.00000000000E+00 -0.22640828535E+03  0.22640828535E+03  0.00000000000E+00 0.  1.
      99926    2    1    2    0    0  0.00000000000E+00  0.35527136788E-14 -0.19052891385E+01  0.45091128156E+03  0.45090725622E+03 0.  0.
         25    1    3    3    0    0  0.73846903140E+02 -0.24203382536E+02  0.36753485219E+02  0.15178107789E+03  0.12509000000E+03 0.  0.
         25    1    3    3    0    0  0.18289452361E+02 -0.17850412682E+02 -0.51496684609E+02  0.13766828947E+03  0.12509000000E+03 0.  0.
         25    1    3    3    0    0 -0.92136355502E+02  0.42053795218E+02  0.12837910251E+02  0.16146191420E+03  0.12509000000E+03 0.  0.
<mgrwt>
<rscale>  2 0.45090726E+03</rscale>
<asrwt>0</asrwt>
<pdfrwt beam="1">  1       21 0.33015147E-01 0.45090726E+03</pdfrwt>
<pdfrwt beam="2">  1       21 0.33295336E-01 0.45090726E+03</pdfrwt>
<totfact> 0.71141320E+04</totfact>
</mgrwt>
</event>
<event>
 7    0  0.4784406E-002  0.4613528E+03  0.7546771E-02  0.1024390E+00
         21   -1    0    0  502  501  0.00000000000E+00  0.00000000000E+00  0.40447517664E+02  0.40447517664E+02  0.00000000000E+00 0.  1.
         21   -1    0    0  501  502 -0.00000000000E+00 -0.00000000000E+00 -0.13155714290E+04  0.13155714290E+04  0.00000000000E+00 0.  1.
      99926    2    1    2    0    0  0.00000000000E+00  0.00000000000E+00 -0.12751239113E+04  0.13560189466E+04  0.46135278741E+03 0.  0.
      99925    2    3    3    0    0  0.95365210834E+02 -0.69920490253E+02 -0.81018652121E+03  0.86023907289E+03  0.26386675614E+03 0.  0.
         25    1    4    4    0    0  0.41017382260E+02 -0.33246851977E+02 -0.52109800965E+03  0.53849644620E+03  0.12509000000E+03 0.  0.
         25    1    4    4    0    0  0.54347828573E+02 -0.36673638276E+02 -0.28908851156E+03  0.32174262669E+03  0.12509000000E+03 0.  0.
         25    1    3    3    0    0 -0.95365210834E+02  0.69920490253E+02 -0.46493739011E+03  0.49577987376E+03  0.12509000000E+03 0.  0.
<mgrwt>
<rscale>  2 0.46135279E+03</rscale>
<asrwt>0</asrwt>
<pdfrwt beam="1">  1       21 0.59481647E-02 0.46135279E+03</pdfrwt>
<pdfrwt beam="2">  1       21 0.19346638E+00 0.46135279E+03</pdfrwt>
<totfact> 0.26209630E+04</totfact>
</mgrwt>
</event>
<event>
 7    0  0.4784406E-002  0.4382855E+03  0.7546771E-02  0.1031274E+00
         21   -1    0    0  502  501  0.00000000000E+00  0.00000000000E+00  0.42743927141E+02  0.42743927141E+02  0.00000000000E+00 0.  1.
         21   -1    0    0  501  502 -0.00000000000E+00 -0.00000000000E+00 -0.11235173161E+04  0.11235173161E+04  0.00000000000E+00 0.  1.
      99926    2    1    2    0    0 -0.14210854715E-13  0.00000000000E+00 -0.10807733890E+04  0.11662612432E+04  0.43828548824E+03 0.  0.
      99925    2    3    3    0    0  0.88177629723E+02 -0.13848572011E+02 -0.79211450632E+03  0.83924666259E+03  0.26253093574E+03 0.  0.
         25    1    3    3    0    0 -0.88177629723E+02  0.13848572011E+02 -0.28865888264E+03  0.32701458065E+03  0.12509000000E+03 0.  0.
         25    1    4    4    0    0  0.95345517172E+01 -0.27261683380E+02 -0.39377347956E+03  0.41417287256E+03  0.12509000000E+03 0.  0.
         25    1    4    4    0    0  0.78643078006E+02  0.13413111368E+02 -0.39834102676E+03  0.42507379003E+03  0.12509000000E+03 0.  0.
<mgrwt>
<rscale>  2 0.43828549E+03</rscale>
<asrwt>0</asrwt>
<pdfrwt beam="1">  1       21 0.62858707E-02 0.43828549E+03</pdfrwt>
<pdfrwt beam="2">  1       21 0.16522316E+00 0.43828549E+03</pdfrwt>
<totfact> 0.37951319E+04</totfact>
</mgrwt>
</event>
<event>
 7    0  0.4784406E-002  0.4584579E+03  0.7546771E-02  0.1025229E+00
         21   -1    0    0  502  501  0.00000000000E+00  0.00000000000E+00  0.11033791099E+03  0.11033791099E+03  0.00000000000E+00 0. -1.
         21   -1    0    0  501  502 -0.00000000000E+00 -0.00000000000E+00 -0.47622718619E+03  0.47622718619E+03  0.00000000000E+00 0. -1.
      99926    2    1    2    0    0  0.00000000000E+00  0.00000000000E+00 -0.36588927520E+03  0.58656509718E+03  0.45845790594E+03 0.  0.
      99925    2    3    3    0    0 -0.28436200741E+02  0.73874983582E+02 -0.33873953139E+03  0.43606344469E+03  0.26294624347E+03 0.  0.
         25    1    3    3    0    0  0.28436200741E+02 -0.73874983582E+02 -0.27149743807E+02  0.15050165248E+03  0.12509000000E+03 0.  0.
         25    1    4    4    0    0  0.64797762378E+01  0.55464292845E+01 -0.18541589882E+03  0.22382876047E+03  0.12509000000E+03 0.  0.
         25    1    4    4    0    0 -0.34915976979E+02  0.68328554298E+02 -0.15332363258E+03  0.21223468423E+03  0.12509000000E+03 0.  0.
<mgrwt>
<rscale>  2 0.45845791E+03</rscale>
<asrwt>0</asrwt>
<pdfrwt beam="1">  1       21 0.16226164E-01 0.45845791E+03</pdfrwt>
<pdfrwt beam="2">  1       21 0.70033409E-01 0.45845791E+03</pdfrwt>
<totfact> 0.57913695E+04</totfact>
</mgrwt>
</event>
<event>
 7    0  0.4784406E-002  0.4586347E+03  0.7546771E-02  0.1025178E+00
         21   -1    0    0  502  501  0.00000000000E+00  0.00000000000E+00  0.51047951756E+03  0.51047951756E+03  0.00000000000E+00 0. -1.
         21   -1    0    0  501  502 -0.00000000000E+00 -0.00000000000E+00 -0.10301380812E+03  0.10301380812E+03  0.00000000000E+00 0. -1.
      99926    2    1    2    0    0 -0.14210854715E-13  0.00000000000E+00  0.40746570944E+03  0.61349332567E+03  0.45863466537E+03 0.  0.
      99925    2    3    3    0    0 -0.10235247696E+03 -0.16615354628E+02  0.18429755326E+03  0.33744326938E+03  0.26296439371E+03 0.  0.
         25    1    3    3    0    0  0.10235247696E+03  0.16615354628E+02  0.22316815618E+03  0.27605005630E+03  0.12509000000E+03 0.  0.
         25    1    4    4    0    0 -0.13986636569E+02  0.12837062888E+02  0.76442916569E+02  0.14782233857E+03  0.12509000000E+03 0.  0.
         25    1    4    4    0    0 -0.88365840390E+02 -0.29452417517E+02  0.10785463669E+03  0.18962093081E+03  0.12509000000E+03 0.  0.
<mgrwt>
<rscale>  2 0.45863467E+03</rscale>
<asrwt>0</asrwt>
<pdfrwt beam="1">  1       21 0.75070516E-01 0.45863467E+03</pdfrwt>
<pdfrwt beam="2">  1       21 0.15149090E-01 0.45863467E+03</pdfrwt>
<totfact> 0.56223799E+04</totfact>
</mgrwt>
</event>
<event>
 7    0  0.4784406E-002  0.4534223E+03  0.7546771E-02  0.1026706E+00
         21   -1    0    0  502  501  0.00000000000E+00  0.00000000000E+00  0.33139729700E+03  0.33139729700E+03  0.00000000000E+00 0. -1.
         21   -1    0    0  501  502 -0.00000000000E+00 -0.00000000000E+00 -0.15509462441E+03  0.15509462441E+03  0.00000000000E+00 0. -1.
      99926    2    1    2    0    0  0.00000000000E+00  0.17763568394E-14  0.17630267260E+03  0.48649192141E+03  0.45342227254E+03 0.  0.
      99925    2    3    3    0    0  0.54903085340E+02 -0.67141120632E+01  0.69473663732E+01  0.26880371336E+03  0.26295958308E+03 0.  0.
         25    1    4    4    0    0  0.32718839791E+02  0.36788625047E+02  0.35883131557E+01  0.13447791455E+03  0.12509000000E+03 0.  0.
         25    1    3    3    0    0 -0.54903085340E+02  0.67141120632E+01  0.16935530622E+03  0.21768820806E+03  0.12509000000E+03 0.  0.
         25    1    4    4    0    0  0.22184245549E+02 -0.43502737110E+02  0.33590532175E+01  0.13432579881E+03  0.12509000000E+03 0.  0.
<mgrwt>
<rscale>  2 0.45342227E+03</rscale>
<asrwt>0</asrwt>
<pdfrwt beam="1">  1       21 0.48734897E-01 0.45342227E+03</pdfrwt>
<pdfrwt beam="2">  1       21 0.22808033E-01 0.45342227E+03</pdfrwt>
<totfact> 0.67066564E+04</totfact>
</mgrwt>
</event>
<event>
 7    0  0.4784406E-002  0.4575105E+03  0.7546771E-02  0.1025506E+00
         21   -1    0    0  502  501  0.00000000000E+00  0.00000000000E+00  0.79951456749E+02  0.79951456749E+02  0.00000000000E+00 0. -1.
         21   -1    0    0  501  502 -0.00000000000E+00 -0.00000000000E+00 -0.65450906985E+03  0.65450906985E+03  0.00000000000E+00 0. -1.
      99926    2    1    2    0    0 -0.14210854715E-13  0.71054273576E-14 -0.57455761310E+03  0.73446052660E+03  0.45751045273E+03 0.  0.
      99925    2    3    3    0    0 -0.10908192478E+03  0.34431294220E+02 -0.34027093991E+03  0.44528560778E+03  0.26345887652E+03 0.  0.
         25    1    4    4    0    0 -0.36665262952E+02 -0.20612913136E+02 -0.17082932292E+03  0.21586894025E+03  0.12509000000E+03 0.  0.
         25    1    3    3    0    0  0.10908192478E+03 -0.34431294220E+02 -0.23428667319E+03  0.28917491882E+03  0.12509000000E+03 0.  0.
         25    1    4    4    0    0 -0.72416661832E+02  0.55044207355E+02 -0.16944161699E+03  0.22941666754E+03  0.12509000000E+03 0.  0.
<mgrwt>
<rscale>  2 0.45751045E+03</rscale>
<asrwt>0</asrwt>
<pdfrwt beam="1">  1       21 0.11757567E-01 0.45751045E+03</pdfrwt>
<pdfrwt beam="2">  1       21 0.96251334E-01 0.45751045E+03</pdfrwt>
<totfact> 0.50075830E+04</totfact>
</mgrwt>
</event>
<event>
 7    0  0.4784406E-002  0.4549839E+03  0.7546771E-02  0.1026246E+00
         21   -1    0    0  502  501  0.00000000000E+00  0.00000000000E+00  0.14248310070E+03  0.14248310070E+03  0.00000000000E+00 0.  1.
         21   -1    0    0  501  502 -0.00000000000E+00 -0.00000000000E+00 -0.36321918476E+03  0.36321918476E+03  0.00000000000E+00 0.  1.
      99926    2    1    2    0    0 -0.71054273576E-14 -0.14210854715E-13 -0.22073608406E+03  0.50570228546E+03  0.45498393677E+03 0.  0.
      99925    2    3    3    0    0 -0.41964811366E+02  0.10105392793E+03 -0.10563207258E+03  0.30354051039E+03  0.26268948389E+03 0.  0.
         25    1    4    4    0    0 -0.52110880179E+02  0.24945517358E+02 -0.52062716009E+02  0.14729513627E+03  0.12509000000E+03 0.  0.
         25    1    4    4    0    0  0.10146068813E+02  0.76108410568E+02 -0.53569356574E+02  0.15624537412E+03  0.12509000000E+03 0.  0.
         25    1    3    3    0    0  0.41964811366E+02 -0.10105392793E+03 -0.11510401147E+03  0.20216177507E+03  0.12509000000E+03 0.  0.
<mgrwt>
<rscale>  2 0.45498394E+03</rscale>
<asrwt>0</asrwt>
<pdfrwt beam="1">  1       21 0.20953397E-01 0.45498394E+03</pdfrwt>
<pdfrwt beam="2">  1       21 0.53414586E-01 0.45498394E+03</pdfrwt>
<totfact> 0.64880159E+04</totfact>
</mgrwt>
</event>
<event>
 7    0  0.4784406E-002  0.4538828E+03  0.7546771E-02  0.1026570E+00
         21   -1    0    0  502  501  0.00000000000E+00  0.00000000000E+00  0.13513123991E+03  0.13513123991E+03  0.00000000000E+00 0.  1.
         21   -1    0    0  501  502 -0.00000000000E+00 -0.00000000000E+00 -0.38112877804E+03  0.38112877804E+03  0.00000000000E+00 0.  1.
      99926    2    1    2    0    0  0.00000000000E+00  0.00000000000E+00 -0.24599753813E+03  0.51626001794E+03  0.45388282338E+03 0.  0.
      99925    2    3    3    0    0  0.38857607396E+02  0.10007913166E+03 -0.11817573505E+03  0.30766551252E+03  0.26299584977E+03 0.  0.
         25    1    4    4    0    0  0.39842427349E+02  0.36870771708E+02 -0.93540065301E+02  0.16536059004E+03  0.12509000000E+03 0.  0.
         25    1    4    4    0    0 -0.98481995268E+00  0.63208359953E+02 -0.24635669746E+02  0.14230492248E+03  0.12509000000E+03 0.  0.
         25    1    3    3    0    0 -0.38857607396E+02 -0.10007913166E+03 -0.12782180308E+03  0.20859450542E+03  0.12509000000E+03 0.  0.
<mgrwt>
<rscale>  2 0.45388282E+03</rscale>
<asrwt>0</asrwt>
<pdfrwt beam="1">  1       21 0.19872242E-01 0.45388282E+03</pdfrwt>
<pdfrwt beam="2">  1       21 0.56048348E-01 0.45388282E+03</pdfrwt>
<totfact> 0.64714549E+04</totfact>
</mgrwt>
</event>
<event>
 7    0  0.4784406E-002  0.4542026E+03  0.7546771E-02  0.1026476E+00
         21   -1    0    0  502  501  0.00000000000E+00  0.00000000000E+00  0.13030661369E+03  0.13030661369E+03  0.00000000000E+00 0. -1.
         21   -1    0    0  501  502 -0.00000000000E+00 -0.00000000000E+00 -0.39579721623E+03  0.39579721623E+03  0.00000000000E+00 0. -1.
      99926    2    1    2    0    0  0.00000000000E+00  0.00000000000E+00 -0.26549060254E+03  0.52610382992E+03  0.45420257575E+03 0.  0.
      99925    2    3    3    0    0  0.68514284515E+02 -0.71307930222E+02 -0.10522786283E+03  0.30002711300E+03  0.26299113544E+03 0.  0.
         25    1    3    3    0    0 -0.68514284515E+02  0.71307930222E+02 -0.16026273971E+03  0.22607671692E+03  0.12509000000E+03 0.  0.
         25    1    4    4    0    0  0.24693922545E+02 -0.72516789776E+02 -0.38612808194E+02  0.15168036019E+03  0.12509000000E+03 0.  0.
         25    1    4    4    0    0  0.43820361970E+02  0.12088595536E+01 -0.66615054638E+02  0.14834675281E+03  0.12509000000E+03 0.  0.
<mgrwt>
<rscale>  2 0.45420258E+03</rscale>
<asrwt>0</asrwt>
<pdfrwt beam="1">  1       21 0.19162737E-01 0.45420258E+03</pdfrwt>
<pdfrwt beam="2">  1       21 0.58205473E-01 0.45420258E+03</pdfrwt>
<totfact> 0.63873848E+04</totfact>
</mgrwt>
</event>
<event>
 7    0  0.4784406E-002  0.4585524E+03  0.7546771E-02  0.1025202E+00
         21   -1    0    0  502  501  0.00000000000E+00  0.00000000000E+00  0.11187145779E+03  0.11187145779E+03  0.00000000000E+00 0.  1.
         21   -1    0    0  501  502 -0.00000000000E+00 -0.00000000000E+00 -0.46989255555E+03  0.46989255555E+03  0.00000000000E+00 0.  1.
      99926    2    1    2    0    0 -0.35527136788E-14  0.00000000000E+00 -0.35802109775E+03  0.58176401334E+03  0.45855235337E+03 0.  0.
      99925    2    3    3    0    0  0.22464898343E+02  0.10488766802E+03 -0.16725347829E+03  0.32968091732E+03  0.26307733975E+03 0.  0.
         25    1    3    3    0    0 -0.22464898343E+02 -0.10488766802E+03 -0.19076761947E+03  0.25208309602E+03  0.12509000000E+03 0.  0.
         25    1    4    4    0    0 -0.25577202416E+02  0.32427160579E+02 -0.80258451572E+02  0.15425511718E+03  0.12509000000E+03 0.  0.
         25    1    4    4    0    0  0.48042100759E+02  0.72460507441E+02 -0.86995026716E+02  0.17542580015E+03  0.12509000000E+03 0.  0.
<mgrwt>
<rscale>  2 0.45855235E+03</rscale>
<asrwt>0</asrwt>
<pdfrwt beam="1">  1       21 0.16451685E-01 0.45855235E+03</pdfrwt>
<pdfrwt beam="2">  1       21 0.69101847E-01 0.45855235E+03</pdfrwt>
<totfact> 0.58164306E+04</totfact>
</mgrwt>
</event>
<event>
 7    0  0.4784406E-002  0.4515418E+03  0.7546771E-02  0.1027263E+00
         21   -1    0    0  502  501  0.00000000000E+00  0.00000000000E+00  0.21116142054E+03  0.21116142054E+03  0.00000000000E+00 0. -1.
         21   -1    0    0  501  502 -0.00000000000E+00 -0.00000000000E+00 -0.24139110921E+03  0.24139110921E+03  0.00000000000E+00 0. -1.
      99926    2    1    2    0    0  0.00000000000E+00  0.14210854715E-13 -0.30229688675E+02  0.45255252975E+03  0.45154175677E+03 0.  0.
      99925    2    3    3    0    0  0.30991659265E+02  0.70011623010E+02  0.59816319751E+02  0.28045400554E+03  0.26308619655E+03 0.  0.
         25    1    4    4    0    0  0.20342745700E+02 -0.43102669543E+01  0.14215834991E+02  0.12760095520E+03  0.12509000000E+03 0.  0.
         25    1    4    4    0    0  0.10648913565E+02  0.74321889964E+02  0.45600484759E+02  0.15285305034E+03  0.12509000000E+03 0.  0.
         25    1    3    3    0    0 -0.30991659265E+02 -0.70011623010E+02 -0.90046008425E+02  0.17209852421E+03  0.12509000000E+03 0.  0.
<mgrwt>
<rscale>  2 0.45154176E+03</rscale>
<asrwt>0</asrwt>
<pdfrwt beam="1">  1       21 0.31053150E-01 0.45154176E+03</pdfrwt>
<pdfrwt beam="2">  1       21 0.35498692E-01 0.45154176E+03</pdfrwt>
<totfact> 0.70655020E+04</totfact>
</mgrwt>
</event>
<event>
 7    0  0.4784406E-002  0.4503752E+03  0.7546771E-02  0.1027610E+00
         21   -1    0    0  502  501  0.00000000000E+00  0.00000000000E+00  0.26035443370E+03  0.26035443370E+03  0.00000000000E+00 0.  1.
         21   -1    0    0  501  502 -0.00000000000E+00 -0.00000000000E+00 -0.19477088487E+03  0.19477088487E+03  0.00000000000E+00 0.  1.
      99926    2    1    2    0    0  0.00000000000E+00  0.00000000000E+00  0.65583548826E+02  0.45512531857E+03  0.45037523659E+03 0.  0.
      99925    2    3    3    0    0  0.36785239690E+02 -0.95839365165E+02  0.47557898439E+01  0.28225003943E+03  0.26287664303E+03 0.  0.
         25    1    4    4    0    0 -0.83762650764E+01 -0.54385486214E+02 -0.27174649010E+02  0.13933381706E+03  0.12509000000E+03 0.  0.
         25    1    4    4    0    0  0.45161504767E+02 -0.41453878951E+02  0.31930438854E+02  0.14291622238E+03  0.12509000000E+03 0.  0.
         25    1    3    3    0    0 -0.36785239690E+02  0.95839365165E+02  0.60827758983E+02  0.17287527914E+03  0.12509000000E+03 0.  0.
<mgrwt>
<rscale>  2 0.45037524E+03</rscale>
<asrwt>0</asrwt>
<pdfrwt beam="1">  1       21 0.38287417E-01 0.45037524E+03</pdfrwt>
<pdfrwt beam="2">  1       21 0.28642777E-01 0.45037524E+03</pdfrwt>
<totfact> 0.71124467E+04</totfact>
</mgrwt>
</event>
<event>
 7    0  0.4784406E-002  0.4468288E+03  0.7546771E-02  0.1028672E+00
         21   -1    0    0  502  501  0.00000000000E+00  0.00000000000E+00  0.17276921927E+04  0.17276921927E+04  0.00000000000E+00 0.  1.
         21   -1    0    0  501  502 -0.00000000000E+00 -0.00000000000E+00 -0.28890557349E+02  0.28890557349E+02  0.00000000000E+00 0.  1.
      99926    2    1    2    0    0  0.39968028887E-14  0.00000000000E+00  0.16988016354E+04  0.17565827501E+04  0.44682878321E+03 0.  0.
      99925    2    3    3    0    0 -0.20213716659E+01  0.16900049761E+02  0.14853666032E+04  0.15086075120E+04  0.26323560137E+03 0.  0.
         25    1    4    4    0    0 -0.41264290858E+02  0.36329329713E+01  0.71023945164E+03  0.72235969341E+03  0.12509000000E+03 0.  0.
         25    1    4    4    0    0  0.39242919192E+02  0.13267116789E+02  0.77512715153E+03  0.78624781858E+03  0.12509000000E+03 0.  0.
         25    1    3    3    0    0  0.20213716659E+01 -0.16900049761E+02  0.21343503222E+03  0.24797523808E+03  0.12509000000E+03 0.  0.
<mgrwt>
<rscale>  2 0.44682878E+03</rscale>
<asrwt>0</asrwt>
<pdfrwt beam="1">  1       21 0.25407231E+00 0.44682878E+03</pdfrwt>
<pdfrwt beam="2">  1       21 0.42486126E-02 0.44682878E+03</pdfrwt>
<totfact> 0.19304755E+04</totfact>
</mgrwt>
</event>
<event>
 7    0  0.4784406E-002  0.4486989E+03  0.7546771E-02  0.1028111E+00
         21   -1    0    0  502  501  0.00000000000E+00  0.00000000000E+00  0.18674314407E+03  0.18674314407E+03  0.00000000000E+00 0. -1.
         21   -1    0    0  501  502 -0.00000000000E+00 -0.00000000000E+00 -0.26952886129E+03  0.26952886129E+03  0.00000000000E+00 0. -1.
      99926    2    1    2    0    0  0.71054273576E-14  0.00000000000E+00 -0.82785717217E+02  0.45627200536E+03  0.44869886105E+03 0.  0.
      99925    2    3    3    0    0 -0.57455212011E+02  0.82096529842E+02 -0.91422380047E+02  0.29576330889E+03  0.26282492597E+03 0.  0.
         25    1    4    4    0    0  0.83129481127E+01  0.27409501705E+02 -0.56718024731E+02  0.14030263119E+03  0.12509000000E+03 0.  0.
         25    1    3    3    0    0  0.57455212011E+02 -0.82096529842E+02  0.86366628293E+01  0.16050869647E+03  0.12509000000E+03 0.  0.
         25    1    4    4    0    0 -0.65768160124E+02  0.54687028136E+02 -0.34704355316E+02  0.15546067770E+03  0.12509000000E+03 0.  0.
<mgrwt>
<rscale>  2 0.44869886E+03</rscale>
<asrwt>0</asrwt>
<pdfrwt beam="1">  1       21 0.27462227E-01 0.44869886E+03</pdfrwt>
<pdfrwt beam="2">  1       21 0.39636597E-01 0.44869886E+03</pdfrwt>
<totfact> 0.72002569E+04</totfact>
</mgrwt>
</event>
<event>
 7    0  0.4784406E-002  0.4551286E+03  0.7546771E-02  0.1026204E+00
         21   -1    0    0  502  501  0.00000000000E+00  0.00000000000E+00  0.90419035611E+02  0.90419035611E+02  0.00000000000E+00 0. -1.
         21   -1    0    0  501  502 -0.00000000000E+00 -0.00000000000E+00 -0.57272802892E+03  0.57272802892E+03  0.00000000000E+00 0. -1.
      99926    2    1    2    0    0  0.00000000000E+00 -0.14210854715E-13 -0.48230899331E+03  0.66314706453E+03  0.45512862376E+03 0.  0.
      99925    2    3    3    0    0 -0.27023529474E+02  0.94506782599E+02 -0.38561193263E+03  0.47697608735E+03  0.26295973496E+03 0.  0.
         25    1    3    3    0    0  0.27023529474E+02 -0.94506782599E+02 -0.96697060677E+02  0.18617097718E+03  0.12509000000E+03 0.  0.
         25    1    4    4    0    0 -0.19768083707E+02  0.41320688924E+02 -0.25814861811E+03  0.29049336240E+03  0.12509000000E+03 0.  0.
         25    1    4    4    0    0 -0.72554457674E+01  0.53186093675E+02 -0.12746331452E+03  0.18648272494E+03  0.12509000000E+03 0.  0.
<mgrwt>
<rscale>  2 0.45512862E+03</rscale>
<asrwt>0</asrwt>
<pdfrwt beam="1">  1       21 0.13296917E-01 0.45512862E+03</pdfrwt>
<pdfrwt beam="2">  1       21 0.84224709E-01 0.45512862E+03</pdfrwt>
<totfact> 0.54893919E+04</totfact>
</mgrwt>
</event>
<event>
 7    0  0.4784406E-002  0.4896512E+03  0.7546771E-02  0.1016516E+00
         21   -1    0    0  502  501  0.00000000000E+00  0.00000000000E+00  0.12191009482E+03  0.12191009482E+03  0.00000000000E+00 0.  1.
         21   -1    0    0  501  502 -0.00000000000E+00 -0.00000000000E+00 -0.49167028250E+03  0.49167028250E+03  0.00000000000E+00 0.  1.
      99926    2    1    2    0    0  0.00000000000E+00  0.35527136788E-14 -0.36976018768E+03  0.61358037733E+03  0.48965118508E+03 0.  0.
      99925    2    3    3    0    0  0.13847150773E+03  0.23493865453E+02 -0.19072281753E+03  0.35391095638E+03  0.26296663620E+03 0.  0.
         25    1    3    3    0    0 -0.13847150773E+03 -0.23493865453E+02 -0.17903737014E+03  0.25966942095E+03  0.12509000000E+03 0.  0.
         25    1    4    4    0    0  0.43902109945E+02 -0.20242914641E+02 -0.10211922487E+03  0.16856160606E+03  0.12509000000E+03 0.  0.
         25    1    4    4    0    0  0.94569397782E+02  0.43736780094E+02 -0.88603592663E+02  0.18534935032E+03  0.12509000000E+03 0.  0.
<mgrwt>
<rscale>  2 0.48965119E+03</rscale>
<asrwt>0</asrwt>
<pdfrwt beam="1">  1       21 0.17927955E-01 0.48965119E+03</pdfrwt>
<pdfrwt beam="2">  1       21 0.72304453E-01 0.48965119E+03</pdfrwt>
<totfact> 0.44392005E+04</totfact>
</mgrwt>
</event>
<event>
 7    0  0.4784406E-002  0.4580274E+03  0.7546771E-02  0.1025355E+00
         21   -1    0    0  502  501  0.00000000000E+00  0.00000000000E+00  0.29667430296E+03  0.29667430296E+03  0.00000000000E+00 0.  1.
         21   -1    0    0  501  502 -0.00000000000E+00 -0.00000000000E+00 -0.17678404035E+03  0.17678404035E+03  0.00000000000E+00 0.  1.
      99926    2    1    2    0    0  0.00000000000E+00  0.00000000000E+00  0.11989026260E+03  0.47345834331E+03  0.45802743126E+03 0.  0.
      99925    2    3    3    0    0 -0.52822040901E+02  0.59749152612E+02  0.16235100232E+03  0.31915166244E+03  0.26294449309E+03 0.  0.
         25    1    4    4    0    0 -0.84031532706E+01  0.55866732012E+02  0.11190800806E+03  0.17709493244E+03  0.12509000000E+03 0.  0.
         25    1    3    3    0    0  0.52822040901E+02 -0.59749152612E+02 -0.42460739715E+02  0.15430668087E+03  0.12509000000E+03 0.  0.
         25    1    4    4    0    0 -0.44418887631E+02  0.38824206002E+01  0.50442994263E+02  0.14205673000E+03  0.12509000000E+03 0.  0.
<mgrwt>
<rscale>  2 0.45802743E+03</rscale>
<asrwt>0</asrwt>
<pdfrwt beam="1">  1       21 0.43628574E-01 0.45802743E+03</pdfrwt>
<pdfrwt beam="2">  1       21 0.25997653E-01 0.45802743E+03</pdfrwt>
<totfact> 0.65589827E+04</totfact>
</mgrwt>
</event>
<event>
 7    0  0.4784406E-002  0.4586984E+03  0.7546771E-02  0.1025159E+00
         21   -1    0    0  502  501  0.00000000000E+00  0.00000000000E+00  0.30463376427E+03  0.30463376427E+03  0.00000000000E+00 0.  1.
         21   -1    0    0  501  502 -0.00000000000E+00 -0.00000000000E+00 -0.17266983750E+03  0.17266983750E+03  0.00000000000E+00 0.  1.
      99926    2    1    2    0    0  0.00000000000E+00  0.00000000000E+00  0.13196392676E+03  0.47730360177E+03  0.45869843067E+03 0.  0.
      99925    2    3    3    0    0 -0.83215654033E+02 -0.97412398010E+01  0.16703277518E+03  0.32271683306E+03  0.26310923497E+03 0.  0.
         25    1    3    3    0    0  0.83215654033E+02  0.97412398010E+01 -0.35068848423E+02  0.15458676871E+03  0.12509000000E+03 0.  0.
         25    1    4    4    0    0 -0.45591201894E+01 -0.24488614863E+02  0.73248078301E+02  0.14708251735E+03  0.12509000000E+03 0.  0.
         25    1    4    4    0    0 -0.78656533844E+02  0.14747375062E+02  0.93784696884E+02  0.17563431572E+03  0.12509000000E+03 0.  0.
<mgrwt>
<rscale>  2 0.45869843E+03</rscale>
<asrwt>0</asrwt>
<pdfrwt beam="1">  1       21 0.44799083E-01 0.45869843E+03</pdfrwt>
<pdfrwt beam="2">  1       21 0.25392623E-01 0.45869843E+03</pdfrwt>
<totfact> 0.64969016E+04</totfact>
</mgrwt>
</event>
<event>
 7    0  0.4784406E-002  0.4571430E+03  0.7546771E-02  0.1025613E+00
         21   -1    0    0  502  501  0.00000000000E+00  0.00000000000E+00  0.25299331425E+03  0.25299331425E+03  0.00000000000E+00 0. -1.
         21   -1    0    0  501  502 -0.00000000000E+00 -0.00000000000E+00 -0.20650711556E+03  0.20650711556E+03  0.00000000000E+00 0. -1.
      99926    2    1    2    0    0  0.35527136788E-14  0.00000000000E+00  0.46486198699E+02  0.45950042981E+03  0.45714295174E+03 0.  0.
      99925    2    3    3    0    0 -0.16012689112E+02  0.11354065413E+03  0.20566556868E+02  0.28784023557E+03  0.26321309162E+03 0.  0.
         25    1    4    4    0    0 -0.43715037132E+02  0.39277949769E+02  0.20725871464E+02  0.13975275188E+03  0.12509000000E+03 0.  0.
         25    1    3    3    0    0  0.16012689112E+02 -0.11354065413E+03  0.25919641831E+02  0.17166019424E+03  0.12509000000E+03 0.  0.
         25    1    4    4    0    0  0.27702348020E+02  0.74262704364E+02 -0.15931459580E+00  0.14808748369E+03  0.12509000000E+03 0.  0.
<mgrwt>
<rscale>  2 0.45714295E+03</rscale>
<asrwt>0</asrwt>
<pdfrwt beam="1">  1       21 0.37204899E-01 0.45714295E+03</pdfrwt>
<pdfrwt beam="2">  1       21 0.30368693E-01 0.45714295E+03</pdfrwt>
<totfact> 0.67063348E+04</totfact>
</mgrwt>
</event>
<event>
 7    0  0.4784406E-002  0.4538562E+03  0.7546771E-02  0.1026578E+00
         21   -1    0    0  502  501  0.00000000000E+00  0.00000000000E+00  0.30855146022E+02  0.30855146022E+02  0.00000000000E+00 0. -1.
         21   -1    0    0  501  502 -0.00000000000E+00 -0.00000000000E+00 -0.16689719081E+04  0.16689719081E+04  0.00000000000E+00 0. -1.
      99926    2    1    2    0    0  0.00000000000E+00  0.00000000000E+00 -0.16381167620E+04  0.16998270541E+04  0.45385624125E+03 0.  0.
      99925    2    3    3    0    0  0.19848685513E+02  0.10998099128E+03 -0.10017030874E+04  0.10416783915E+04  0.26304943859E+03 0.  0.
         25    1    4    4    0    0 -0.23750731335E+02  0.78576550691E+02 -0.53363155038E+03  0.55420980794E+03  0.12509000000E+03 0.  0.
         25    1    4    4    0    0  0.43599416848E+02  0.31404440590E+02 -0.46807153703E+03  0.48746858352E+03  0.12509000000E+03 0.  0.
         25    1    3    3    0    0 -0.19848685513E+02 -0.10998099128E+03 -0.63641367462E+03  0.65814866262E+03  0.12509000000E+03 0.  0.
<mgrwt>
<rscale>  2 0.45385624E+03</rscale>
<asrwt>0</asrwt>
<pdfrwt beam="1">  1       21 0.45375211E-02 0.45385624E+03</pdfrwt>
<pdfrwt beam="2">  1       21 0.24543706E+00 0.45385624E+03</pdfrwt>
<totfact> 0.19437276E+04</totfact>
</mgrwt>
</event>
<event>
 7    0  0.4784406E-002  0.4576311E+03  0.7546771E-02  0.1025471E+00
         21   -1    0    0  502  501  0.00000000000E+00  0.00000000000E+00  0.56924971785E+02  0.56924971785E+02  0.00000000000E+00 0.  1.
         21   -1    0    0  501  502 -0.00000000000E+00 -0.00000000000E+00 -0.91974654438E+03  0.91974654438E+03  0.00000000000E+00 0.  1.
      99926    2    1    2    0    0  0.17763568394E-14 -0.14210854715E-13 -0.86282157260E+03  0.97667151617E+03  0.45763105703E+03 0.  0.
      99925    2    3    3    0    0 -0.10157520733E+02 -0.75088104637E+02 -0.72814861297E+03  0.77786076988E+03  0.26291743202E+03 0.  0.
         25    1    3    3    0    0  0.10157520733E+02  0.75088104637E+02 -0.13467295963E+03  0.19881074629E+03  0.12509000000E+03 0.  0.
         25    1    4    4    0    0 -0.10118486043E+02  0.29713681260E+01 -0.30854610599E+03  0.33310571957E+03  0.12509000000E+03 0.  0.
         25    1    4    4    0    0 -0.39034689929E-01 -0.78059472763E+02 -0.41960250698E+03  0.44475505031E+03  0.12509000000E+03 0.  0.
<mgrwt>
<rscale>  2 0.45763106E+03</rscale>
<asrwt>0</asrwt>
<pdfrwt beam="1">  1       21 0.83713198E-02 0.45763106E+03</pdfrwt>
<pdfrwt beam="2">  1       21 0.13525684E+00 0.45763106E+03</pdfrwt>
<totfact> 0.39265350E+04</totfact>
</mgrwt>
</event>
<event>
 7    0  0.4784406E-002  0.4599153E+03  0.7546771E-02  0.1024806E+00
         21   -1    0    0  502  501  0.00000000000E+00  0.00000000000E+00  0.26243656388E+03  0.26243656388E+03  0.00000000000E+00 0. -1.
         21   -1    0    0  501  502 -0.00000000000E+00 -0.00000000000E+00 -0.20149828001E+03  0.20149828001E+03  0.00000000000E+00 0. -1.
      99926    2    1    2    0    0  0.26645352591E-14  0.35527136788E-14  0.60938283878E+02  0.46393484389E+03  0.45991528017E+03 0.  0.
      99925    2    3    3    0    0 -0.60916449662E+01 -0.28858547326E+02  0.15313351257E+03  0.30576597153E+03  0.26300766677E+03 0.  0.
         25    1    4    4    0    0 -0.37660643165E+02 -0.28356584175E+02  0.96498182733E+02  0.16486912167E+03  0.12509000000E+03 0.  0.
         25    1    4    4    0    0  0.31568998198E+02 -0.50196315092E+00  0.56635329832E+02  0.14089684986E+03  0.12509000000E+03 0.  0.
         25    1    3    3    0    0  0.60916449662E+01  0.28858547326E+02 -0.92195228687E+02  0.15816887236E+03  0.12509000000E+03 0.  0.
<mgrwt>
<rscale>  2 0.45991528E+03</rscale>
<asrwt>0</asrwt>
<pdfrwt beam="1">  1       21 0.38593612E-01 0.45991528E+03</pdfrwt>
<pdfrwt beam="2">  1       21 0.29632100E-01 0.45991528E+03</pdfrwt>
<totfact> 0.65297400E+04</totfact>
</mgrwt>
</event>
<event>
 7    0  0.4784406E-002  0.4574891E+03  0.7546771E-02  0.1025512E+00
         21   -1    0    0  502  501  0.00000000000E+00  0.00000000000E+00  0.79690699878E+03  0.79690699878E+03  0.00000000000E+00 0.  1.
         21   -1    0    0  501  502 -0.00000000000E+00 -0.00000000000E+00 -0.65658951966E+02  0.65658951966E+02  0.00000000000E+00 0.  1.
      99926    2    1    2    0    0  0.00000000000E+00 -0.17763568394E-14  0.73124804681E+03  0.86256595075E+03  0.45748914022E+03 0.  0.
      99925    2    3    3    0    0  0.26314269877E+02  0.15208485068E+02  0.66917362126E+03  0.71965170644E+03  0.26302377151E+03 0.  0.
         25    1    4    4    0    0  0.35303855988E+02  0.28035644951E+02  0.26861418011E+03  0.29972228060E+03  0.12509000000E+03 0.  0.
         25    1    3    3    0    0 -0.26314269877E+02 -0.15208485068E+02  0.62074425556E+02  0.14291424431E+03  0.12509000000E+03 0.  0.
         25    1    4    4    0    0 -0.89895861110E+01 -0.12827159883E+02  0.40055944115E+03  0.41992942584E+03  0.12509000000E+03 0.  0.
<mgrwt>
<rscale>  2 0.45748914E+03</rscale>
<asrwt>0</asrwt>
<pdfrwt beam="1">  1       21 0.11719220E+00 0.45748914E+03</pdfrwt>
<pdfrwt beam="2">  1       21 0.96557287E-02 0.45748914E+03</pdfrwt>
<totfact> 0.44016678E+04</totfact>
</mgrwt>
</event>
<event>
 7    0  0.4784406E-002  0.4509610E+03  0.7546771E-02  0.1027436E+00
         21   -1    0    0  502  501  0.00000000000E+00  0.00000000000E+00  0.26630843813E+03  0.26630843813E+03  0.00000000000E+00 0.  1.
         21   -1    0    0  501  502 -0.00000000000E+00 -0.00000000000E+00 -0.19091195924E+03  0.19091195924E+03  0.00000000000E+00 0.  1.
      99926    2    1    2    0    0  0.00000000000E+00  0.00000000000E+00  0.75396478888E+02  0.45722039737E+03  0.45096104349E+03 0.  0.
      99925    2    3    3    0    0 -0.10182496723E+03  0.18806328481E+02  0.10151748994E+02  0.28221644079E+03  0.26233768220E+03 0.  0.
         25    1    4    4    0    0 -0.33628603518E+02 -0.61621149339E+01  0.37541602171E+02  0.13500272082E+03  0.12509000000E+03 0.  0.
         25    1    4    4    0    0 -0.68196363709E+02  0.24968443415E+02 -0.27389853176E+02  0.14721371997E+03  0.12509000000E+03 0.  0.
         25    1    3    3    0    0  0.10182496723E+03 -0.18806328481E+02  0.65244729894E+02  0.17500395659E+03  0.12509000000E+03 0.  0.
<mgrwt>
<rscale>  2 0.45096104E+03</rscale>
<asrwt>0</asrwt>
<pdfrwt beam="1">  1       21 0.39163006E-01 0.45096104E+03</pdfrwt>
<pdfrwt beam="2">  1       21 0.28075288E-01 0.45096104E+03</pdfrwt>
<totfact> 0.70631182E+04</totfact>
</mgrwt>
</event>
<event>
 7    0  0.4784406E-002  0.4575093E+03  0.7546771E-02  0.1025506E+00
         21   -1    0    0  502  501  0.00000000000E+00  0.00000000000E+00  0.25750173800E+03  0.25750173800E+03  0.00000000000E+00 0. -1.
         21   -1    0    0  501  502 -0.00000000000E+00 -0.00000000000E+00 -0.20321682493E+03  0.20321682493E+03  0.00000000000E+00 0. -1.
      99926    2    1    2    0    0  0.00000000000E+00  0.00000000000E+00  0.54284913069E+02  0.46071856292E+03  0.45750928126E+03 0.  0.
      99925    2    3    3    0    0 -0.10167900563E+03  0.35106304824E+02  0.76632116382E+02  0.29423139098E+03  0.26292310160E+03 0.  0.
         25    1    4    4    0    0 -0.30065833583E+02 -0.17434203172E+02  0.46359186132E+02  0.13785712904E+03  0.12509000000E+03 0.  0.
         25    1    3    3    0    0  0.10167900563E+03 -0.35106304824E+02 -0.22347203313E+02  0.16648717194E+03  0.12509000000E+03 0.  0.
         25    1    4    4    0    0 -0.71613172049E+02  0.52540507996E+02  0.30272930250E+02  0.15637426194E+03  0.12509000000E+03 0.  0.
<mgrwt>
<rscale>  2 0.45750928E+03</rscale>
<asrwt>0</asrwt>
<pdfrwt beam="1">  1       21 0.37867903E-01 0.45750928E+03</pdfrwt>
<pdfrwt beam="2">  1       21 0.29884827E-01 0.45750928E+03</pdfrwt>
<totfact> 0.66781737E+04</totfact>
</mgrwt>
</event>
<event>
 7    0  0.4784406E-002  0.4515021E+03  0.7546771E-02  0.1027275E+00
         21   -1    0    0  502  501  0.00000000000E+00  0.00000000000E+00  0.73478928670E+03  0.73478928670E+03  0.00000000000E+00 0. -1.
         21   -1    0    0  501  502 -0.00000000000E+00 -0.00000000000E+00 -0.69358032405E+02  0.69358032405E+02  0.00000000000E+00 0. -1.
      99926    2    1    2    0    0  0.35527136788E-14  0.00000000000E+00  0.66543125430E+03  0.80414731911E+03  0.45150211144E+03 0.  0.
      99925    2    3    3    0    0 -0.17943407989E+02  0.75812552591E+02  0.28269754764E+03  0.39402281687E+03  0.26318542466E+03 0.  0.
         25    1    4    4    0    0 -0.36149035576E+02  0.68548097602E+02  0.13779606599E+03  0.20159577962E+03  0.12509000000E+03 0.  0.
         25    1    3    3    0    0  0.17943407989E+02 -0.75812552591E+02  0.38273370666E+03  0.41012450224E+03  0.12509000000E+03 0.  0.
         25    1    4    4    0    0  0.18205627588E+02  0.72644549883E+01  0.14490148165E+03  0.19242703725E+03  0.12509000000E+03 0.  0.
<mgrwt>
<rscale>  2 0.45150211E+03</rscale>
<asrwt>0</asrwt>
<pdfrwt beam="1">  1       21 0.10805724E+00 0.45150211E+03</pdfrwt>
<pdfrwt beam="2">  1       21 0.10199711E-01 0.45150211E+03</pdfrwt>
<totfact> 0.48893225E+04</totfact>
</mgrwt>
</event>
<event>
 7    0  0.4784406E-002  0.4518134E+03  0.7546771E-02  0.1027183E+00
         21   -1    0    0  502  501  0.00000000000E+00  0.00000000000E+00  0.28896065522E+03  0.28896065522E+03  0.00000000000E+00 0.  1.
         21   -1    0    0  501  502 -0.00000000000E+00 -0.00000000000E+00 -0.17661170931E+03  0.17661170931E+03  0.00000000000E+00 0.  1.
      99926    2    1    2    0    0  0.13322676296E-14 -0.14210854715E-13  0.11234894591E+03  0.46557236453E+03  0.45181339175E+03 0.  0.
      99925    2    3    3    0    0  0.32123929990E+01 -0.10907962960E+03  0.53858817425E+02  0.28956870464E+03  0.26275573720E+03 0.  0.
         25    1    4    4    0    0 -0.28951034995E+02 -0.78005673008E+02  0.14062950624E+02  0.15089175633E+03  0.12509000000E+03 0.  0.
         25    1    3    3    0    0 -0.32123929990E+01  0.10907962960E+03  0.58490128488E+02  0.17600365989E+03  0.12509000000E+03 0.  0.
         25    1    4    4    0    0  0.32163427994E+02 -0.31073956593E+02  0.39795866801E+02  0.13867694831E+03  0.12509000000E+03 0.  0.
<mgrwt>
<rscale>  2 0.45181339E+03</rscale>
<asrwt>0</asrwt>
<pdfrwt beam="1">  1       21 0.42494214E-01 0.45181339E+03</pdfrwt>
<pdfrwt beam="2">  1       21 0.25972310E-01 0.45181339E+03</pdfrwt>
<totfact> 0.69506954E+04</totfact>
</mgrwt>
</event>
<event>
 7    0  0.4784406E-002  0.4448321E+03  0.7546771E-02  0.1029274E+00
         21   -1    0    0  502  501  0.00000000000E+00  0.00000000000E+00  0.14642842616E+03  0.14642842616E+03  0.00000000000E+00 0. -1.
         21   -1    0    0  501  502 -0.00000000000E+00 -0.00000000000E+00 -0.33783678733E+03  0.33783678733E+03  0.00000000000E+00 0. -1.
      99926    2    1    2    0    0 -0.14210854715E-13  0.00000000000E+00 -0.19140836117E+03  0.48426521349E+03  0.44483214393E+03 0.  0.
      99925    2    3    3    0    0  0.86514364012E+02  0.15123016739E+01 -0.60307839051E+02  0.28346213275E+03  0.26310971668E+03 0.  0.
         25    1    4    4    0    0  0.47426848524E+02 -0.12120596232E+02  0.89166195993E+01  0.13462254276E+03  0.12509000000E+03 0.  0.
         25    1    3    3    0    0 -0.86514364012E+02 -0.15123016739E+01 -0.13110052212E+03  0.20080308075E+03  0.12509000000E+03 0.  0.
         25    1    4    4    0    0  0.39087515488E+02  0.13632897906E+02 -0.69224458651E+02  0.14883958999E+03  0.12509000000E+03 0.  0.
<mgrwt>
<rscale>  2 0.44483214E+03</rscale>
<asrwt>0</asrwt>
<pdfrwt beam="1">  1       21 0.21533592E-01 0.44483214E+03</pdfrwt>
<pdfrwt beam="2">  1       21 0.49681880E-01 0.44483214E+03</pdfrwt>
<totfact> 0.72032017E+04</totfact>
</mgrwt>
</event>
<event>
 7    0  0.4784406E-002  0.4564619E+03  0.7546771E-02  0.1025812E+00
         21   -1    0    0  502  501  0.00000000000E+00  0.00000000000E+00  0.10977968837E+03  0.10977968837E+03  0.00000000000E+00 0. -1.
         21   -1    0    0  501  502 -0.00000000000E+00 -0.00000000000E+00 -0.47448997026E+03  0.47448997026E+03  0.00000000000E+00 0. -1.
      99926    2    1    2    0    0  0.71054273576E-14  0.00000000000E+00 -0.36471028188E+03  0.58426965863E+03  0.45646187605E+03 0.  0.
      99925    2    3    3    0    0 -0.41593555948E+02 -0.10659702349E+03 -0.22513371191E+03  0.36467440299E+03  0.26307657183E+03 0.  0.
         25    1    4    4    0    0 -0.35062628427E+02 -0.71833502307E+02 -0.16340717843E+03  0.22076877956E+03  0.12509000000E+03 0.  0.
         25    1    4    4    0    0 -0.65309275202E+01 -0.34763521186E+02 -0.61726533478E+02  0.14390562343E+03  0.12509000000E+03 0.  0.
         25    1    3    3    0    0  0.41593555948E+02  0.10659702349E+03 -0.13957656998E+03  0.21959525564E+03  0.12509000000E+03 0.  0.
<mgrwt>
<rscale>  2 0.45646188E+03</rscale>
<asrwt>0</asrwt>
<pdfrwt beam="1">  1       21 0.16144072E-01 0.45646188E+03</pdfrwt>
<pdfrwt beam="2">  1       21 0.69777936E-01 0.45646188E+03</pdfrwt>
<totfact> 0.58972668E+04</totfact>
</mgrwt>
</event>
<event>
 7    0  0.4784406E-002  0.4488014E+03  0.7546771E-02  0.1028080E+00
         21   -1    0    0  502  501  0.00000000000E+00  0.00000000000E+00  0.16242398461E+04  0.16242398461E+04  0.00000000000E+00 0.  1.
         21   -1    0    0  501  502 -0.00000000000E+00 -0.00000000000E+00 -0.31002612827E+02  0.31002612827E+02  0.00000000000E+00 0.  1.
      99926    2    1    2    0    0  0.00000000000E+00  0.00000000000E+00  0.15932372333E+04  0.16552424589E+04  0.44880142195E+03 0.  0.
      99925    2    3    3    0    0 -0.76079508928E+02  0.69478874144E+02  0.11168979722E+04  0.11520903891E+04  0.26312692512E+03 0.  0.
         25    1    3    3    0    0  0.76079508928E+02 -0.69478874144E+02  0.47633926109E+03  0.50315206984E+03  0.12509000000E+03 0.  0.
         25    1    4    4    0    0 -0.14856122617E+02  0.46130364848E+02  0.41553161768E+03  0.43664945704E+03  0.12509000000E+03 0.  0.
         25    1    4    4    0    0 -0.61223386311E+02  0.23348509295E+02  0.70136635450E+03  0.71544093204E+03  0.12509000000E+03 0.  0.
<mgrwt>
<rscale>  2 0.44880142E+03</rscale>
<asrwt>0</asrwt>
<pdfrwt beam="1">  1       21 0.23885874E+00 0.44880142E+03</pdfrwt>
<pdfrwt beam="2">  1       21 0.45592089E-02 0.44880142E+03</pdfrwt>
<totfact> 0.21212460E+04</totfact>
</mgrwt>
</event>
<event>
 7    0  0.4784406E-002  0.4646117E+03  0.7546771E-02  0.1023452E+00
         21   -1    0    0  502  501  0.00000000000E+00  0.00000000000E+00  0.79992198905E+03  0.79992198905E+03  0.00000000000E+00 0.  1.
         21   -1    0    0  501  502 -0.00000000000E+00 -0.00000000000E+00 -0.67464100320E+02  0.67464100320E+02  0.00000000000E+00 0.  1.
      99926    2    1    2    0    0  0.00000000000E+00  0.88817841970E-15  0.73245788873E+03  0.86738608937E+03  0.46461174035E+03 0.  0.
      99925    2    3    3    0    0 -0.46515733630E+02 -0.41795031403E+01  0.24665712311E+03  0.36356958140E+03  0.26298654418E+03 0.  0.
         25    1    4    4    0    0 -0.63692420532E+02  0.50636639035E+01  0.12672423663E+03  0.18917955856E+03  0.12509000000E+03 0.  0.
         25    1    3    3    0    0  0.46515733630E+02  0.41795031403E+01  0.48580076562E+03  0.50381650797E+03  0.12509000000E+03 0.  0.
         25    1    4    4    0    0  0.17176686902E+02 -0.92431670437E+01  0.11993288648E+03  0.17439002285E+03  0.12509000000E+03 0.  0.
<mgrwt>
<rscale>  2 0.46461174E+03</rscale>
<asrwt>0</asrwt>
<pdfrwt beam="1">  1       21 0.11763558E+00 0.46461174E+03</pdfrwt>
<pdfrwt beam="2">  1       21 0.99211917E-02 0.46461174E+03</pdfrwt>
<totfact> 0.41456576E+04</totfact>
</mgrwt>
</event>
<event>
 6    0  0.4784406E-002  0.4561897E+03  0.7546771E-02  0.1025892E+00
         21   -1    0    0  502  501  0.00000000000E+00  0.00000000000E+00  0.40535092393E+03  0.40535092393E+03  0.00000000000E+00 0. -1.
         21   -1    0    0  501  502 -0.00000000000E+00 -0.00000000000E+00 -0.12835116563E+03  0.12835116563E+03  0.00000000000E+00 0. -1.
      99926    2    1    2    0    0 -0.44408920985E-15  0.00000000000E+00  0.27699975830E+03  0.53370208955E+03  0.45618971305E+03 0.  0.
         25    1    3    3    0    0  0.35317828833E+01  0.36091040310E+02 -0.25636979138E+02  0.13273959274E+03  0.12509000000E+03 0.  0.
         25    1    3    3    0    0  0.27729004032E+01  0.13819727687E+02  0.11968723377E+03  0.17369863522E+03  0.12509000000E+03 0.  0.
         25    1    3    3    0    0 -0.63046832865E+01 -0.49910767997E+02  0.18294950367E+03  0.22726386160E+03  0.12509000000E+03 0.  0.
<mgrwt>
<rscale>  2 0.45618971E+03</rscale>
<asrwt>0</asrwt>
<pdfrwt beam="1">  1       21 0.59610430E-01 0.45618971E+03</pdfrwt>
<pdfrwt beam="2">  1       21 0.18875171E-01 0.45618971E+03</pdfrwt>
<totfact> 0.62366441E+04</totfact>
</mgrwt>
</event>
<event>
 7    0  0.4784406E-002  0.4529932E+03  0.7546771E-02  0.1026833E+00
         21   -1    0    0  502  501  0.00000000000E+00  0.00000000000E+00  0.39664644203E+02  0.39664644203E+02  0.00000000000E+00 0. -1.
         21   -1    0    0  501  502 -0.00000000000E+00 -0.00000000000E+00 -0.12933609669E+04  0.12933609669E+04  0.00000000000E+00 0. -1.
      99926    2    1    2    0    0  0.00000000000E+00  0.00000000000E+00 -0.12536963227E+04  0.13330256111E+04  0.45299316806E+03 0.  0.
      99925    2    3    3    0    0  0.70055192445E+02 -0.34252843478E+02 -0.10239318210E+04  0.10600416892E+04  0.26300384313E+03 0.  0.
         25    1    4    4    0    0  0.22216471395E+02 -0.54637818644E+02 -0.48354672633E+03  0.50293519212E+03  0.12509000000E+03 0.  0.
         25    1    4    4    0    0  0.47838721051E+02  0.20384975166E+02 -0.54038509471E+03  0.55710649712E+03  0.12509000000E+03 0.  0.
         25    1    3    3    0    0 -0.70055192445E+02  0.34252843478E+02 -0.22976450164E+03  0.27298392185E+03  0.12509000000E+03 0.  0.
<mgrwt>
<rscale>  2 0.45299317E+03</rscale>
<asrwt>0</asrwt>
<pdfrwt beam="1">  1       21 0.58330366E-02 0.45299317E+03</pdfrwt>
<pdfrwt beam="2">  1       21 0.19020012E+00 0.45299317E+03</pdfrwt>
<totfact> 0.28614394E+04</totfact>
</mgrwt>
</event>
<event>
 7    0  0.4784406E-002  0.4529418E+03  0.7546771E-02  0.1026848E+00
         21   -1    0    0  502  501  0.00000000000E+00  0.00000000000E+00  0.10836155061E+03  0.10836155061E+03  0.00000000000E+00 0.  1.
         21   -1    0    0  501  502 -0.00000000000E+00 -0.00000000000E+00 -0.47331423622E+03  0.47331423622E+03  0.00000000000E+00 0.  1.
      99926    2    1    2    0    0  0.00000000000E+00  0.00000000000E+00 -0.36495268561E+03  0.58167578683E+03  0.45294178241E+03 0.  0.
      99925    2    3    3    0    0 -0.86038808264E+02  0.61456614410E+02 -0.18617367674E+03  0.33921128614E+03  0.26310466881E+03 0.  0.
         25    1    4    4    0    0 -0.39104604887E+02 -0.11083610960E+02 -0.86470465060E+02  0.15740605447E+03  0.12509000000E+03 0.  0.
         25    1    4    4    0    0 -0.46934203377E+02  0.72540225369E+02 -0.99703211676E+02  0.18180523167E+03  0.12509000000E+03 0.  0.
         25    1    3    3    0    0  0.86038808264E+02 -0.61456614410E+02 -0.17877900888E+03  0.24246450069E+03  0.12509000000E+03 0.  0.
<mgrwt>
<rscale>  2 0.45294178E+03</rscale>
<asrwt>0</asrwt>
<pdfrwt beam="1">  1       21 0.15935522E-01 0.45294178E+03</pdfrwt>
<pdfrwt beam="2">  1       21 0.69605035E-01 0.45294178E+03</pdfrwt>
<totfact> 0.60803893E+04</totfact>
</mgrwt>
</event>
<event>
 7    0  0.4784406E-002  0.4546681E+03  0.7546771E-02  0.1026339E+00
         21   -1    0    0  502  501  0.00000000000E+00  0.00000000000E+00  0.42524732266E+03  0.42524732266E+03  0.00000000000E+00 0. -1.
         21   -1    0    0  501  502 -0.00000000000E+00 -0.00000000000E+00 -0.12153107038E+03  0.12153107038E+03  0.00000000000E+00 0. -1.
      99926    2    1    2    0    0 -0.71054273576E-14 -0.71054273576E-14  0.30371625228E+03  0.54677839304E+03  0.45466806485E+03 0.  0.
      99925    2    3    3    0    0 -0.38746287104E+02 -0.45075564406E+02  0.30631381038E+03  0.40826003079E+03  0.26327746019E+03 0.  0.
         25    1    4    4    0    0 -0.52218130693E+02 -0.48701077481E+02  0.16243609314E+03  0.21709795157E+03  0.12509000000E+03 0.  0.
         25    1    4    4    0    0  0.13471843589E+02  0.36255130746E+01  0.14387771724E+03  0.19116207922E+03  0.12509000000E+03 0.  0.
         25    1    3    3    0    0  0.38746287104E+02  0.45075564406E+02 -0.25975580960E+01  0.13851836224E+03  0.12509000000E+03 0.  0.
<mgrwt>
<rscale>  2 0.45466806E+03</rscale>
<asrwt>0</asrwt>
<pdfrwt beam="1">  1       21 0.62536371E-01 0.45466806E+03</pdfrwt>
<pdfrwt beam="2">  1       21 0.17872216E-01 0.45466806E+03</pdfrwt>
<totfact> 0.62243220E+04</totfact>
</mgrwt>
</event>
<event>
 7    0  0.4784406E-002  0.4483435E+03  0.7546771E-02  0.1028217E+00
         21   -1    0    0  502  501  0.00000000000E+00  0.00000000000E+00  0.15483016273E+04  0.15483016273E+04  0.00000000000E+00 0. -1.
         21   -1    0    0  501  502 -0.00000000000E+00 -0.00000000000E+00 -0.32456833687E+02  0.32456833687E+02  0.00000000000E+00 0. -1.
      99926    2    1    2    0    0  0.44408920985E-15  0.00000000000E+00  0.15158447936E+04  0.15807584610E+04  0.44834347733E+03 0.  0.
      99925    2    3    3    0    0 -0.35746202868E+01  0.60955052182E+02  0.12684542885E+04  0.12968960535E+04  0.26312505607E+03 0.  0.
         25    1    4    4    0    0 -0.20705459500E+01  0.69790853429E+01  0.77123957286E+03  0.78135202159E+03  0.12509000000E+03 0.  0.
         25    1    4    4    0    0 -0.15040743367E+01  0.53975966839E+02  0.49721471566E+03  0.51554403188E+03  0.12509000000E+03 0.  0.
         25    1    3    3    0    0  0.35746202868E+01 -0.60955052182E+02  0.24739050512E+03  0.28386240755E+03  0.12509000000E+03 0.  0.
<mgrwt>
<rscale>  2 0.44834348E+03</rscale>
<asrwt>0</asrwt>
<pdfrwt beam="1">  1       21 0.22769137E+00 0.44834348E+03</pdfrwt>
<pdfrwt beam="2">  1       21 0.47730648E-02 0.44834348E+03</pdfrwt>
<totfact> 0.23035403E+04</totfact>
</mgrwt>
</event>
<event>
 7    0  0.4784406E-002  0.4535020E+03  0.7546771E-02  0.1026683E+00
         21   -1    0    0  502  501  0.00000000000E+00  0.00000000000E+00  0.20912014264E+03  0.20912014264E+03  0.00000000000E+00 0.  1.
         21   -1    0    0  501  502 -0.00000000000E+00 -0.00000000000E+00 -0.24586834790E+03  0.24586834790E+03  0.00000000000E+00 0.  1.
      99926    2    1    2    0    0  0.00000000000E+00  0.00000000000E+00 -0.36748205262E+02  0.45498849054E+03  0.45350203520E+03 0.  0.
      99925    2    3    3    0    0  0.24776928201E+02  0.22856878354E+02  0.83748226518E+02  0.27806129865E+03  0.26299807471E+03 0.  0.
         25    1    3    3    0    0 -0.24776928201E+02 -0.22856878354E+02 -0.12049643178E+03  0.17692719189E+03  0.12509000000E+03 0.  0.
         25    1    4    4    0    0  0.18496972623E+02  0.44081925104E+02  0.18296065904E+02  0.13515771619E+03  0.12509000000E+03 0.  0.
         25    1    4    4    0    0  0.62799555781E+01 -0.21225046750E+02  0.65452160614E+02  0.14290358246E+03  0.12509000000E+03 0.  0.
<mgrwt>
<rscale>  2 0.45350204E+03</rscale>
<asrwt>0</asrwt>
<pdfrwt beam="1">  1       21 0.30752962E-01 0.45350204E+03</pdfrwt>
<pdfrwt beam="2">  1       21 0.36157110E-01 0.45350204E+03</pdfrwt>
<totfact> 0.69372088E+04</totfact>
</mgrwt>
</event>
<event>
 7    0  0.4784406E-002  0.4527994E+03  0.7546771E-02  0.1026890E+00
         21   -1    0    0  502  501  0.00000000000E+00  0.00000000000E+00  0.77979302410E+03  0.77979302410E+03  0.00000000000E+00 0.  1.
         21   -1    0    0  501  502 -0.00000000000E+00 -0.00000000000E+00 -0.65731332375E+02  0.65731332375E+02  0.00000000000E+00 0.  1.
      99926    2    1    2    0    0  0.71054273576E-14  0.00000000000E+00  0.71406169172E+03  0.84552435647E+03  0.45279944545E+03 0.  0.
      99925    2    3    3    0    0  0.32135910610E+02  0.35269574479E+02  0.63750994824E+03  0.69130264216E+03  0.26306605505E+03 0.  0.
         25    1    3    3    0    0 -0.32135910610E+02 -0.35269574479E+02  0.76551743482E+02  0.15422171431E+03  0.12509000000E+03 0.  0.
         25    1    4    4    0    0 -0.10176842559E+02 -0.14207089669E+02  0.29553284474E+03  0.32139163017E+03  0.12509000000E+03 0.  0.
         25    1    4    4    0    0  0.42312753170E+02  0.49476664148E+02  0.34197710350E+03  0.36991101199E+03  0.12509000000E+03 0.  0.
<mgrwt>
<rscale>  2 0.45279945E+03</rscale>
<asrwt>0</asrwt>
<pdfrwt beam="1">  1       21 0.11467544E+00 0.45279945E+03</pdfrwt>
<pdfrwt beam="2">  1       21 0.96663729E-02 0.45279945E+03</pdfrwt>
<totfact> 0.46436725E+04</totfact>
</mgrwt>
</event>
<event>
 7    0  0.4784406E-002  0.4549967E+03  0.7546771E-02  0.1026242E+00
         21   -1    0    0  502  501  0.00000000000E+00  0.00000000000E+00  0.50415425043E+03  0.50415425043E+03  0.00000000000E+00 0.  1.
         21   -1    0    0  501  502 -0.00000000000E+00 -0.00000000000E+00 -0.10265805081E+03  0.10265805081E+03  0.00000000000E+00 0.  1.
      99926    2    1    2    0    0  0.31086244690E-14  0.00000000000E+00  0.40149619962E+03  0.60681230124E+03  0.45499667101E+03 0.  0.
      99925    2    3    3    0    0  0.30138422268E+01 -0.11311367646E+03  0.25517471911E+03  0.38351592688E+03  0.26299532667E+03 0.  0.
         25    1    4    4    0    0  0.27198889402E+02 -0.56467855933E+02  0.16981882323E+03  0.22003258659E+03  0.12509000000E+03 0.  0.
         25    1    4    4    0    0 -0.24185047175E+02 -0.56645820524E+02  0.85355895879E+02  0.16348334029E+03  0.12509000000E+03 0.  0.
         25    1    3    3    0    0 -0.30138422268E+01  0.11311367646E+03  0.14632148051E+03  0.22329637436E+03  0.12509000000E+03 0.  0.
<mgrwt>
<rscale>  2 0.45499667E+03</rscale>
<asrwt>0</asrwt>
<pdfrwt beam="1">  1       21 0.74140330E-01 0.45499667E+03</pdfrwt>
<pdfrwt beam="2">  1       21 0.15096772E-01 0.45499667E+03</pdfrwt>
<totfact> 0.58262434E+04</totfact>
</mgrwt>
</event>
<event>
 7    0  0.4784406E-002  0.4525195E+03  0.7546771E-02  0.1026973E+00
         21   -1    0    0  502  501  0.00000000000E+00  0.00000000000E+00  0.66975363368E+03  0.66975363368E+03  0.00000000000E+00 0. -1.
         21   -1    0    0  501  502 -0.00000000000E+00 -0.00000000000E+00 -0.76436262090E+02  0.76436262090E+02  0.00000000000E+00 0. -1.
      99926    2    1    2    0    0  0.00000000000E+00  0.00000000000E+00  0.59331737159E+03  0.74618989577E+03  0.45251945496E+03 0.  0.
      99925    2    3    3    0    0 -0.31510184814E+02  0.10467852269E+03  0.34586449596E+03  0.44814473373E+03  0.26317478591E+03 0.  0.
         25    1    4    4    0    0  0.10392084913E+02  0.52952755649E+02  0.12019746526E+03  0.18167809035E+03  0.12509000000E+03 0.  0.
         25    1    4    4    0    0 -0.41902269726E+02  0.51725767045E+02  0.22566703070E+03  0.26646664337E+03  0.12509000000E+03 0.  0.
         25    1    3    3    0    0  0.31510184814E+02 -0.10467852269E+03  0.24745287563E+03  0.29804516204E+03  0.12509000000E+03 0.  0.
<mgrwt>
<rscale>  2 0.45251945E+03</rscale>
<asrwt>0</asrwt>
<pdfrwt beam="1">  1       21 0.98493178E-01 0.45251945E+03</pdfrwt>
<pdfrwt beam="2">  1       21 0.11240627E-01 0.45251945E+03</pdfrwt>
<totfact> 0.51461915E+04</totfact>
</mgrwt>
</event>
<event>
 7    0  0.4784406E-002  0.4529619E+03  0.7546771E-02  0.1026842E+00
         21   -1    0    0  502  501  0.00000000000E+00  0.00000000000E+00  0.13607713357E+04  0.13607713357E+04  0.00000000000E+00 0.  1.
         21   -1    0    0  501  502 -0.00000000000E+00 -0.00000000000E+00 -0.37694520278E+02  0.37694520278E+02  0.00000000000E+00 0.  1.
      99926    2    1    2    0    0  0.00000000000E+00 -0.35527136788E-14  0.13230768154E+04  0.13984658559E+04  0.45296190880E+03 0.  0.
      99925    2    3    3    0    0  0.10694418697E+03  0.90608587383E+01  0.74392894495E+03  0.79632058924E+03  0.26301529882E+03 0.  0.
         25    1    4    4    0    0  0.59706944385E+02  0.43899420520E+02  0.35778866736E+03  0.38620242998E+03  0.12509000000E+03 0.  0.
         25    1    3    3    0    0 -0.10694418697E+03 -0.90608587383E+01  0.57914787042E+03  0.60214526669E+03  0.12509000000E+03 0.  0.
         25    1    4    4    0    0  0.47237242583E+02 -0.34838561782E+02  0.38614027760E+03  0.41011815926E+03  0.12509000000E+03 0.  0.
<mgrwt>
<rscale>  2 0.45296191E+03</rscale>
<asrwt>0</asrwt>
<pdfrwt beam="1">  1       21 0.20011340E+00 0.45296191E+03</pdfrwt>
<pdfrwt beam="2">  1       21 0.55433127E-02 0.45296191E+03</pdfrwt>
<totfact> 0.26794799E+04</totfact>
</mgrwt>
</event>
<event>
 7    0  0.4784406E-002  0.4505641E+03  0.7546771E-02  0.1027554E+00
         21   -1    0    0  502  501  0.00000000000E+00  0.00000000000E+00  0.35814408616E+03  0.35814408616E+03  0.00000000000E+00 0. -1.
         21   -1    0    0  501  502 -0.00000000000E+00 -0.00000000000E+00 -0.14170834513E+03  0.14170834513E+03  0.00000000000E+00 0. -1.
      99926    2    1    2    0    0  0.00000000000E+00  0.00000000000E+00  0.21643574104E+03  0.49985243129E+03  0.45056411649E+03 0.  0.
      99925    2    3    3    0    0  0.66093796837E+02  0.85367525827E+02  0.15245030470E+03  0.32265861478E+03  0.26308075157E+03 0.  0.
         25    1    4    4    0    0  0.24703567543E+02  0.54110633189E+02  0.12034030308E+03  0.18348712085E+03  0.12509000000E+03 0.  0.
         25    1    3    3    0    0 -0.66093796837E+02 -0.85367525827E+02  0.63985436337E+02  0.17719381651E+03  0.12509000000E+03 0.  0.
         25    1    4    4    0    0  0.41390229294E+02  0.31256892638E+02  0.32110001619E+02  0.13917149393E+03  0.12509000000E+03 0.  0.
<mgrwt>
<rscale>  2 0.45056412E+03</rscale>
<asrwt>0</asrwt>
<pdfrwt beam="1">  1       21 0.52668248E-01 0.45056412E+03</pdfrwt>
<pdfrwt beam="2">  1       21 0.20839463E-01 0.45056412E+03</pdfrwt>
<totfact> 0.67631188E+04</totfact>
</mgrwt>
</event>
<event>
 7    0  0.4784406E-002  0.4518218E+03  0.7546771E-02  0.1027180E+00
         21   -1    0    0  502  501  0.00000000000E+00  0.00000000000E+00  0.46958813438E+03  0.46958813438E+03  0.00000000000E+00 0. -1.
         21   -1    0    0  501  502 -0.00000000000E+00 -0.00000000000E+00 -0.10868190030E+03  0.10868190030E+03  0.00000000000E+00 0. -1.
      99926    2    1    2    0    0 -0.88817841970E-15  0.00000000000E+00  0.36090623408E+03  0.57827003469E+03  0.45182178259E+03 0.  0.
      99925    2    3    3    0    0 -0.54301525085E+01 -0.39656918930E+02  0.95457022052E+02  0.28210631300E+03  0.26243050700E+03 0.  0.
         25    1    4    4    0    0 -0.16065777924E+02 -0.20268228500E+02  0.82075402280E+01  0.12799914892E+03  0.12509000000E+03 0.  0.
         25    1    3    3    0    0  0.54301525085E+01  0.39656918930E+02  0.26544921203E+03  0.29616372168E+03  0.12509000000E+03 0.  0.
         25    1    4    4    0    0  0.10635625415E+02 -0.19388690430E+02  0.87249481824E+02  0.15410716409E+03  0.12509000000E+03 0.  0.
<mgrwt>
<rscale>  2 0.45182178E+03</rscale>
<asrwt>0</asrwt>
<pdfrwt beam="1">  1       21 0.69057078E-01 0.45182178E+03</pdfrwt>
<pdfrwt beam="2">  1       21 0.15982633E-01 0.45182178E+03</pdfrwt>
<totfact> 0.61568656E+04</totfact>
</mgrwt>
</event>
<event>
 7    0  0.4784406E-002  0.4512769E+03  0.7546771E-02  0.1027342E+00
         21   -1    0    0  502  501  0.00000000000E+00  0.00000000000E+00  0.31182296533E+03  0.31182296533E+03  0.00000000000E+00 0. -1.
         21   -1    0    0  501  502 -0.00000000000E+00 -0.00000000000E+00 -0.16327438270E+03  0.16327438270E+03  0.00000000000E+00 0. -1.
      99926    2    1    2    0    0 -0.35527136788E-14 -0.14210854715E-13  0.14854858263E+03  0.47509734803E+03  0.45127686480E+03 0.  0.
      99925    2    3    3    0    0 -0.17688802640E+02  0.10653823748E+03  0.73222104479E+02  0.29347995846E+03  0.26287966762E+03 0.  0.
         25    1    3    3    0    0  0.17688802640E+02 -0.10653823748E+03  0.75326478149E+02  0.18161738957E+03  0.12509000000E+03 0.  0.
         25    1    4    4    0    0 -0.43973380314E+02  0.56465268918E+02  0.58035720884E+02  0.15536292276E+03  0.12509000000E+03 0.  0.
         25    1    4    4    0    0  0.26284577674E+02  0.50072968558E+02  0.15186383595E+02  0.13811703570E+03  0.12509000000E+03 0.  0.
<mgrwt>
<rscale>  2 0.45127686E+03</rscale>
<asrwt>0</asrwt>
<pdfrwt beam="1">  1       21 0.45856318E-01 0.45127686E+03</pdfrwt>
<pdfrwt beam="2">  1       21 0.24010939E-01 0.45127686E+03</pdfrwt>
<totfact> 0.69077468E+04</totfact>
</mgrwt>
</event>
<event>
 7    0  0.4784406E-002  0.4538222E+03  0.7546771E-02  0.1026588E+00
         21   -1    0    0  502  501  0.00000000000E+00  0.00000000000E+00  0.12529397031E+03  0.12529397031E+03  0.00000000000E+00 0. -1.
         21   -1    0    0  501  502 -0.00000000000E+00 -0.00000000000E+00 -0.41094269600E+03  0.41094269600E+03  0.00000000000E+00 0. -1.
      99926    2    1    2    0    0  0.00000000000E+00  0.00000000000E+00 -0.28564872568E+03  0.53623666631E+03  0.45382217642E+03 0.  0.
      99925    2    3    3    0    0  0.44234443179E+02  0.10155713743E+03 -0.19419709896E+03  0.34575977465E+03  0.26375513340E+03 0.  0.
         25    1    4    4    0    0  0.64334452832E+02  0.51808508992E+02 -0.98285585472E+02  0.17925012646E+03  0.12509000000E+03 0.  0.
         25    1    3    3    0    0 -0.44234443179E+02 -0.10155713743E+03 -0.91451626728E+02  0.19047689166E+03  0.12509000000E+03 0.  0.
         25    1    4    4    0    0 -0.20100009653E+02  0.49748628440E+02 -0.95911513485E+02  0.16650964818E+03  0.12509000000E+03 0.  0.
<mgrwt>
<rscale>  2 0.45382218E+03</rscale>
<asrwt>0</asrwt>
<pdfrwt beam="1">  1       21 0.18425584E-01 0.45382218E+03</pdfrwt>
<pdfrwt beam="2">  1       21 0.60432748E-01 0.45382218E+03</pdfrwt>
<totfact> 0.63373984E+04</totfact>
</mgrwt>
</event>
<event>
 7    0  0.4784406E-002  0.4559714E+03  0.7546771E-02  0.1025956E+00
         21   -1    0    0  502  501  0.00000000000E+00  0.00000000000E+00  0.23413300081E+03  0.23413300081E+03  0.00000000000E+00 0. -1.
         21   -1    0    0  501  502 -0.00000000000E+00 -0.00000000000E+00 -0.22199980840E+03  0.22199980840E+03  0.00000000000E+00 0. -1.
      99926    2    1    2    0    0 -0.17763568394E-14  0.14210854715E-13  0.12133192410E+02  0.45613280921E+03  0.45597140840E+03 0.  0.
      99925    2    3    3    0    0 -0.10871644070E+02  0.11358736096E+03  0.10763720238E+01  0.28645652156E+03  0.26274683434E+03 0.  0.
         25    1    4    4    0    0  0.10511626270E+02  0.16404052457E+02  0.19169831698E+01  0.12661267768E+03  0.12509000000E+03 0.  0.
         25    1    3    3    0    0  0.10871644070E+02 -0.11358736096E+03  0.11056820386E+02  0.16967628765E+03  0.12509000000E+03 0.  0.
         25    1    4    4    0    0 -0.21383270340E+02  0.97183308500E+02 -0.84061114599E+00  0.15984384389E+03  0.12509000000E+03 0.  0.
<mgrwt>
<rscale>  2 0.45597141E+03</rscale>
<asrwt>0</asrwt>
<pdfrwt beam="1">  1       21 0.34431324E-01 0.45597141E+03</pdfrwt>
<pdfrwt beam="2">  1       21 0.32647030E-01 0.45597141E+03</pdfrwt>
<totfact> 0.67934813E+04</totfact>
</mgrwt>
</event>
<event>
 7    0  0.4784406E-002  0.4525011E+03  0.7546771E-02  0.1026979E+00
         21   -1    0    0  502  501  0.00000000000E+00  0.00000000000E+00  0.38544464483E+02  0.38544464483E+02  0.00000000000E+00 0.  1.
         21   -1    0    0  501  502 -0.00000000000E+00 -0.00000000000E+00 -0.13280585448E+04  0.13280585448E+04  0.00000000000E+00 0.  1.
      99926    2    1    2    0    0 -0.14210854715E-13  0.35527136788E-14 -0.12895140803E+04  0.13666030092E+04  0.45250107363E+03 0.  0.
      99925    2    3    3    0    0  0.10666447460E+03 -0.29332305427E+02 -0.84012268611E+03  0.88718896321E+03  0.26279352055E+03 0.  0.
         25    1    3    3    0    0 -0.10666447460E+03  0.29332305427E+02 -0.44939139417E+03  0.47941404604E+03  0.12509000000E+03 0.  0.
         25    1    4    4    0    0  0.53697085556E+02 -0.44758853672E+02 -0.51321234101E+03  0.53284251617E+03  0.12509000000E+03 0.  0.
         25    1    4    4    0    0  0.52967389041E+02  0.15426548245E+02 -0.32691034510E+03  0.35434644704E+03  0.12509000000E+03 0.  0.
<mgrwt>
<rscale>  2 0.45250107E+03</rscale>
<asrwt>0</asrwt>
<pdfrwt beam="1">  1       21 0.56683043E-02 0.45250107E+03</pdfrwt>
<pdfrwt beam="2">  1       21 0.19530270E+00 0.45250107E+03</pdfrwt>
<totfact> 0.27771237E+04</totfact>
</mgrwt>
</event>
<event>
 7    0  0.4784406E-002  0.4123585E+03  0.7546771E-02  0.1039582E+00
         21   -1    0    0  502  501  0.00000000000E+00  0.00000000000E+00  0.23320994425E+03  0.23320994425E+03  0.00000000000E+00 0.  1.
         21   -1    0    0  501  502 -0.00000000000E+00 -0.00000000000E+00 -0.18228158419E+03  0.18228158419E+03  0.00000000000E+00 0.  1.
      99926    2    1    2    0    0  0.35527136788E-14  0.71054273576E-14  0.50928360059E+02  0.41549152845E+03  0.41235847554E+03 0.  0.
      99925    2    3    3    0    0  0.23482056463E+02  0.61163720472E+02  0.26679878374E+02  0.27221590372E+03  0.26286360465E+03 0.  0.
         25    1    4    4    0    0 -0.70673614769E+01 -0.43271675745E+01  0.30785886818E+00  0.12536456778E+03  0.12509000000E+03 0.  0.
         25    1    4    4    0    0  0.30549417940E+02  0.65490888046E+02  0.26372019505E+02  0.14685133594E+03  0.12509000000E+03 0.  0.
         25    1    3    3    0    0 -0.23482056463E+02 -0.61163720472E+02  0.24248481685E+02  0.14327562473E+03  0.12509000000E+03 0.  0.
<mgrwt>
<rscale>  2 0.41235848E+03</rscale>
<asrwt>0</asrwt>
<pdfrwt beam="1">  1       21 0.34295580E-01 0.41235848E+03</pdfrwt>
<pdfrwt beam="2">  1       21 0.26806115E-01 0.41235848E+03</pdfrwt>
<totfact> 0.10210038E+05</totfact>
</mgrwt>
</event>
<event>
 7    0  0.4784406E-002  0.4548726E+03  0.7546771E-02  0.1026279E+00
         21   -1    0    0  502  501  0.00000000000E+00  0.00000000000E+00  0.20313809399E+04  0.20313809399E+04  0.00000000000E+00 0. -1.
         21   -1    0    0  501  502 -0.00000000000E+00 -0.00000000000E+00 -0.25464092078E+02  0.25464092078E+02  0.00000000000E+00 0. -1.
      99926    2    1    2    0    0  0.00000000000E+00  0.00000000000E+00  0.20059168478E+04  0.20568450319E+04  0.45487260326E+03 0.  0.
      99925    2    3    3    0    0  0.38624163123E+02  0.10183446417E+03  0.11232001682E+04  0.11586811668E+04  0.26287134583E+03 0.  0.
         25    1    4    4    0    0 -0.13211750306E+02  0.56801355809E+02  0.45779375311E+03  0.47814597442E+03  0.12509000000E+03 0.  0.
         25    1    3    3    0    0 -0.38624163123E+02 -0.10183446417E+03  0.88271667960E+03  0.89816386513E+03  0.12509000000E+03 0.  0.
         25    1    4    4    0    0  0.51835913429E+02  0.45033108356E+02  0.66540641507E+03  0.68053519240E+03  0.12509000000E+03 0.  0.
<mgrwt>
<rscale>  2 0.45487260E+03</rscale>
<asrwt>0</asrwt>
<pdfrwt beam="1">  1       21 0.29873238E+00 0.45487260E+03</pdfrwt>
<pdfrwt beam="2">  1       21 0.37447208E-02 0.45487260E+03</pdfrwt>
<totfact> 0.12816484E+04</totfact>
</mgrwt>
</event>
<event>
 7    0  0.4784406E-002  0.4561987E+03  0.7546771E-02  0.1025889E+00
         21   -1    0    0  502  501  0.00000000000E+00  0.00000000000E+00  0.19194062190E+03  0.19194062190E+03  0.00000000000E+00 0. -1.
         21   -1    0    0  501  502 -0.00000000000E+00 -0.00000000000E+00 -0.27106984063E+03  0.27106984063E+03  0.00000000000E+00 0. -1.
      99926    2    1    2    0    0 -0.17763568394E-14 -0.14210854715E-13 -0.79129218723E+02  0.46301046253E+03  0.45619870140E+03 0.  0.
      99925    2    3    3    0    0 -0.72641672419E+01 -0.11300109868E+03 -0.66362345484E+02  0.29379900435E+03  0.26285333863E+03 0.  0.
         25    1    4    4    0    0  0.25817672260E+02 -0.44937218383E+02 -0.57236909749E+01  0.13552185999E+03  0.12509000000E+03 0.  0.
         25    1    3    3    0    0  0.72641672419E+01  0.11300109868E+03 -0.12766873238E+02  0.16921145818E+03  0.12509000000E+03 0.  0.
         25    1    4    4    0    0 -0.33081839501E+02 -0.68063880296E+02 -0.60638654510E+02  0.15827714436E+03  0.12509000000E+03 0.  0.
<mgrwt>
<rscale>  2 0.45619870E+03</rscale>
<asrwt>0</asrwt>
<pdfrwt beam="1">  1       21 0.28226562E-01 0.45619870E+03</pdfrwt>
<pdfrwt beam="2">  1       21 0.39863212E-01 0.45619870E+03</pdfrwt>
<totfact> 0.67314319E+04</totfact>
</mgrwt>
</event>
<event>
 7    0  0.4784406E-002  0.4310330E+03  0.7546771E-02  0.1033534E+00
         21   -1    0    0  502  501  0.00000000000E+00  0.00000000000E+00  0.58120032921E+03  0.58120032921E+03  0.00000000000E+00 0. -1.
         21   -1    0    0  501  502 -0.00000000000E+00 -0.00000000000E+00 -0.79916257780E+02  0.79916257780E+02  0.00000000000E+00 0. -1.
      99926    2    1    2    0    0  0.35527136788E-14  0.00000000000E+00  0.50128407143E+03  0.66111658699E+03  0.43103297011E+03 0.  0.
      99925    2    3    3    0    0  0.18666592504E+02 -0.30084503788E+02  0.44761684743E+03  0.52047093979E+03  0.26320265581E+03 0.  0.
         25    1    4    4    0    0 -0.19195686909E+02  0.67001404849E+01  0.25570450831E+03  0.28538687767E+03  0.12509000000E+03 0.  0.
         25    1    4    4    0    0  0.37862279413E+02 -0.36784644272E+02  0.19191233912E+03  0.23508406212E+03  0.12509000000E+03 0.  0.
         25    1    3    3    0    0 -0.18666592504E+02  0.30084503788E+02  0.53667224004E+02  0.14064564720E+03  0.12509000000E+03 0.  0.
<mgrwt>
<rscale>  2 0.43103297E+03</rscale>
<asrwt>0</asrwt>
<pdfrwt beam="1">  1       21 0.85470634E-01 0.43103297E+03</pdfrwt>
<pdfrwt beam="2">  1       21 0.11752391E-01 0.43103297E+03</pdfrwt>
<totfact> 0.66817454E+04</totfact>
</mgrwt>
</event>
<event>
 7    0  0.4784406E-002  0.4590369E+03  0.7546771E-02  0.1025061E+00
         21   -1    0    0  502  501  0.00000000000E+00  0.00000000000E+00  0.26761131200E+03  0.26761131200E+03  0.00000000000E+00 0. -1.
         21   -1    0    0  501  502 -0.00000000000E+00 -0.00000000000E+00 -0.19684787044E+03  0.19684787044E+03  0.00000000000E+00 0. -1.
      99926    2    1    2    0    0  0.00000000000E+00 -0.14210854715E-13  0.70763441558E+02  0.46445918244E+03  0.45903689121E+03 0.  0.
      99925    2    3    3    0    0  0.35239372246E+02 -0.10801754948E+03  0.17025549544E+02  0.28713215830E+03  0.26314521208E+03 0.  0.
         25    1    4    4    0    0  0.20415187548E+01 -0.93643769606E+02  0.13742646237E+02  0.15687476473E+03  0.12509000000E+03 0.  0.
         25    1    3    3    0    0 -0.35239372246E+02  0.10801754948E+03  0.53737892013E+02  0.17732702414E+03  0.12509000000E+03 0.  0.
         25    1    4    4    0    0  0.33197853491E+02 -0.14373779879E+02  0.32829033076E+01  0.13025739357E+03  0.12509000000E+03 0.  0.
<mgrwt>
<rscale>  2 0.45903689E+03</rscale>
<asrwt>0</asrwt>
<pdfrwt beam="1">  1       21 0.39354605E-01 0.45903689E+03</pdfrwt>
<pdfrwt beam="2">  1       21 0.28948216E-01 0.45903689E+03</pdfrwt>
<totfact> 0.65715616E+04</totfact>
</mgrwt>
</event>
<event>
 7    0  0.4784406E-002  0.4608905E+03  0.7546771E-02  0.1024523E+00
         21   -1    0    0  502  501  0.00000000000E+00  0.00000000000E+00  0.73264917553E+02  0.73264917553E+02  0.00000000000E+00 0. -1.
         21   -1    0    0  501  502 -0.00000000000E+00 -0.00000000000E+00 -0.72483546098E+03  0.72483546098E+03  0.00000000000E+00 0. -1.
      99926    2    1    2    0    0  0.35527136788E-14  0.22204460493E-14 -0.65157054343E+03  0.79810037854E+03  0.46089048716E+03 0.  0.
      99925    2    3    3    0    0  0.25519721356E+02 -0.20871744594E+01 -0.60838524568E+03  0.66331131920E+03  0.26304692841E+03 0.  0.
         25    1    4    4    0    0 -0.10878174374E+02 -0.31716202636E+02 -0.33079399478E+03  0.35524136480E+03  0.12509000000E+03 0.  0.
         25    1    4    4    0    0  0.36397895730E+02  0.29629028176E+02 -0.27759125090E+03  0.30806995439E+03  0.12509000000E+03 0.  0.
         25    1    3    3    0    0 -0.25519721356E+02  0.20871744594E+01 -0.43185297752E+02  0.13478905934E+03  0.12509000000E+03 0.  0.
<mgrwt>
<rscale>  2 0.46089049E+03</rscale>
<asrwt>0</asrwt>
<pdfrwt beam="1">  1       21 0.10774253E-01 0.46089049E+03</pdfrwt>
<pdfrwt beam="2">  1       21 0.10659345E+00 0.46089049E+03</pdfrwt>
<totfact> 0.45706982E+04</totfact>
</mgrwt>
</event>
<event>
 7    0  0.4784406E-002  0.4527610E+03  0.7546771E-02  0.1026902E+00
         21   -1    0    0  502  501  0.00000000000E+00  0.00000000000E+00  0.90312420932E+02  0.90312420932E+02  0.00000000000E+00 0. -1.
         21   -1    0    0  501  502 -0.00000000000E+00 -0.00000000000E+00 -0.56745392821E+03  0.56745392821E+03  0.00000000000E+00 0. -1.
      99926    2    1    2    0    0  0.00000000000E+00  0.00000000000E+00 -0.47714150728E+03  0.65776634914E+03  0.45276103200E+03 0.  0.
      99925    2    3    3    0    0  0.23048420428E+02  0.86437797721E+01 -0.45776272723E+03  0.52881290860E+03  0.26361038152E+03 0.  0.
         25    1    4    4    0    0  0.21145173460E+02 -0.22479567326E+02 -0.28920864262E+03  0.31660953298E+03  0.12509000000E+03 0.  0.
         25    1    3    3    0    0 -0.23048420428E+02 -0.86437797721E+01 -0.19378780049E+02  0.12895344055E+03  0.12509000000E+03 0.  0.
         25    1    4    4    0    0  0.19032469682E+01  0.31123347098E+02 -0.16855408461E+03  0.21220337561E+03  0.12509000000E+03 0.  0.
<mgrwt>
<rscale>  2 0.45276103E+03</rscale>
<asrwt>0</asrwt>
<pdfrwt beam="1">  1       21 0.13281239E-01 0.45276103E+03</pdfrwt>
<pdfrwt beam="2">  1       21 0.83449103E-01 0.45276103E+03</pdfrwt>
<totfact> 0.56242587E+04</totfact>
</mgrwt>
</event>
<event>
 7    0  0.4784406E-002  0.4580646E+03  0.7546771E-02  0.1025344E+00
         21   -1    0    0  502  501  0.00000000000E+00  0.00000000000E+00  0.52258668227E+02  0.52258668227E+02  0.00000000000E+00 0.  1.
         21   -1    0    0  501  502 -0.00000000000E+00 -0.00000000000E+00 -0.10037719248E+04  0.10037719248E+04  0.00000000000E+00 0.  1.
      99926    2    1    2    0    0 -0.35527136788E-14  0.00000000000E+00 -0.95151325655E+03  0.10560305930E+04  0.45806455437E+03 0.  0.
      99925    2    3    3    0    0  0.14152023765E+02  0.22738908228E+02 -0.85735524786E+03  0.89718923685E+03  0.26300792377E+03 0.  0.
         25    1    3    3    0    0 -0.14152023765E+02 -0.22738908228E+02 -0.94158008686E+02  0.15884135615E+03  0.12509000000E+03 0.  0.
         25    1    4    4    0    0 -0.32522668383E+02  0.20106709407E+02 -0.43036867263E+03  0.44980741012E+03  0.12509000000E+03 0.  0.
         25    1    4    4    0    0  0.46674692148E+02  0.26321988207E+01 -0.42698657524E+03  0.44738182673E+03  0.12509000000E+03 0.  0.
<mgrwt>
<rscale>  2 0.45806455E+03</rscale>
<asrwt>0</asrwt>
<pdfrwt beam="1">  1       21 0.76850981E-02 0.45806455E+03</pdfrwt>
<pdfrwt beam="2">  1       21 0.14761352E+00 0.45806455E+03</pdfrwt>
<totfact> 0.36183655E+04</totfact>
</mgrwt>
</event>
<event>
 7    0  0.4784406E-002  0.4513601E+03  0.7546771E-02  0.1027317E+00
         21   -1    0    0  502  501  0.00000000000E+00  0.00000000000E+00  0.22510756602E+03  0.22510756602E+03  0.00000000000E+00 0.  1.
         21   -1    0    0  501  502 -0.00000000000E+00 -0.00000000000E+00 -0.22625401200E+03  0.22625401200E+03  0.00000000000E+00 0.  1.
      99926    2    1    2    0    0  0.00000000000E+00  0.00000000000E+00 -0.11464459795E+01  0.45136157803E+03  0.45136012205E+03 0.  0.
      99925    2    3    3    0    0  0.37996760898E+02  0.73749442642E+02  0.71084472197E+02  0.28478562607E+03  0.26299641918E+03 0.  0.
         25    1    4    4    0    0  0.30014316240E+02 -0.89514069863E+00  0.19864252407E+02  0.13016818766E+03  0.12509000000E+03 0.  0.
         25    1    3    3    0    0 -0.37996760898E+02 -0.73749442642E+02 -0.72230918176E+02  0.16657595195E+03  0.12509000000E+03 0.  0.
         25    1    4    4    0    0  0.79824446576E+01  0.74644583341E+02  0.51220219790E+02  0.15461743841E+03  0.12509000000E+03 0.  0.
<mgrwt>
<rscale>  2 0.45136012E+03</rscale>
<asrwt>0</asrwt>
<pdfrwt beam="1">  1       21 0.33104054E-01 0.45136012E+03</pdfrwt>
<pdfrwt beam="2">  1       21 0.33272648E-01 0.45136012E+03</pdfrwt>
<totfact> 0.70848528E+04</totfact>
</mgrwt>
</event>
<event>
 7    0  0.4784406E-002  0.4682102E+03  0.7546771E-02  0.1022427E+00
         21   -1    0    0  502  501  0.00000000000E+00  0.00000000000E+00  0.32587551299E+03  0.32587551299E+03  0.00000000000E+00 0. -1.
         21   -1    0    0  501  502 -0.00000000000E+00 -0.00000000000E+00 -0.16817829130E+03  0.16817829130E+03  0.00000000000E+00 0. -1.
      99926    2    1    2    0    0  0.00000000000E+00  0.00000000000E+00  0.15769722169E+03  0.49405380430E+03  0.46821015347E+03 0.  0.
      99925    2    3    3    0    0 -0.11947675336E+03  0.37281601714E+02  0.95757092996E+02  0.30657393854E+03  0.26297061911E+03 0.  0.
         25    1    3    3    0    0  0.11947675336E+03 -0.37281601714E+02  0.61940128694E+02  0.18747986575E+03  0.12509000000E+03 0.  0.
         25    1    4    4    0    0 -0.52052489061E+02 -0.33326901239E+01  0.10459704770E+02  0.13593190194E+03  0.12509000000E+03 0.  0.
         25    1    4    4    0    0 -0.67424264301E+02  0.40614291838E+02  0.85297388226E+02  0.17064203660E+03  0.12509000000E+03 0.  0.
<mgrwt>
<rscale>  2 0.46821015E+03</rscale>
<asrwt>0</asrwt>
<pdfrwt beam="1">  1       21 0.47922870E-01 0.46821015E+03</pdfrwt>
<pdfrwt beam="2">  1       21 0.24732102E-01 0.46821015E+03</pdfrwt>
<totfact> 0.59231078E+04</totfact>
</mgrwt>
</event>
<event>
 7    0  0.4784406E-002  0.4442040E+03  0.7546771E-02  0.1029465E+00
         21   -1    0    0  502  501  0.00000000000E+00  0.00000000000E+00  0.53694133652E+03  0.53694133652E+03  0.00000000000E+00 0.  1.
         21   -1    0    0  501  502 -0.00000000000E+00 -0.00000000000E+00 -0.91870947551E+02  0.91870947551E+02  0.00000000000E+00 0.  1.
      99926    2    1    2    0    0  0.00000000000E+00  0.00000000000E+00  0.44507038897E+03  0.62881228407E+03  0.44420404935E+03 0.  0.
      99925    2    3    3    0    0  0.95130868953E+02 -0.88992344131E+01  0.22687873598E+03  0.35976919433E+03  0.26235631067E+03 0.  0.
         25    1    4    4    0    0  0.74970427001E+02  0.13711571843E+02  0.90172163146E+02  0.17200900916E+03  0.12509000000E+03 0.  0.
         25    1    3    3    0    0 -0.95130868953E+02  0.88992344131E+01  0.21819165299E+03  0.26904308974E+03  0.12509000000E+03 0.  0.
         25    1    4    4    0    0  0.20160441952E+02 -0.22610806256E+02  0.13670657283E+03  0.18776018517E+03  0.12509000000E+03 0.  0.
<mgrwt>
<rscale>  2 0.44420405E+03</rscale>
<asrwt>0</asrwt>
<pdfrwt beam="1">  1       21 0.78961960E-01 0.44420405E+03</pdfrwt>
<pdfrwt beam="2">  1       21 0.13510434E-01 0.44420405E+03</pdfrwt>
<totfact> 0.62061115E+04</totfact>
</mgrwt>
</event>
<event>
 7    0  0.4784406E-002  0.4565126E+03  0.7546771E-02  0.1025798E+00
         21   -1    0    0  502  501  0.00000000000E+00  0.00000000000E+00  0.67203236978E+02  0.67203236978E+02  0.00000000000E+00 0. -1.
         21   -1    0    0  501  502 -0.00000000000E+00 -0.00000000000E+00 -0.77527430241E+03  0.77527430241E+03  0.00000000000E+00 0. -1.
      99926    2    1    2    0    0  0.00000000000E+00  0.00000000000E+00 -0.70807106543E+03  0.84247753939E+03  0.45651261831E+03 0.  0.
      99925    2    3    3    0    0  0.20349647186E+02  0.11181177611E+03 -0.47199823111E+03  0.55214346866E+03  0.26299068120E+03 0.  0.
         25    1    3    3    0    0 -0.20349647186E+02 -0.11181177611E+03 -0.23607283433E+03  0.29033407073E+03  0.12509000000E+03 0.  0.
         25    1    4    4    0    0  0.35414664088E+02  0.44939063837E+02 -0.28947297849E+03  0.32049310642E+03  0.12509000000E+03 0.  0.
         25    1    4    4    0    0 -0.15065016903E+02  0.66872712276E+02 -0.18252525262E+03  0.23165036224E+03  0.12509000000E+03 0.  0.
<mgrwt>
<rscale>  2 0.45651262E+03</rscale>
<asrwt>0</asrwt>
<pdfrwt beam="1">  1       21 0.98828292E-02 0.45651262E+03</pdfrwt>
<pdfrwt beam="2">  1       21 0.11401092E+00 0.45651262E+03</pdfrwt>
<totfact> 0.45238550E+04</totfact>
</mgrwt>
</event>
<event>
 7    0  0.4784406E-002  0.4487099E+03  0.7546771E-02  0.1028107E+00
         21   -1    0    0  502  501  0.00000000000E+00  0.00000000000E+00  0.45606816155E+02  0.45606816155E+02  0.00000000000E+00 0.  1.
         21   -1    0    0  501  502 -0.00000000000E+00 -0.00000000000E+00 -0.11036761144E+04  0.11036761144E+04  0.00000000000E+00 0.  1.
      99926    2    1    2    0    0  0.14210854715E-13 -0.71054273576E-14 -0.10580692982E+04  0.11492829305E+04  0.44870994481E+03 0.  0.
      99925    2    3    3    0    0 -0.87792958999E+02  0.28676160343E+02 -0.52990052170E+03  0.59870170090E+03  0.26290537832E+03 0.  0.
         25    1    4    4    0    0 -0.18986507325E+02 -0.14982261133E+02 -0.20897315616E+03  0.24474934873E+03  0.12509000000E+03 0.  0.
         25    1    3    3    0    0  0.87792958999E+02 -0.28676160343E+02 -0.52816877650E+03  0.55058122960E+03  0.12509000000E+03 0.  0.
         25    1    4    4    0    0 -0.68806451674E+02  0.43658421477E+02 -0.32092736553E+03  0.35395235217E+03  0.12509000000E+03 0.  0.
<mgrwt>
<rscale>  2 0.44870994E+03</rscale>
<asrwt>0</asrwt>
<pdfrwt beam="1">  1       21 0.67068851E-02 0.44870994E+03</pdfrwt>
<pdfrwt beam="2">  1       21 0.16230530E+00 0.44870994E+03</pdfrwt>
<totfact> 0.35515718E+04</totfact>
</mgrwt>
</event>
<event>
 7    0  0.4784406E-002  0.4499505E+03  0.7546771E-02  0.1027737E+00
         21   -1    0    0  502  501  0.00000000000E+00  0.00000000000E+00  0.38707965182E+03  0.38707965182E+03  0.00000000000E+00 0.  1.
         21   -1    0    0  501  502 -0.00000000000E+00 -0.00000000000E+00 -0.13075826480E+03  0.13075826480E+03  0.00000000000E+00 0.  1.
      99926    2    1    2    0    0  0.00000000000E+00  0.00000000000E+00  0.25632138701E+03  0.51783791662E+03  0.44995050222E+03 0.  0.
      99925    2    3    3    0    0 -0.33326098945E+02 -0.69870328139E+02  0.74819578385E+02  0.28420806780E+03  0.26302806859E+03 0.  0.
         25    1    4    4    0    0  0.71065973674E+01 -0.14373446823E+02  0.63135208665E+02  0.14103425957E+03  0.12509000000E+03 0.  0.
         25    1    3    3    0    0  0.33326098945E+02  0.69870328139E+02  0.18150180863E+03  0.23362984882E+03  0.12509000000E+03 0.  0.
         25    1    4    4    0    0 -0.40432696312E+02 -0.55496881316E+02  0.11684369720E+02  0.14317380823E+03  0.12509000000E+03 0.  0.
<mgrwt>
<rscale>  2 0.44995050E+03</rscale>
<asrwt>0</asrwt>
<pdfrwt beam="1">  1       21 0.56923478E-01 0.44995050E+03</pdfrwt>
<pdfrwt beam="2">  1       21 0.19229157E-01 0.44995050E+03</pdfrwt>
<totfact> 0.66665693E+04</totfact>
</mgrwt>
</event>
<event>
 7    0  0.4784406E-002  0.4565960E+03  0.7546771E-02  0.1025773E+00
         21   -1    0    0  502  501  0.00000000000E+00  0.00000000000E+00  0.93165325623E+02  0.93165325623E+02  0.00000000000E+00 0.  1.
         21   -1    0    0  501  502 -0.00000000000E+00 -0.00000000000E+00 -0.55943539341E+03  0.55943539341E+03  0.00000000000E+00 0.  1.
      99926    2    1    2    0    0  0.00000000000E+00  0.10269562978E-14 -0.46627006778E+03  0.65260071903E+03  0.45659601659E+03 0.  0.
      99925    2    3    3    0    0  0.11240646739E+03  0.19721588746E+00 -0.32617083532E+03  0.43371591863E+03  0.26284373962E+03 0.  0.
         25    1    4    4    0    0  0.14896352085E+02  0.13176102644E+02 -0.14946490953E+03  0.19591523235E+03  0.12509000000E+03 0.  0.
         25    1    3    3    0    0 -0.11240646739E+03 -0.19721588746E+00 -0.14009923247E+03  0.21888480039E+03  0.12509000000E+03 0.  0.
         25    1    4    4    0    0  0.97510115308E+02 -0.12978886757E+02 -0.17670592579E+03  0.23780068629E+03  0.12509000000E+03 0.  0.
<mgrwt>
<rscale>  2 0.45659602E+03</rscale>
<asrwt>0</asrwt>
<pdfrwt beam="1">  1       21 0.13700783E-01 0.45659602E+03</pdfrwt>
<pdfrwt beam="2">  1       21 0.82269909E-01 0.45659602E+03</pdfrwt>
<totfact> 0.54857983E+04</totfact>
</mgrwt>
</event>
<event>
 7    0  0.4784406E-002  0.4546507E+03  0.7546771E-02  0.1026344E+00
         21   -1    0    0  502  501  0.00000000000E+00  0.00000000000E+00  0.42604544756E+02  0.42604544756E+02  0.00000000000E+00 0.  1.
         21   -1    0    0  501  502 -0.00000000000E+00 -0.00000000000E+00 -0.12129412108E+04  0.12129412108E+04  0.00000000000E+00 0.  1.
      99926    2    1    2    0    0  0.00000000000E+00  0.00000000000E+00 -0.11703366661E+04  0.12555457556E+04  0.45465067075E+03 0.  0.
      99925    2    3    3    0    0 -0.52512344163E+02  0.60480346133E+02 -0.51738958127E+03  0.58591688658E+03  0.26304220310E+03 0.  0.
         25    1    4    4    0    0  0.11701009771E+02  0.43092302700E+02 -0.26741054617E+03  0.29857958484E+03  0.12509000000E+03 0.  0.
         25    1    4    4    0    0 -0.64213353934E+02  0.17388043433E+02 -0.24997903510E+03  0.28733730174E+03  0.12509000000E+03 0.  0.
         25    1    3    3    0    0  0.52512344163E+02 -0.60480346133E+02 -0.65294708481E+03  0.66962886902E+03  0.12509000000E+03 0.  0.
<mgrwt>
<rscale>  2 0.45465067E+03</rscale>
<asrwt>0</asrwt>
<pdfrwt beam="1">  1       21 0.62653744E-02 0.45465067E+03</pdfrwt>
<pdfrwt beam="2">  1       21 0.17837370E+00 0.45465067E+03</pdfrwt>
<totfact> 0.30516440E+04</totfact>
</mgrwt>
</event>
<event>
 7    0  0.4784406E-002  0.4609304E+03  0.7546771E-02  0.1024512E+00
         21   -1    0    0  502  501  0.00000000000E+00  0.00000000000E+00  0.90420181146E+02  0.90420181146E+02  0.00000000000E+00 0. -1.
         21   -1    0    0  501  502 -0.00000000000E+00 -0.00000000000E+00 -0.58741552444E+03  0.58741552444E+03  0.00000000000E+00 0. -1.
      99926    2    1    2    0    0  0.00000000000E+00  0.00000000000E+00 -0.49699534329E+03  0.67783570558E+03  0.46093044216E+03 0.  0.
      99925    2    3    3    0    0  0.42340382585E+02 -0.10152614503E+03 -0.37655060303E+03  0.47227620160E+03  0.26297183847E+03 0.  0.
         25    1    4    4    0    0  0.15064855103E+02 -0.92640369476E+02 -0.19550760465E+03  0.25035958038E+03  0.12509000000E+03 0.  0.
         25    1    3    3    0    0 -0.42340382585E+02  0.10152614503E+03 -0.12044474026E+03  0.20555950398E+03  0.12509000000E+03 0.  0.
         25    1    4    4    0    0  0.27275527481E+02 -0.88857755541E+01 -0.18104299838E+03  0.22191662121E+03  0.12509000000E+03 0.  0.
<mgrwt>
<rscale>  2 0.46093044E+03</rscale>
<asrwt>0</asrwt>
<pdfrwt beam="1">  1       21 0.13297085E-01 0.46093044E+03</pdfrwt>
<pdfrwt beam="2">  1       21 0.86384639E-01 0.46093044E+03</pdfrwt>
<totfact> 0.51665976E+04</totfact>
</mgrwt>
</event>
<event>
 7    0  0.4784406E-002  0.4559164E+03  0.7546771E-02  0.1025972E+00
         21   -1    0    0  502  501  0.00000000000E+00  0.00000000000E+00  0.33534220104E+02  0.33534220104E+02  0.00000000000E+00 0.  1.
         21   -1    0    0  501  502 -0.00000000000E+00 -0.00000000000E+00 -0.15496093348E+04  0.15496093348E+04  0.00000000000E+00 0.  1.
      99926    2    1    2    0    0  0.00000000000E+00 -0.14210854715E-13 -0.15160751147E+04  0.15831435549E+04  0.45591639808E+03 0.  0.
      99925    2    3    3    0    0 -0.38943856879E+02  0.89044265300E+02 -0.74643584706E+03  0.79737156790E+03  0.26303885331E+03 0.  0.
         25    1    4    4    0    0  0.31918554595E+01  0.10804747067E+02 -0.29701375806E+03  0.32247730320E+03  0.12509000000E+03 0.  0.
         25    1    3    3    0    0  0.38943856879E+02 -0.89044265300E+02 -0.76963926765E+03  0.78577198702E+03  0.12509000000E+03 0.  0.
         25    1    4    4    0    0 -0.42135712338E+02  0.78239518233E+02 -0.44942208900E+03  0.47489426470E+03  0.12509000000E+03 0.  0.
<mgrwt>
<rscale>  2 0.45591640E+03</rscale>
<asrwt>0</asrwt>
<pdfrwt beam="1">  1       21 0.49315023E-02 0.45591640E+03</pdfrwt>
<pdfrwt beam="2">  1       21 0.22788376E+00 0.45591640E+03</pdfrwt>
<totfact> 0.21658379E+04</totfact>
</mgrwt>
</event>
<event>
 7    0  0.4784406E-002  0.4480428E+03  0.7546771E-02  0.1028307E+00
         21   -1    0    0  502  501  0.00000000000E+00  0.00000000000E+00  0.18744574484E+03  0.18744574484E+03  0.00000000000E+00 0. -1.
         21   -1    0    0  501  502 -0.00000000000E+00 -0.00000000000E+00 -0.26773391980E+03  0.26773391980E+03  0.00000000000E+00 0. -1.
      99926    2    1    2    0    0  0.00000000000E+00  0.00000000000E+00 -0.80288174962E+02  0.45517966464E+03  0.44804278375E+03 0.  0.
      99925    2    3    3    0    0  0.88659217381E+02 -0.21399019200E+02 -0.10705128381E+03  0.29807413659E+03  0.26281141278E+03 0.  0.
         25    1    3    3    0    0 -0.88659217381E+02  0.21399019200E+02  0.26763108850E+02  0.15710552805E+03  0.12509000000E+03 0.  0.
         25    1    4    4    0    0  0.68082306033E+02 -0.23760797971E+01 -0.21729363358E+02  0.14408511194E+03  0.12509000000E+03 0.  0.
         25    1    4    4    0    0  0.20576911348E+02 -0.19022939403E+02 -0.85321920454E+02  0.15398902465E+03  0.12509000000E+03 0.  0.
<mgrwt>
<rscale>  2 0.44804278E+03</rscale>
<asrwt>0</asrwt>
<pdfrwt beam="1">  1       21 0.27565551E-01 0.44804278E+03</pdfrwt>
<pdfrwt beam="2">  1       21 0.39372635E-01 0.44804278E+03</pdfrwt>
<totfact> 0.72471006E+04</totfact>
</mgrwt>
</event>
<event>
 7    0  0.4784406E-002  0.4417135E+03  0.7546771E-02  0.1030222E+00
         21   -1    0    0  502  501  0.00000000000E+00  0.00000000000E+00  0.13010458903E+03  0.13010458903E+03  0.00000000000E+00 0.  1.
         21   -1    0    0  501  502 -0.00000000000E+00 -0.00000000000E+00 -0.37491150632E+03  0.37491150632E+03  0.00000000000E+00 0.  1.
      99926    2    1    2    0    0  0.00000000000E+00 -0.71054273576E-14 -0.24480691729E+03  0.50501609535E+03  0.44171351554E+03 0.  0.
      99925    2    3    3    0    0 -0.70684762609E+02  0.48895339451E+02 -0.96999308385E+02  0.29316311039E+03  0.26296131575E+03 0.  0.
         25    1    3    3    0    0  0.70684762609E+02 -0.48895339451E+02 -0.14780760891E+03  0.21185298496E+03  0.12509000000E+03 0.  0.
         25    1    4    4    0    0 -0.59620707823E+02  0.25665008622E+02 -0.15765460547E+02  0.14180754322E+03  0.12509000000E+03 0.  0.
         25    1    4    4    0    0 -0.11064054787E+02  0.23230330829E+02 -0.81233847838E+02  0.15135556717E+03  0.12509000000E+03 0.  0.
<mgrwt>
<rscale>  2 0.44171352E+03</rscale>
<asrwt>0</asrwt>
<pdfrwt beam="1">  1       21 0.19133028E-01 0.44171352E+03</pdfrwt>
<pdfrwt beam="2">  1       21 0.55134044E-01 0.44171352E+03</pdfrwt>
<totfact> 0.72241297E+04</totfact>
</mgrwt>
</event>
<event>
 7    0  0.4784406E-002  0.4327152E+03  0.7546771E-02  0.1033006E+00
         21   -1    0    0  502  501  0.00000000000E+00  0.00000000000E+00  0.76746524560E+03  0.76746524560E+03  0.00000000000E+00 0.  1.
         21   -1    0    0  501  502 -0.00000000000E+00 -0.00000000000E+00 -0.60993786496E+02  0.60993786496E+02  0.00000000000E+00 0.  1.
      99926    2    1    2    0    0  0.00000000000E+00  0.00000000000E+00  0.70647145910E+03  0.82845903209E+03  0.43271520118E+03 0.  0.
      99925    2    3    3    0    0  0.46077608156E+02  0.60301392825E+02  0.35912176461E+03  0.45155225010E+03  0.26300492163E+03 0.  0.
         25    1    4    4    0    0 -0.40170104573E+00 -0.48863055958E+01  0.16080199656E+03  0.20378623001E+03  0.12509000000E+03 0.  0.
         25    1    3    3    0    0 -0.46077608156E+02 -0.60301392825E+02  0.34734969449E+03  0.37690678199E+03  0.12509000000E+03 0.  0.
         25    1    4    4    0    0  0.46479309201E+02  0.65187698420E+02  0.19831976805E+03  0.24776602009E+03  0.12509000000E+03 0.  0.
<mgrwt>
<rscale>  2 0.43271520E+03</rscale>
<asrwt>0</asrwt>
<pdfrwt beam="1">  1       21 0.11286253E+00 0.43271520E+03</pdfrwt>
<pdfrwt beam="2">  1       21 0.89696750E-02 0.43271520E+03</pdfrwt>
<totfact> 0.55506015E+04</totfact>
</mgrwt>
</event>
<event>
 7    0  0.4784406E-002  0.4584759E+03  0.7546771E-02  0.1025224E+00
         21   -1    0    0  502  501  0.00000000000E+00  0.00000000000E+00  0.34389119719E+03  0.34389119719E+03  0.00000000000E+00 0. -1.
         21   -1    0    0  501  502 -0.00000000000E+00 -0.00000000000E+00 -0.15281006825E+03  0.15281006825E+03  0.00000000000E+00 0. -1.
      99926    2    1    2    0    0  0.00000000000E+00  0.00000000000E+00  0.19108112894E+03  0.49670126543E+03  0.45847589822E+03 0.  0.
      99925    2    3    3    0    0 -0.80496717684E+02 -0.83223539552E+02  0.13650940511E+03  0.31772791480E+03  0.26250777335E+03 0.  0.
         25    1    4    4    0    0 -0.69777402654E+02 -0.41844455820E+02  0.41343422073E+02  0.15484389253E+03  0.12509000000E+03 0.  0.
         25    1    3    3    0    0  0.80496717684E+02  0.83223539552E+02  0.54571723827E+02  0.17897335063E+03  0.12509000000E+03 0.  0.
         25    1    4    4    0    0 -0.10719315030E+02 -0.41379083732E+02  0.95165983042E+02  0.16288402228E+03  0.12509000000E+03 0.  0.
<mgrwt>
<rscale>  2 0.45847590E+03</rscale>
<asrwt>0</asrwt>
<pdfrwt beam="1">  1       21 0.50572235E-01 0.45847590E+03</pdfrwt>
<pdfrwt beam="2">  1       21 0.22472069E-01 0.45847590E+03</pdfrwt>
<totfact> 0.63726356E+04</totfact>
</mgrwt>
</event>
<event>
 7    0  0.4784406E-002  0.4728108E+03  0.7546771E-02  0.1021130E+00
         21   -1    0    0  502  501  0.00000000000E+00  0.00000000000E+00  0.80460301521E+03  0.80460301521E+03  0.00000000000E+00 0.  1.
         21   -1    0    0  501  502 -0.00000000000E+00 -0.00000000000E+00 -0.69459745351E+02  0.69459745351E+02  0.00000000000E+00 0.  1.
      99926    2    1    2    0    0  0.00000000000E+00  0.00000000000E+00  0.73514326986E+03  0.87406276056E+03  0.47281083128E+03 0.  0.
      99925    2    3    3    0    0 -0.11676939338E+03 -0.54243591473E+02  0.47447126659E+03  0.55755863763E+03  0.26300416940E+03 0.  0.
         25    1    4    4    0    0 -0.87946897743E+02 -0.55932557361E+02  0.29414604273E+03  0.33620307903E+03  0.12509000000E+03 0.  0.
         25    1    4    4    0    0 -0.28822495639E+02  0.16889658875E+01  0.18032522386E+03  0.22135555859E+03  0.12509000000E+03 0.  0.
         25    1    3    3    0    0  0.11676939338E+03  0.54243591473E+02  0.26067200327E+03  0.31650412293E+03  0.12509000000E+03 0.  0.
<mgrwt>
<rscale>  2 0.47281083E+03</rscale>
<asrwt>0</asrwt>
<pdfrwt beam="1">  1       21 0.11832397E+00 0.47281083E+03</pdfrwt>
<pdfrwt beam="2">  1       21 0.10214669E-01 0.47281083E+03</pdfrwt>
<totfact> 0.38687426E+04</totfact>
</mgrwt>
</event>
<event>
 7    0  0.4784406E-002  0.4510932E+03  0.7546771E-02  0.1027397E+00
         21   -1    0    0  502  501  0.00000000000E+00  0.00000000000E+00  0.49704217331E+02  0.49704217331E+02  0.00000000000E+00 0.  1.
         21   -1    0    0  501  502 -0.00000000000E+00 -0.00000000000E+00 -0.10234799998E+04  0.10234799998E+04  0.00000000000E+00 0.  1.
      99926    2    1    2    0    0  0.00000000000E+00  0.00000000000E+00 -0.97377578246E+03  0.10731842171E+04  0.45109321583E+03 0.  0.
      99925    2    3    3    0    0  0.30751017735E+02 -0.10104692620E+03 -0.54648912892E+03  0.61560635622E+03  0.26299184667E+03 0.  0.
         25    1    3    3    0    0 -0.30751017735E+02  0.10104692620E+03 -0.42728665354E+03  0.45757786090E+03  0.12509000000E+03 0.  0.
         25    1    4    4    0    0  0.64480601506E+01 -0.90995641616E+01 -0.26414848187E+03  0.29248300485E+03  0.12509000000E+03 0.  0.
         25    1    4    4    0    0  0.24302957585E+02 -0.91947362039E+02 -0.28234064704E+03  0.32312335138E+03  0.12509000000E+03 0.  0.
<mgrwt>
<rscale>  2 0.45109322E+03</rscale>
<asrwt>0</asrwt>
<pdfrwt beam="1">  1       21 0.73094447E-02 0.45109322E+03</pdfrwt>
<pdfrwt beam="2">  1       21 0.15051175E+00 0.45109322E+03</pdfrwt>
<totfact> 0.37570394E+04</totfact>
</mgrwt>
</event>
<event>
 7    0  0.4784406E-002  0.4315293E+03  0.7546771E-02  0.1033378E+00
         21   -1    0    0  502  501  0.00000000000E+00  0.00000000000E+00  0.10752404801E+03  0.10752404801E+03  0.00000000000E+00 0. -1.
         21   -1    0    0  501  502 -0.00000000000E+00 -0.00000000000E+00 -0.43296709342E+03  0.43296709342E+03  0.00000000000E+00 0. -1.
      99926    2    1    2    0    0  0.00000000000E+00  0.00000000000E+00 -0.32544304540E+03  0.54049114143E+03  0.43152925528E+03 0.  0.
      99925    2    3    3    0    0  0.56940885071E+02 -0.64493713143E+02 -0.23888398395E+03  0.36572935314E+03  0.26323126435E+03 0.  0.
         25    1    3    3    0    0 -0.56940885071E+02  0.64493713143E+02 -0.86559061449E+02  0.17476178829E+03  0.12509000000E+03 0.  0.
         25    1    4    4    0    0  0.29885608934E+02 -0.41806519397E+02 -0.68984488142E+02  0.15181338014E+03  0.12509000000E+03 0.  0.
         25    1    4    4    0    0  0.27055276137E+02 -0.22687193746E+02 -0.16989949581E+03  0.21391597300E+03  0.12509000000E+03 0.  0.
<mgrwt>
<rscale>  2 0.43152926E+03</rscale>
<asrwt>0</asrwt>
<pdfrwt beam="1">  1       21 0.15812360E-01 0.43152926E+03</pdfrwt>
<pdfrwt beam="2">  1       21 0.63671630E-01 0.43152926E+03</pdfrwt>
<totfact> 0.75591336E+04</totfact>
</mgrwt>
</event>
<event>
 7    0  0.4784406E-002  0.4553171E+03  0.7546771E-02  0.1026148E+00
         21   -1    0    0  502  501  0.00000000000E+00  0.00000000000E+00  0.28163649081E+03  0.28163649081E+03  0.00000000000E+00 0. -1.
         21   -1    0    0  501  502 -0.00000000000E+00 -0.00000000000E+00 -0.18402591219E+03  0.18402591219E+03  0.00000000000E+00 0. -1.
      99926    2    1    2    0    0  0.00000000000E+00  0.00000000000E+00  0.97610578614E+02  0.46566240300E+03  0.45531708568E+03 0.  0.
      99925    2    3    3    0    0  0.73213523974E+02  0.74866421617E+02  0.16902732983E+02  0.28365562943E+03  0.26307719884E+03 0.  0.
         25    1    4    4    0    0  0.17326867362E+02  0.49791832691E+00 -0.41357208718E+01  0.12635299974E+03  0.12509000000E+03 0.  0.
         25    1    3    3    0    0 -0.73213523974E+02 -0.74866421617E+02  0.80707845631E+02  0.18200677357E+03  0.12509000000E+03 0.  0.
         25    1    4    4    0    0  0.55886656612E+02  0.74368503290E+02  0.21038453855E+02  0.15730262970E+03  0.12509000000E+03 0.  0.
<mgrwt>
<rscale>  2 0.45531709E+03</rscale>
<asrwt>0</asrwt>
<pdfrwt beam="1">  1       21 0.41417131E-01 0.45531709E+03</pdfrwt>
<pdfrwt beam="2">  1       21 0.27062634E-01 0.45531709E+03</pdfrwt>
<totfact> 0.67590132E+04</totfact>
</mgrwt>
</event>
<event>
 7    0  0.4784406E-002  0.4480485E+03  0.7546771E-02  0.1028306E+00
         21   -1    0    0  502  501  0.00000000000E+00  0.00000000000E+00  0.39520747728E+03  0.39520747728E+03  0.00000000000E+00 0. -1.
         21   -1    0    0  501  502 -0.00000000000E+00 -0.00000000000E+00 -0.12698864359E+03  0.12698864359E+03  0.00000000000E+00 0. -1.
      99926    2    1    2    0    0 -0.14210854715E-13  0.00000000000E+00  0.26821883369E+03  0.52219612087E+03  0.44804848612E+03 0.  0.
      99925    2    3    3    0    0  0.96424134849E+02  0.32964127892E+02  0.14035964587E+03  0.31633274988E+03  0.26453984756E+03 0.  0.
         25    1    4    4    0    0  0.18982528756E+02  0.26534689568E+02  0.10057806677E+03  0.16379219079E+03  0.12509000000E+03 0.  0.
         25    1    3    3    0    0 -0.96424134849E+02 -0.32964127892E+02  0.12785918781E+03  0.20586337099E+03  0.12509000000E+03 0.  0.
         25    1    4    4    0    0  0.77441606093E+02  0.64294383235E+01  0.39781579104E+02  0.15254055909E+03  0.12509000000E+03 0.  0.
<mgrwt>
<rscale>  2 0.44804849E+03</rscale>
<asrwt>0</asrwt>
<pdfrwt beam="1">  1       21 0.58118746E-01 0.44804849E+03</pdfrwt>
<pdfrwt beam="2">  1       21 0.18674801E-01 0.44804849E+03</pdfrwt>
<totfact> 0.67374330E+04</totfact>
</mgrwt>
</event>
<event>
 7    0  0.4784406E-002  0.4214946E+03  0.7546771E-02  0.1036581E+00
         21   -1    0    0  502  501  0.00000000000E+00  0.00000000000E+00  0.24708996374E+03  0.24708996374E+03  0.00000000000E+00 0.  1.
         21   -1    0    0  501  502 -0.00000000000E+00 -0.00000000000E+00 -0.17974998701E+03  0.17974998701E+03  0.00000000000E+00 0.  1.
      99926    2    1    2    0    0  0.00000000000E+00  0.00000000000E+00  0.67339976732E+02  0.42683995075E+03  0.42149456828E+03 0.  0.
      99925    2    3    3    0    0  0.39810376713E+02  0.34071959222E+02 -0.14450154193E+02  0.26846413784E+03  0.26290382624E+03 0.  0.
         25    1    4    4    0    0 -0.17524210699E+02  0.27944853531E+02 -0.18398237410E+02  0.13066757838E+03  0.12509000000E+03 0.  0.
         25    1    4    4    0    0  0.57334587413E+02  0.61271056914E+01  0.39480832173E+01  0.13779655946E+03  0.12509000000E+03 0.  0.
         25    1    3    3    0    0 -0.39810376713E+02 -0.34071959222E+02  0.81790130925E+02  0.15837581291E+03  0.12509000000E+03 0.  0.
<mgrwt>
<rscale>  2 0.42149457E+03</rscale>
<asrwt>0</asrwt>
<pdfrwt beam="1">  1       21 0.36336760E-01 0.42149457E+03</pdfrwt>
<pdfrwt beam="2">  1       21 0.26433821E-01 0.42149457E+03</pdfrwt>
<totfact> 0.93181914E+04</totfact>
</mgrwt>
</event>
<event>
 7    0  0.4784406E-002  0.4558580E+03  0.7546771E-02  0.1025989E+00
         21   -1    0    0  502  501  0.00000000000E+00  0.00000000000E+00  0.10553668110E+04  0.10553668110E+04  0.00000000000E+00 0.  1.
         21   -1    0    0  501  502 -0.00000000000E+00 -0.00000000000E+00 -0.49226133535E+02  0.49226133535E+02  0.00000000000E+00 0.  1.
      99926    2    1    2    0    0  0.00000000000E+00  0.71054273576E-14  0.10061406775E+04  0.11045929446E+04  0.45585799354E+03 0.  0.
      99925    2    3    3    0    0  0.47698542234E+01  0.48424154937E+02  0.38311443146E+03  0.46727288240E+03  0.26305822310E+03 0.  0.
         25    1    3    3    0    0 -0.47698542234E+01 -0.48424154937E+02  0.62302624603E+03  0.63732006216E+03  0.12509000000E+03 0.  0.
         25    1    4    4    0    0 -0.14299453856E+01  0.65225044852E+02  0.19659840744E+03  0.24198097679E+03  0.12509000000E+03 0.  0.
         25    1    4    4    0    0  0.61997996090E+01 -0.16800889915E+02  0.18651602402E+03  0.22529190561E+03  0.12509000000E+03 0.  0.
<mgrwt>
<rscale>  2 0.45585799E+03</rscale>
<asrwt>0</asrwt>
<pdfrwt beam="1">  1       21 0.15520099E+00 0.45585799E+03</pdfrwt>
<pdfrwt beam="2">  1       21 0.72391379E-02 0.45585799E+03</pdfrwt>
<totfact> 0.35099502E+04</totfact>
</mgrwt>
</event>
<event>
 7    0  0.4784406E-002  0.4235733E+03  0.7546771E-02  0.1035910E+00
         21   -1    0    0  502  501  0.00000000000E+00  0.00000000000E+00  0.52412895736E+03  0.52412895736E+03  0.00000000000E+00 0.  1.
         21   -1    0    0  501  502 -0.00000000000E+00 -0.00000000000E+00 -0.85577380900E+02  0.85577380900E+02  0.00000000000E+00 0.  1.
      99926    2    1    2    0    0  0.14210854715E-13 -0.35527136788E-14  0.43855157646E+03  0.60970633825E+03  0.42357329200E+03 0.  0.
      99925    2    3    3    0    0  0.72494786831E+02 -0.25758863772E+02  0.31719904633E+03  0.41919923117E+03  0.26304704379E+03 0.  0.
         25    1    3    3    0    0 -0.72494786831E+02  0.25758863772E+02  0.12135253013E+03  0.19050710708E+03  0.12509000000E+03 0.  0.
         25    1    4    4    0    0  0.25881570480E+02  0.20763056809E+02  0.11944565346E+03  0.17611284011E+03  0.12509000000E+03 0.  0.
         25    1    4    4    0    0  0.46613216350E+02 -0.46521920581E+02  0.19775339286E+03  0.24308639107E+03  0.12509000000E+03 0.  0.
<mgrwt>
<rscale>  2 0.42357329E+03</rscale>
<asrwt>0</asrwt>
<pdfrwt beam="1">  1       21 0.77077786E-01 0.42357329E+03</pdfrwt>
<pdfrwt beam="2">  1       21 0.12584909E-01 0.42357329E+03</pdfrwt>
<totfact> 0.75045404E+04</totfact>
</mgrwt>
</event>
<event>
 7    0  0.4784406E-002  0.4582492E+03  0.7546771E-02  0.1025290E+00
         21   -1    0    0  502  501  0.00000000000E+00  0.00000000000E+00  0.37765868510E+03  0.37765868510E+03  0.00000000000E+00 0.  1.
         21   -1    0    0  501  502 -0.00000000000E+00 -0.00000000000E+00 -0.13900934067E+03  0.13900934067E+03  0.00000000000E+00 0.  1.
      99926    2    1    2    0    0 -0.14210854715E-13  0.00000000000E+00  0.23864934443E+03  0.51666802577E+03  0.45824921086E+03 0.  0.
      99925    2    3    3    0    0 -0.79545539103E+02  0.33196688107E+02  0.23695013563E+03  0.36474729544E+03  0.26356348356E+03 0.  0.
         25    1    4    4    0    0 -0.13285326207E+02 -0.11623062917E+02  0.84792809805E+02  0.15214770514E+03  0.12509000000E+03 0.  0.
         25    1    4    4    0    0 -0.66260212896E+02  0.44819751025E+02  0.15215732583E+03  0.21259959031E+03  0.12509000000E+03 0.  0.
         25    1    3    3    0    0  0.79545539103E+02 -0.33196688107E+02  0.16992088005E+01  0.15192073033E+03  0.12509000000E+03 0.  0.
<mgrwt>
<rscale>  2 0.45824921E+03</rscale>
<asrwt>0</asrwt>
<pdfrwt beam="1">  1       21 0.55538042E-01 0.45824921E+03</pdfrwt>
<pdfrwt beam="2">  1       21 0.20442550E-01 0.45824921E+03</pdfrwt>
<totfact> 0.62488113E+04</totfact>
</mgrwt>
</event>
<event>
 7    0  0.4784406E-002  0.4579838E+03  0.7546771E-02  0.1025368E+00
         21   -1    0    0  502  501  0.00000000000E+00  0.00000000000E+00  0.13823017372E+03  0.13823017372E+03  0.00000000000E+00 0.  1.
         21   -1    0    0  501  502 -0.00000000000E+00 -0.00000000000E+00 -0.37934766340E+03  0.37934766340E+03  0.00000000000E+00 0.  1.
      99926    2    1    2    0    0  0.00000000000E+00 -0.12212453271E-14 -0.24111748969E+03  0.51757783712E+03  0.45798381374E+03 0.  0.
      99925    2    3    3    0    0 -0.93858678125E+02  0.31336665190E+00 -0.22827239491E+03  0.36066367518E+03  0.26298374600E+03 0.  0.
         25    1    3    3    0    0  0.93858678125E+02 -0.31336665190E+00 -0.12845094781E+02  0.15691416194E+03  0.12509000000E+03 0.  0.
         25    1    4    4    0    0 -0.59548954735E+02  0.86907992466E+01 -0.68792306408E+02  0.15492416701E+03  0.12509000000E+03 0.  0.
         25    1    4    4    0    0 -0.34309723390E+02 -0.83774325947E+01 -0.15948008850E+03  0.20573950817E+03  0.12509000000E+03 0.  0.
<mgrwt>
<rscale>  2 0.45798381E+03</rscale>
<asrwt>0</asrwt>
<pdfrwt beam="1">  1       21 0.20327967E-01 0.45798381E+03</pdfrwt>
<pdfrwt beam="2">  1       21 0.55786420E-01 0.45798381E+03</pdfrwt>
<totfact> 0.62558284E+04</totfact>
</mgrwt>
</event>
<event>
 7    0  0.4784406E-002  0.4552123E+03  0.7546771E-02  0.1026179E+00
         21   -1    0    0  502  501  0.00000000000E+00  0.00000000000E+00  0.26508881021E+03  0.26508881021E+03  0.00000000000E+00 0.  1.
         21   -1    0    0  501  502 -0.00000000000E+00 -0.00000000000E+00 -0.19542343255E+03  0.19542343255E+03  0.00000000000E+00 0.  1.
      99926    2    1    2    0    0  0.00000000000E+00  0.00000000000E+00  0.69665377660E+02  0.46051224277E+03  0.45521232507E+03 0.  0.
      99925    2    3    3    0    0 -0.32772170621E+02  0.66803780100E+02 -0.42724653454E+02  0.27662154861E+03  0.26297780313E+03 0.  0.
         25    1    4    4    0    0 -0.39756280549E+02  0.65634663039E+02 -0.36259500300E+02  0.15116458017E+03  0.12509000000E+03 0.  0.
         25    1    4    4    0    0  0.69841099278E+01  0.11691170612E+01 -0.64651531537E+01  0.12545696845E+03  0.12509000000E+03 0.  0.
         25    1    3    3    0    0  0.32772170621E+02 -0.66803780100E+02  0.11239003111E+03  0.18389069415E+03  0.12509000000E+03 0.  0.
<mgrwt>
<rscale>  2 0.45521233E+03</rscale>
<asrwt>0</asrwt>
<pdfrwt beam="1">  1       21 0.38983649E-01 0.45521233E+03</pdfrwt>
<pdfrwt beam="2">  1       21 0.28738740E-01 0.45521233E+03</pdfrwt>
<totfact> 0.68027987E+04</totfact>
</mgrwt>
</event>
<event>
 7    0  0.4784406E-002  0.4411781E+03  0.7546771E-02  0.1030386E+00
         21   -1    0    0  502  501  0.00000000000E+00  0.00000000000E+00  0.42789063245E+02  0.42789063245E+02  0.00000000000E+00 0.  1.
         21   -1    0    0  501  502 -0.00000000000E+00 -0.00000000000E+00 -0.11371954753E+04  0.11371954753E+04  0.00000000000E+00 0.  1.
      99926    2    1    2    0    0  0.00000000000E+00  0.00000000000E+00 -0.10944064120E+04  0.11799845385E+04  0.44117810060E+03 0.  0.
      99925    2    3    3    0    0  0.50936455355E+02  0.53176776840E+02 -0.51829212586E+03  0.58586546719E+03  0.26303863946E+03 0.  0.
         25    1    4    4    0    0  0.17660534627E+02 -0.81756070326E+01 -0.19814626186E+03  0.23513439609E+03  0.12509000000E+03 0.  0.
         25    1    3    3    0    0 -0.50936455355E+02 -0.53176776840E+02 -0.57611428615E+03  0.59411907130E+03  0.12509000000E+03 0.  0.
         25    1    4    4    0    0  0.33275920728E+02  0.61352383873E+02 -0.32014586399E+03  0.35073107111E+03  0.12509000000E+03 0.  0.
<mgrwt>
<rscale>  2 0.44117810E+03</rscale>
<asrwt>0</asrwt>
<pdfrwt beam="1">  1       21 0.62925089E-02 0.44117810E+03</pdfrwt>
<pdfrwt beam="2">  1       21 0.16723464E+00 0.44117810E+03</pdfrwt>
<totfact> 0.36580310E+04</totfact>
</mgrwt>
</event>
<event>
 7    0  0.4784406E-002  0.4464268E+03  0.7546771E-02  0.1028793E+00
         21   -1    0    0  502  501  0.00000000000E+00  0.00000000000E+00  0.78686600622E+02  0.78686600622E+02  0.00000000000E+00 0. -1.
         21   -1    0    0  501  502 -0.00000000000E+00 -0.00000000000E+00 -0.63319835738E+03  0.63319835738E+03  0.00000000000E+00 0. -1.
      99926    2    1    2    0    0  0.00000000000E+00 -0.35527136788E-14 -0.55451175676E+03  0.71188495801E+03  0.44642681936E+03 0.  0.
      99925    2    3    3    0    0  0.99511657548E+02  0.22848516626E+02 -0.31370334472E+03  0.42195251051E+03  0.26307700002E+03 0.  0.
         25    1    4    4    0    0  0.54774138552E+02  0.50022300806E+02 -0.14315404248E+03  0.20406622653E+03  0.12509000000E+03 0.  0.
         25    1    3    3    0    0 -0.99511657548E+02 -0.22848516626E+02 -0.24080841204E+03  0.28993244749E+03  0.12509000000E+03 0.  0.
         25    1    4    4    0    0  0.44737518997E+02 -0.27173784180E+02 -0.17054930224E+03  0.21788628398E+03  0.12509000000E+03 0.  0.
<mgrwt>
<rscale>  2 0.44642682E+03</rscale>
<asrwt>0</asrwt>
<pdfrwt beam="1">  1       21 0.11571559E-01 0.44642682E+03</pdfrwt>
<pdfrwt beam="2">  1       21 0.93117404E-01 0.44642682E+03</pdfrwt>
<totfact> 0.55941075E+04</totfact>
</mgrwt>
</event>
<event>
 7    0  0.4784406E-002  0.4542419E+03  0.7546771E-02  0.1026465E+00
         21   -1    0    0  502  501  0.00000000000E+00  0.00000000000E+00  0.31908311916E+02  0.31908311916E+02  0.00000000000E+00 0. -1.
         21   -1    0    0  501  502 -0.00000000000E+00 -0.00000000000E+00 -0.16166297259E+04  0.16166297259E+04  0.00000000000E+00 0. -1.
      99926    2    1    2    0    0  0.00000000000E+00  0.00000000000E+00 -0.15847214140E+04  0.16485380378E+04  0.45424189832E+03 0.  0.
      99925    2    3    3    0    0 -0.97806181234E+01 -0.11180424645E+03 -0.95110632349E+03  0.99301424647E+03  0.26244657570E+03 0.  0.
         25    1    4    4    0    0  0.92596055661E+01 -0.21117067160E+02 -0.49462899038E+03  0.51072205459E+03  0.12509000000E+03 0.  0.
         25    1    4    4    0    0 -0.19040223689E+02 -0.90687179295E+02 -0.45647733311E+03  0.48229219188E+03  0.12509000000E+03 0.  0.
         25    1    3    3    0    0  0.97806181234E+01  0.11180424645E+03 -0.63361509052E+03  0.65552379137E+03  0.12509000000E+03 0.  0.
<mgrwt>
<rscale>  2 0.45424190E+03</rscale>
<asrwt>0</asrwt>
<pdfrwt beam="1">  1       21 0.46923977E-02 0.45424190E+03</pdfrwt>
<pdfrwt beam="2">  1       21 0.23773972E+00 0.45424190E+03</pdfrwt>
<totfact> 0.20475078E+04</totfact>
</mgrwt>
</event>
<event>
 7    0  0.4784406E-002  0.4315177E+03  0.7546771E-02  0.1033382E+00
         21   -1    0    0  502  501  0.00000000000E+00  0.00000000000E+00  0.64805384723E+03  0.64805384723E+03  0.00000000000E+00 0. -1.
         21   -1    0    0  501  502 -0.00000000000E+00 -0.00000000000E+00 -0.71833358942E+02  0.71833358942E+02  0.00000000000E+00 0. -1.
      99926    2    1    2    0    0  0.00000000000E+00  0.00000000000E+00  0.57622048828E+03  0.71988720617E+03  0.43151771515E+03 0.  0.
      99925    2    3    3    0    0  0.31707932925E+02 -0.60505123917E+02  0.46702359531E+03  0.54033851482E+03  0.26303689663E+03 0.  0.
         25    1    3    3    0    0 -0.31707932925E+02  0.60505123917E+02  0.10919689297E+03  0.17954869135E+03  0.12509000000E+03 0.  0.
         25    1    4    4    0    0  0.55651770269E+02 -0.23416853334E+02  0.22821593785E+03  0.26716191896E+03  0.12509000000E+03 0.  0.
         25    1    4    4    0    0 -0.23943837344E+02 -0.37088270583E+02  0.23880765747E+03  0.27317659586E+03  0.12509000000E+03 0.  0.
<mgrwt>
<rscale>  2 0.43151772E+03</rscale>
<asrwt>0</asrwt>
<pdfrwt beam="1">  1       21 0.95302033E-01 0.43151772E+03</pdfrwt>
<pdfrwt beam="2">  1       21 0.10563730E-01 0.43151772E+03</pdfrwt>
<totfact> 0.62626633E+04</totfact>
</mgrwt>
</event>
<event>
 7    0  0.4784406E-002  0.4687615E+03  0.7546771E-02  0.1022270E+00
         21   -1    0    0  502  501  0.00000000000E+00  0.00000000000E+00  0.27387635297E+02  0.27387635297E+02  0.00000000000E+00 0. -1.
         21   -1    0    0  501  502 -0.00000000000E+00 -0.00000000000E+00 -0.20058081597E+04  0.20058081597E+04  0.00000000000E+00 0. -1.
      99926    2    1    2    0    0  0.00000000000E+00  0.00000000000E+00 -0.19784205244E+04  0.20331957950E+04  0.46876152723E+03 0.  0.
      99925    2    3    3    0    0 -0.59763949061E+02  0.87672812033E+02 -0.15222232791E+04  0.15484054421E+04  0.26294001215E+03 0.  0.
         25    1    4    4    0    0  0.69371804133E+01  0.44068681288E+02 -0.61909880749E+03  0.63318323941E+03  0.12509000000E+03 0.  0.
         25    1    4    4    0    0 -0.66701129474E+02  0.43604130745E+02 -0.90312447162E+03  0.91522220266E+03  0.12509000000E+03 0.  0.
         25    1    3    3    0    0  0.59763949061E+02 -0.87672812033E+02 -0.45619724528E+03  0.48479035291E+03  0.12509000000E+03 0.  0.
<mgrwt>
<rscale>  2 0.46876153E+03</rscale>
<asrwt>0</asrwt>
<pdfrwt beam="1">  1       21 0.40275936E-02 0.46876153E+03</pdfrwt>
<pdfrwt beam="2">  1       21 0.29497178E+00 0.46876153E+03</pdfrwt>
<totfact> 0.11857176E+04</totfact>
</mgrwt>
</event>
<event>
 7    0  0.4784406E-002  0.4611612E+03  0.7546771E-02  0.1024445E+00
         21   -1    0    0  502  501  0.00000000000E+00  0.00000000000E+00  0.34625621585E+02  0.34625621585E+02  0.00000000000E+00 0.  1.
         21   -1    0    0  501  502 -0.00000000000E+00 -0.00000000000E+00 -0.15354930724E+04  0.15354930724E+04  0.00000000000E+00 0.  1.
      99926    2    1    2    0    0  0.00000000000E+00  0.00000000000E+00 -0.15008674508E+04  0.15701186940E+04  0.46116115219E+03 0.  0.
      99925    2    3    3    0    0  0.53994613551E+02 -0.84816137423E+02 -0.11549369142E+04  0.11887728671E+04  0.26304459353E+03 0.  0.
         25    1    4    4    0    0  0.22705431798E+02 -0.12996101635E+02 -0.41390488540E+03  0.43318494612E+03  0.12509000000E+03 0.  0.
         25    1    3    3    0    0 -0.53994613551E+02  0.84816137423E+02 -0.34593053659E+03  0.38134582691E+03  0.12509000000E+03 0.  0.
         25    1    4    4    0    0  0.31289181753E+02 -0.71820035787E+02 -0.74103202883E+03  0.75558792095E+03  0.12509000000E+03 0.  0.
<mgrwt>
<rscale>  2 0.46116115E+03</rscale>
<asrwt>0</asrwt>
<pdfrwt beam="1">  1       21 0.50920030E-02 0.46116115E+03</pdfrwt>
<pdfrwt beam="2">  1       21 0.22580781E+00 0.46116115E+03</pdfrwt>
<totfact> 0.21084739E+04</totfact>
</mgrwt>
</event>
<event>
 7    0  0.4784406E-002  0.4642940E+03  0.7546771E-02  0.1023543E+00
         21   -1    0    0  502  501  0.00000000000E+00  0.00000000000E+00  0.68022209575E+02  0.68022209575E+02  0.00000000000E+00 0.  1.
         21   -1    0    0  501  502 -0.00000000000E+00 -0.00000000000E+00 -0.79227409163E+03  0.79227409163E+03  0.00000000000E+00 0.  1.
      99926    2    1    2    0    0  0.00000000000E+00  0.00000000000E+00 -0.72425188205E+03  0.86029630120E+03  0.46429402021E+03 0.  0.
      99925    2    3    3    0    0  0.82689275943E+02  0.49203790360E+02 -0.31639854431E+03  0.42297447171E+03  0.26370596416E+03 0.  0.
         25    1    4    4    0    0  0.56032082327E+02  0.64464550934E+01 -0.21154774715E+03  0.25215294656E+03  0.12509000000E+03 0.  0.
         25    1    3    3    0    0 -0.82689275943E+02 -0.49203790360E+02 -0.40785333774E+03  0.43732182949E+03  0.12509000000E+03 0.  0.
         25    1    4    4    0    0  0.26657193616E+02  0.42757335267E+02 -0.10485079716E+03  0.17082152515E+03  0.12509000000E+03 0.  0.
<mgrwt>
<rscale>  2 0.46429402E+03</rscale>
<asrwt>0</asrwt>
<pdfrwt beam="1">  1       21 0.10003267E-01 0.46429402E+03</pdfrwt>
<pdfrwt beam="2">  1       21 0.11651088E+00 0.46429402E+03</pdfrwt>
<totfact> 0.41847116E+04</totfact>
</mgrwt>
</event>
<event>
 7    0  0.4784406E-002  0.4609541E+03  0.7546771E-02  0.1024505E+00
         21   -1    0    0  502  501  0.00000000000E+00  0.00000000000E+00  0.64554351831E+02  0.64554351831E+02  0.00000000000E+00 0.  1.
         21   -1    0    0  501  502 -0.00000000000E+00 -0.00000000000E+00 -0.82286742761E+03  0.82286742761E+03  0.00000000000E+00 0.  1.
      99926    2    1    2    0    0  0.00000000000E+00  0.00000000000E+00 -0.75831307578E+03  0.88742177944E+03  0.46095411239E+03 0.  0.
      99925    2    3    3    0    0  0.66718782204E+02 -0.68347238879E+02 -0.61025520682E+03  0.67133989306E+03  0.26298877087E+03 0.  0.
         25    1    3    3    0    0 -0.66718782204E+02  0.68347238879E+02 -0.14805786896E+03  0.21608188638E+03  0.12509000000E+03 0.  0.
         25    1    4    4    0    0  0.19514200801E+02  0.42440859405E+00 -0.23194682841E+03  0.26424954771E+03  0.12509000000E+03 0.  0.
         25    1    4    4    0    0  0.47204581402E+02 -0.68771647473E+02 -0.37830837841E+03  0.40709034535E+03  0.12509000000E+03 0.  0.
<mgrwt>
<rscale>  2 0.46095411E+03</rscale>
<asrwt>0</asrwt>
<pdfrwt beam="1">  1       21 0.94932880E-02 0.46095411E+03</pdfrwt>
<pdfrwt beam="2">  1       21 0.12100990E+00 0.46095411E+03</pdfrwt>
<totfact> 0.41798723E+04</totfact>
</mgrwt>
</event>
<event>
 7    0  0.4784406E-002  0.4543111E+03  0.7546771E-02  0.1026444E+00
         21   -1    0    0  502  501  0.00000000000E+00  0.00000000000E+00  0.16022843017E+03  0.16022843017E+03  0.00000000000E+00 0.  1.
         21   -1    0    0  501  502 -0.00000000000E+00 -0.00000000000E+00 -0.32203799951E+03  0.32203799951E+03  0.00000000000E+00 0.  1.
      99926    2    1    2    0    0  0.00000000000E+00 -0.71054273576E-14 -0.16180956933E+03  0.48226642968E+03  0.45431109657E+03 0.  0.
      99925    2    3    3    0    0 -0.50354966993E+02  0.37130036116E+02 -0.26686944090E+01  0.27039951755E+03  0.26304850290E+03 0.  0.
         25    1    4    4    0    0 -0.26736158299E+02  0.56442103095E+02 -0.17015432597E+02  0.14084589525E+03  0.12509000000E+03 0.  0.
         25    1    4    4    0    0 -0.23618808694E+02 -0.19312066979E+02  0.14346738187E+02  0.12955362230E+03  0.12509000000E+03 0.  0.
         25    1    3    3    0    0  0.50354966993E+02 -0.37130036116E+02 -0.15914087493E+03  0.21186691213E+03  0.12509000000E+03 0.  0.
<mgrwt>
<rscale>  2 0.45431110E+03</rscale>
<asrwt>0</asrwt>
<pdfrwt beam="1">  1       21 0.23563005E-01 0.45431110E+03</pdfrwt>
<pdfrwt beam="2">  1       21 0.47358529E-01 0.45431110E+03</pdfrwt>
<totfact> 0.66900589E+04</totfact>
</mgrwt>
</event>
<event>
 7    0  0.4784406E-002  0.4431495E+03  0.7546771E-02  0.1029785E+00
         21   -1    0    0  502  501  0.00000000000E+00  0.00000000000E+00  0.34237683911E+03  0.34237683911E+03  0.00000000000E+00 0.  1.
         21   -1    0    0  501  502 -0.00000000000E+00 -0.00000000000E+00 -0.14339568370E+03  0.14339568370E+03  0.00000000000E+00 0.  1.
      99926    2    1    2    0    0  0.00000000000E+00  0.00000000000E+00  0.19898115540E+03  0.48577252281E+03  0.44314945979E+03 0.  0.
      99925    2    3    3    0    0  0.54200596032E+02  0.43177525853E+01  0.22081221871E+03  0.34764051702E+03  0.26294399698E+03 0.  0.
         25    1    4    4    0    0  0.52583146356E+02  0.18876655010E+02  0.15002556507E+03  0.20316617253E+03  0.12509000000E+03 0.  0.
         25    1    3    3    0    0 -0.54200596032E+02 -0.43177525853E+01 -0.21831063307E+02  0.13813200579E+03  0.12509000000E+03 0.  0.
         25    1    4    4    0    0  0.16174496761E+01 -0.14558902425E+02  0.70786653636E+02  0.14447434449E+03  0.12509000000E+03 0.  0.
<mgrwt>
<rscale>  2 0.44314946E+03</rscale>
<asrwt>0</asrwt>
<pdfrwt beam="1">  1       21 0.50349535E-01 0.44314946E+03</pdfrwt>
<pdfrwt beam="2">  1       21 0.21087601E-01 0.44314946E+03</pdfrwt>
<totfact> 0.72903090E+04</totfact>
</mgrwt>
</event>
<event>
 7    0  0.4784406E-002  0.4567267E+03  0.7546771E-02  0.1025735E+00
         21   -1    0    0  502  501  0.00000000000E+00  0.00000000000E+00  0.87574807345E+03  0.87574807345E+03  0.00000000000E+00 0. -1.
         21   -1    0    0  501  502 -0.00000000000E+00 -0.00000000000E+00 -0.59548878041E+02  0.59548878041E+02  0.00000000000E+00 0. -1.
      99926    2    1    2    0    0  0.00000000000E+00  0.00000000000E+00  0.81619919541E+03  0.93529695149E+03  0.45672668072E+03 0.  0.
      99925    2    3    3    0    0  0.19127813361E+02 -0.10774013235E+03  0.58373845760E+03  0.64953601630E+03  0.26300692048E+03 0.  0.
         25    1    4    4    0    0  0.43407470623E+02 -0.30643173168E+02  0.28259478116E+03  0.31357699375E+03  0.12509000000E+03 0.  0.
         25    1    4    4    0    0 -0.24279657262E+02 -0.77096959180E+02  0.30114367644E+03  0.33595902255E+03  0.12509000000E+03 0.  0.
         25    1    3    3    0    0 -0.19127813361E+02  0.10774013235E+03  0.23246073781E+03  0.28576093520E+03  0.12509000000E+03 0.  0.
<mgrwt>
<rscale>  2 0.45672668E+03</rscale>
<asrwt>0</asrwt>
<pdfrwt beam="1">  1       21 0.12878647E+00 0.45672668E+03</pdfrwt>
<pdfrwt beam="2">  1       21 0.87571884E-02 0.45672668E+03</pdfrwt>
<totfact> 0.41183011E+04</totfact>
</mgrwt>
</event>
<event>
 7    0  0.4784406E-002  0.4493087E+03  0.7546771E-02  0.1027928E+00
         21   -1    0    0  502  501  0.00000000000E+00  0.00000000000E+00  0.91453347730E+02  0.91453347730E+02  0.00000000000E+00 0. -1.
         21   -1    0    0  501  502 -0.00000000000E+00 -0.00000000000E+00 -0.55186150498E+03  0.55186150498E+03  0.00000000000E+00 0. -1.
      99926    2    1    2    0    0  0.11102230246E-15  0.00000000000E+00 -0.46040815725E+03  0.64331485271E+03  0.44930872288E+03 0.  0.
      99925    2    3    3    0    0 -0.98944245493E+00  0.66922846657E+02 -0.17068237644E+03  0.32071884752E+03  0.26315101961E+03 0.  0.
         25    1    3    3    0    0  0.98944245493E+00 -0.66922846657E+02 -0.28972578081E+03  0.32259600519E+03  0.12509000000E+03 0.  0.
         25    1    4    4    0    0  0.50958077632E+01 -0.21649078005E+01 -0.54988356639E+02  0.13675482276E+03  0.12509000000E+03 0.  0.
         25    1    4    4    0    0 -0.60852502181E+01  0.69087754458E+02 -0.11569401980E+03  0.18396402476E+03  0.12509000000E+03 0.  0.
<mgrwt>
<rscale>  2 0.44930872E+03</rscale>
<asrwt>0</asrwt>
<pdfrwt beam="1">  1       21 0.13449022E-01 0.44930872E+03</pdfrwt>
<pdfrwt beam="2">  1       21 0.81156101E-01 0.44930872E+03</pdfrwt>
<totfact> 0.58679259E+04</totfact>
</mgrwt>
</event>
<event>
 6    0  0.4784406E-002  0.4668740E+03  0.7546771E-02  0.1022806E+00
         21   -1    0    0  502  501  0.00000000000E+00  0.00000000000E+00  0.15708661956E+04  0.15708661956E+04  0.00000000000E+00 0.  1.
         21   -1    0    0  501  502 -0.00000000000E+00 -0.00000000000E+00 -0.34689664654E+02  0.34689664654E+02  0.00000000000E+00 0.  1.
      99926    2    1    2    0    0  0.00000000000E+00  0.00000000000E+00  0.15361765309E+04  0.16055558602E+04  0.46687395104E+03 0.  0.
         25    1    3    3    0    0 -0.12075466220E+03  0.41591859265E+02  0.55363847044E+03  0.58178572968E+03  0.12509000000E+03 0.  0.
         25    1    3    3    0    0  0.77349442255E+02 -0.26473571348E+01  0.43925053460E+03  0.46322617042E+03  0.12509000000E+03 0.  0.
         25    1    3    3    0    0  0.43405219946E+02 -0.38944502130E+02  0.54328752588E+03  0.56054396013E+03  0.12509000000E+03 0.  0.
<mgrwt>
<rscale>  2 0.46687395E+03</rscale>
<asrwt>0</asrwt>
<pdfrwt beam="1">  1       21 0.23100969E+00 0.46687395E+03</pdfrwt>
<pdfrwt beam="2">  1       21 0.51014223E-02 0.46687395E+03</pdfrwt>
<totfact> 0.19448674E+04</totfact>
</mgrwt>
</event>
<event>
 7    0  0.4784406E-002  0.4423353E+03  0.7546771E-02  0.1030033E+00
         21   -1    0    0  502  501  0.00000000000E+00  0.00000000000E+00  0.49196128566E+02  0.49196128566E+02  0.00000000000E+00 0. -1.
         21   -1    0    0  501  502 -0.00000000000E+00 -0.00000000000E+00 -0.99428829931E+03  0.99428829931E+03  0.00000000000E+00 0. -1.
      99926    2    1    2    0    0  0.00000000000E+00 -0.71054273576E-14 -0.94509217074E+03  0.10434844279E+04  0.44233532531E+03 0.  0.
      99925    2    3    3    0    0  0.53145218960E+02 -0.33642063374E+02 -0.41601898547E+03  0.49619826306E+03  0.26302987903E+03 0.  0.
         25    1    3    3    0    0 -0.53145218960E+02  0.33642063374E+02 -0.52907318527E+03  0.54728616481E+03  0.12509000000E+03 0.  0.
         25    1    4    4    0    0  0.18719618858E+02  0.15627699097E+02 -0.24304606908E+03  0.27443314105E+03  0.12509000000E+03 0.  0.
         25    1    4    4    0    0  0.34425600101E+02 -0.49269762471E+02 -0.17297291639E+03  0.22176512202E+03  0.12509000000E+03 0.  0.
<mgrwt>
<rscale>  2 0.44233533E+03</rscale>
<asrwt>0</asrwt>
<pdfrwt beam="1">  1       21 0.72347243E-02 0.44233533E+03</pdfrwt>
<pdfrwt beam="2">  1       21 0.14621888E+00 0.44233533E+03</pdfrwt>
<totfact> 0.41467543E+04</totfact>
</mgrwt>
</event>
<event>
 7    0  0.4784406E-002  0.4533483E+03  0.7546771E-02  0.1026728E+00
         21   -1    0    0  502  501  0.00000000000E+00  0.00000000000E+00  0.17452986233E+03  0.17452986233E+03  0.00000000000E+00 0. -1.
         21   -1    0    0  501  502 -0.00000000000E+00 -0.00000000000E+00 -0.29439758469E+03  0.29439758469E+03  0.00000000000E+00 0. -1.
      99926    2    1    2    0    0  0.00000000000E+00  0.35527136788E-14 -0.11986772237E+03  0.46892744702E+03  0.45334829845E+03 0.  0.
      99925    2    3    3    0    0  0.58867996439E+02  0.27053655294E+02 -0.16947949094E+03  0.31957492126E+03  0.26307316697E+03 0.  0.
         25    1    3    3    0    0 -0.58867996439E+02 -0.27053655294E+02  0.49611768574E+02  0.14935252576E+03  0.12509000000E+03 0.  0.
         25    1    4    4    0    0  0.30518244012E+02  0.28776311741E+02 -0.13034626882E+03  0.18546454440E+03  0.12509000000E+03 0.  0.
         25    1    4    4    0    0  0.28349752427E+02 -0.17226564472E+01 -0.39133222122E+02  0.13411037686E+03  0.12509000000E+03 0.  0.
<mgrwt>
<rscale>  2 0.45334830E+03</rscale>
<asrwt>0</asrwt>
<pdfrwt beam="1">  1       21 0.25666156E-01 0.45334830E+03</pdfrwt>
<pdfrwt beam="2">  1       21 0.43293762E-01 0.45334830E+03</pdfrwt>
<totfact> 0.68407529E+04</totfact>
</mgrwt>
</event>
<event>
 7    0  0.4784406E-002  0.4527113E+03  0.7546771E-02  0.1026917E+00
         21   -1    0    0  502  501  0.00000000000E+00  0.00000000000E+00  0.27664249785E+02  0.27664249785E+02  0.00000000000E+00 0.  1.
         21   -1    0    0  501  502 -0.00000000000E+00 -0.00000000000E+00 -0.18520968271E+04  0.18520968271E+04  0.00000000000E+00 0.  1.
      99926    2    1    2    0    0  0.14210854715E-13  0.00000000000E+00 -0.18244325773E+04  0.18797610769E+04  0.45271125124E+03 0.  0.
      99925    2    3    3    0    0 -0.11209367828E+03  0.91467588158E+00 -0.11508810932E+04  0.11855817490E+04  0.26174599070E+03 0.  0.
         25    1    3    3    0    0  0.11209367828E+03 -0.91467588158E+00 -0.67355148412E+03  0.69417932785E+03  0.12509000000E+03 0.  0.
         25    1    4    4    0    0 -0.72896568789E+02 -0.33670041606E+02 -0.63767405342E+03  0.65476964495E+03  0.12509000000E+03 0.  0.
         25    1    4    4    0    0 -0.39197109493E+02  0.34584717487E+02 -0.51320703977E+03  0.53081210409E+03  0.12509000000E+03 0.  0.
<mgrwt>
<rscale>  2 0.45271125E+03</rscale>
<asrwt>0</asrwt>
<pdfrwt beam="1">  1       21 0.40682702E-02 0.45271125E+03</pdfrwt>
<pdfrwt beam="2">  1       21 0.27236731E+00 0.45271125E+03</pdfrwt>
<totfact> 0.16057155E+04</totfact>
</mgrwt>
</event>
<event>
 7    0  0.4784406E-002  0.4535868E+03  0.7546771E-02  0.1026658E+00
         21   -1    0    0  502  501  0.00000000000E+00  0.00000000000E+00  0.92153485506E+03  0.92153485506E+03  0.00000000000E+00 0. -1.
         21   -1    0    0  501  502 -0.00000000000E+00 -0.00000000000E+00 -0.55814754796E+02  0.55814754796E+02  0.00000000000E+00 0. -1.
      99926    2    1    2    0    0  0.00000000000E+00  0.35527136788E-14  0.86572010026E+03  0.97734960985E+03  0.45358678099E+03 0.  0.
      99925    2    3    3    0    0  0.83989274236E+02  0.18824003210E+02  0.69961294296E+03  0.75229931083E+03  0.26284490072E+03 0.  0.
         25    1    3    3    0    0 -0.83989274236E+02 -0.18824003210E+02  0.16610715730E+03  0.22505029902E+03  0.12509000000E+03 0.  0.
         25    1    4    4    0    0  0.28910679471E+02 -0.41553856490E+01  0.43522996727E+03  0.45379040000E+03  0.12509000000E+03 0.  0.
         25    1    4    4    0    0  0.55078594765E+02  0.22979388859E+02  0.26438297569E+03  0.29850891084E+03  0.12509000000E+03 0.  0.
<mgrwt>
<rscale>  2 0.45358678E+03</rscale>
<asrwt>0</asrwt>
<pdfrwt beam="1">  1       21 0.13551982E+00 0.45358678E+03</pdfrwt>
<pdfrwt beam="2">  1       21 0.82080528E-02 0.45358678E+03</pdfrwt>
<totfact> 0.40498216E+04</totfact>
</mgrwt>
</event>
<event>
 7    0  0.4784406E-002  0.4625104E+03  0.7546771E-02  0.1024056E+00
         21   -1    0    0  502  501  0.00000000000E+00  0.00000000000E+00  0.80148651515E+02  0.80148651515E+02  0.00000000000E+00 0. -1.
         21   -1    0    0  501  502 -0.00000000000E+00 -0.00000000000E+00 -0.66724720004E+03  0.66724720004E+03  0.00000000000E+00 0. -1.
      99926    2    1    2    0    0  0.00000000000E+00  0.00000000000E+00 -0.58709854853E+03  0.74739585156E+03  0.46251038177E+03 0.  0.
      99925    2    3    3    0    0  0.18731580880E+02 -0.11252886662E+03 -0.42666091558E+03  0.51415486006E+03  0.26325285431E+03 0.  0.
         25    1    4    4    0    0  0.19391241368E+02 -0.73284363131E+02 -0.28986901492E+03  0.32468164720E+03  0.12509000000E+03 0.  0.
         25    1    4    4    0    0 -0.65966048790E+00 -0.39244503492E+02 -0.13679190066E+03  0.18947321286E+03  0.12509000000E+03 0.  0.
         25    1    3    3    0    0 -0.18731580880E+02  0.11252886662E+03 -0.16043763295E+03  0.23324099150E+03  0.12509000000E+03 0.  0.
<mgrwt>
<rscale>  2 0.46251038E+03</rscale>
<asrwt>0</asrwt>
<pdfrwt beam="1">  1       21 0.11786567E-01 0.46251038E+03</pdfrwt>
<pdfrwt beam="2">  1       21 0.98124587E-01 0.46251038E+03</pdfrwt>
<totfact> 0.47535171E+04</totfact>
</mgrwt>
</event>
<event>
 7    0  0.4784406E-002  0.4307194E+03  0.7546771E-02  0.1033633E+00
         21   -1    0    0  502  501  0.00000000000E+00  0.00000000000E+00  0.19598874942E+04  0.19598874942E+04  0.00000000000E+00 0.  1.
         21   -1    0    0  501  502 -0.00000000000E+00 -0.00000000000E+00 -0.23664518397E+02  0.23664518397E+02  0.00000000000E+00 0.  1.
      99926    2    1    2    0    0  0.00000000000E+00  0.14210854715E-13  0.19362229758E+04  0.19835520126E+04  0.43071936879E+03 0.  0.
      99925    2    3    3    0    0 -0.10658480700E+02 -0.75014574380E+02  0.14579632182E+04  0.14834313337E+04  0.26300377699E+03 0.  0.
         25    1    4    4    0    0 -0.26339809487E+02 -0.38070666877E+01  0.74802867106E+03  0.75888252065E+03  0.12509000000E+03 0.  0.
         25    1    4    4    0    0  0.15681328788E+02 -0.71207507692E+02  0.70993454714E+03  0.72454881309E+03  0.12509000000E+03 0.  0.
         25    1    3    3    0    0  0.10658480700E+02  0.75014574380E+02  0.47825975763E+03  0.50012067889E+03  0.12509000000E+03 0.  0.
<mgrwt>
<rscale>  2 0.43071937E+03</rscale>
<asrwt>0</asrwt>
<pdfrwt beam="1">  1       21 0.28821864E+00 0.43071937E+03</pdfrwt>
<pdfrwt beam="2">  1       21 0.34800776E-02 0.43071937E+03</pdfrwt>
<totfact> 0.16958335E+04</totfact>
</mgrwt>
</event>
<event>
 7    0  0.4784406E-002  0.4416282E+03  0.7546771E-02  0.1030248E+00
         21   -1    0    0  502  501  0.00000000000E+00  0.00000000000E+00  0.20334091583E+03  0.20334091583E+03  0.00000000000E+00 0.  1.
         21   -1    0    0  501  502 -0.00000000000E+00 -0.00000000000E+00 -0.23978877855E+03  0.23978877855E+03  0.00000000000E+00 0.  1.
      99926    2    1    2    0    0 -0.14210854715E-13  0.00000000000E+00 -0.36447862716E+02  0.44312969438E+03  0.44162821394E+03 0.  0.
      99925    2    3    3    0    0  0.80323415316E+02 -0.49839456304E+02  0.10430268317E+02  0.27948101665E+03  0.26280225593E+03 0.  0.
         25    1    3    3    0    0 -0.80323415316E+02  0.49839456304E+02 -0.46878131033E+02  0.16364867773E+03  0.12509000000E+03 0.  0.
         25    1    4    4    0    0  0.33008901052E+02 -0.49594489121E+01  0.39681243046E+02  0.13541156831E+03  0.12509000000E+03 0.  0.
         25    1    4    4    0    0  0.47314514265E+02 -0.44880007392E+02 -0.29250974730E+02  0.14406944834E+03  0.12509000000E+03 0.  0.
<mgrwt>
<rscale>  2 0.44162821E+03</rscale>
<asrwt>0</asrwt>
<pdfrwt beam="1">  1       21 0.29903076E-01 0.44162821E+03</pdfrwt>
<pdfrwt beam="2">  1       21 0.35263056E-01 0.44162821E+03</pdfrwt>
<totfact> 0.77353510E+04</totfact>
</mgrwt>
</event>
<event>
 7    0  0.4784406E-002  0.4134904E+03  0.7546771E-02  0.1039206E+00
         21   -1    0    0  502  501  0.00000000000E+00  0.00000000000E+00  0.90600740882E+02  0.90600740882E+02  0.00000000000E+00 0. -1.
         21   -1    0    0  501  502 -0.00000000000E+00 -0.00000000000E+00 -0.47177950760E+03  0.47177950760E+03  0.00000000000E+00 0. -1.
      99926    2    1    2    0    0  0.00000000000E+00  0.00000000000E+00 -0.38117876671E+03  0.56238024848E+03  0.41349037677E+03 0.  0.
      99925    2    3    3    0    0 -0.53376459317E+02 -0.37919973694E+02 -0.27087669141E+03  0.38321265450E+03  0.26304141463E+03 0.  0.
         25    1    3    3    0    0  0.53376459317E+02  0.37919973694E+02 -0.11030207530E+03  0.17916759397E+03  0.12509000000E+03 0.  0.
         25    1    4    4    0    0  0.83676758254E+01 -0.38891373987E+02 -0.12228071551E+03  0.17939520187E+03  0.12509000000E+03 0.  0.
         25    1    4    4    0    0 -0.61744135142E+02  0.97140029370E+00 -0.14859597591E+03  0.20381745264E+03  0.12509000000E+03 0.  0.
<mgrwt>
<rscale>  2 0.41349038E+03</rscale>
<asrwt>0</asrwt>
<pdfrwt beam="1">  1       21 0.13323639E-01 0.41349038E+03</pdfrwt>
<pdfrwt beam="2">  1       21 0.69379338E-01 0.41349038E+03</pdfrwt>
<totfact> 0.85998463E+04</totfact>
</mgrwt>
</event>
<event>
 7    0  0.4784406E-002  0.4534899E+03  0.7546771E-02  0.1026686E+00
         21   -1    0    0  502  501  0.00000000000E+00  0.00000000000E+00  0.18818018270E+03  0.18818018270E+03  0.00000000000E+00 0.  1.
         21   -1    0    0  501  502 -0.00000000000E+00 -0.00000000000E+00 -0.27321302446E+03  0.27321302446E+03  0.00000000000E+00 0.  1.
      99926    2    1    2    0    0  0.71054273576E-14  0.00000000000E+00 -0.85032841759E+02  0.46139320715E+03  0.45348991988E+03 0.  0.
      99925    2    3    3    0    0  0.48491334153E+02  0.99946410060E+02 -0.45388891056E+02  0.28946343865E+03  0.26341646970E+03 0.  0.
         25    1    3    3    0    0 -0.48491334153E+02 -0.99946410060E+02 -0.39643950703E+02  0.17192976851E+03  0.12509000000E+03 0.  0.
         25    1    4    4    0    0 -0.84693424180E+01  0.31263753611E+02  0.10874469958E+00  0.12921560268E+03  0.12509000000E+03 0.  0.
         25    1    4    4    0    0  0.56960676571E+02  0.68682656448E+02 -0.45497635755E+02  0.16024783597E+03  0.12509000000E+03 0.  0.
<mgrwt>
<rscale>  2 0.45348992E+03</rscale>
<asrwt>0</asrwt>
<pdfrwt beam="1">  1       21 0.27673557E-01 0.45348992E+03</pdfrwt>
<pdfrwt beam="2">  1       21 0.40178385E-01 0.45348992E+03</pdfrwt>
<totfact> 0.68902136E+04</totfact>
</mgrwt>
</event>
<event>
 7    0  0.4784406E-002  0.4518929E+03  0.7546771E-02  0.1027159E+00
         21   -1    0    0  502  501  0.00000000000E+00  0.00000000000E+00  0.53270533924E+03  0.53270533924E+03  0.00000000000E+00 0. -1.
         21   -1    0    0  501  502 -0.00000000000E+00 -0.00000000000E+00 -0.95834966598E+02  0.95834966598E+02  0.00000000000E+00 0. -1.
      99926    2    1    2    0    0  0.71054273576E-14  0.44408920985E-15  0.43687037265E+03  0.62854030584E+03  0.45189290056E+03 0.  0.
      99925    2    3    3    0    0 -0.59813289464E+02  0.33041419309E+01  0.40440851549E+03  0.48609794129E+03  0.26297607148E+03 0.  0.
         25    1    4    4    0    0  0.11590607309E+02 -0.52820679402E+00  0.18828449996E+03  0.22634748111E+03  0.12509000000E+03 0.  0.
         25    1    3    3    0    0  0.59813289464E+02 -0.33041419309E+01  0.32461857152E+02  0.14244236456E+03  0.12509000000E+03 0.  0.
         25    1    4    4    0    0 -0.71403896773E+02  0.38323487249E+01  0.21612401553E+03  0.25975046018E+03  0.12509000000E+03 0.  0.
<mgrwt>
<rscale>  2 0.45189290E+03</rscale>
<asrwt>0</asrwt>
<pdfrwt beam="1">  1       21 0.78339019E-01 0.45189290E+03</pdfrwt>
<pdfrwt beam="2">  1       21 0.14093378E-01 0.45189290E+03</pdfrwt>
<totfact> 0.58373727E+04</totfact>
</mgrwt>
</event>
<event>
 7    0  0.4784406E-002  0.4533006E+03  0.7546771E-02  0.1026742E+00
         21   -1    0    0  502  501  0.00000000000E+00  0.00000000000E+00  0.16357200842E+03  0.16357200842E+03  0.00000000000E+00 0. -1.
         21   -1    0    0  501  502 -0.00000000000E+00 -0.00000000000E+00 -0.31405348359E+03  0.31405348359E+03  0.00000000000E+00 0. -1.
      99926    2    1    2    0    0  0.00000000000E+00  0.00000000000E+00 -0.15048147516E+03  0.47762549201E+03  0.45330060253E+03 0.  0.
      99925    2    3    3    0    0  0.34993280135E+02  0.16096688780E+02 -0.20510402858E+03  0.33579896246E+03  0.26307726547E+03 0.  0.
         25    1    4    4    0    0  0.23092036448E+02  0.26185660906E+02 -0.14946881215E+03  0.19800849702E+03  0.12509000000E+03 0.  0.
         25    1    3    3    0    0 -0.34993280135E+02 -0.16096688780E+02  0.54622553412E+02  0.14182652955E+03  0.12509000000E+03 0.  0.
         25    1    4    4    0    0  0.11901243687E+02 -0.10088972127E+02 -0.55635216424E+02  0.13779046544E+03  0.12509000000E+03 0.  0.
<mgrwt>
<rscale>  2 0.45330060E+03</rscale>
<asrwt>0</asrwt>
<pdfrwt beam="1">  1       21 0.24054708E-01 0.45330060E+03</pdfrwt>
<pdfrwt beam="2">  1       21 0.46184335E-01 0.45330060E+03</pdfrwt>
<totfact> 0.67783021E+04</totfact>
</mgrwt>
</event>
<event>
 7    0  0.4784406E-002  0.4567229E+03  0.7546771E-02  0.1025736E+00
         21   -1    0    0  502  501  0.00000000000E+00  0.00000000000E+00  0.10328041918E+03  0.10328041918E+03  0.00000000000E+00 0. -1.
         21   -1    0    0  501  502 -0.00000000000E+00 -0.00000000000E+00 -0.50492581910E+03  0.50492581910E+03  0.00000000000E+00 0. -1.
      99926    2    1    2    0    0 -0.88817841970E-15  0.35527136788E-14 -0.40164539992E+03  0.60820623828E+03  0.45672289302E+03 0.  0.
      99925    2    3    3    0    0 -0.55598442690E+01  0.16179808250E+02 -0.10171219635E+03  0.28278323238E+03  0.26330265393E+03 0.  0.
         25    1    4    4    0    0  0.16917055135E+02  0.40174845349E+02 -0.69050396255E+02  0.14938430398E+03  0.12509000000E+03 0.  0.
         25    1    4    4    0    0 -0.22476899404E+02 -0.23995037100E+02 -0.32661800090E+02  0.13339892840E+03  0.12509000000E+03 0.  0.
         25    1    3    3    0    0  0.55598442690E+01 -0.16179808250E+02 -0.29993320357E+03  0.32542300590E+03  0.12509000000E+03 0.  0.
<mgrwt>
<rscale>  2 0.45672289E+03</rscale>
<asrwt>0</asrwt>
<pdfrwt beam="1">  1       21 0.15188297E-01 0.45672289E+03</pdfrwt>
<pdfrwt beam="2">  1       21 0.74253797E-01 0.45672289E+03</pdfrwt>
<totfact> 0.57390896E+04</totfact>
</mgrwt>
</event>
<event>
 7    0  0.4784406E-002  0.4556716E+03  0.7546771E-02  0.1026044E+00
         21   -1    0    0  502  501  0.00000000000E+00  0.00000000000E+00  0.10148917615E+03  0.10148917615E+03  0.00000000000E+00 0.  1.
         21   -1    0    0  501  502 -0.00000000000E+00 -0.00000000000E+00 -0.51147465217E+03  0.51147465217E+03  0.00000000000E+00 0.  1.
      99926    2    1    2    0    0  0.00000000000E+00  0.00000000000E+00 -0.40998547602E+03  0.61296382833E+03  0.45567155309E+03 0.  0.
      99925    2    3    3    0    0 -0.96911656063E+02 -0.58179817867E+02 -0.23843392556E+03  0.37243482207E+03  0.26283112362E+03 0.  0.
         25    1    4    4    0    0 -0.50611134846E+02 -0.66053912963E+02 -0.14935991965E+03  0.21185018312E+03  0.12509000000E+03 0.  0.
         25    1    4    4    0    0 -0.46300521217E+02  0.78740950955E+01 -0.89074005908E+02  0.16058463895E+03  0.12509000000E+03 0.  0.
         25    1    3    3    0    0  0.96911656063E+02  0.58179817867E+02 -0.17155155046E+03  0.24052900626E+03  0.12509000000E+03 0.  0.
<mgrwt>
<rscale>  2 0.45567155E+03</rscale>
<asrwt>0</asrwt>
<pdfrwt beam="1">  1       21 0.14924879E-01 0.45567155E+03</pdfrwt>
<pdfrwt beam="2">  1       21 0.75216861E-01 0.45567155E+03</pdfrwt>
<totfact> 0.57581300E+04</totfact>
</mgrwt>
</event>
<event>
 7    0  0.4784406E-002  0.4389890E+03  0.7546771E-02  0.1031057E+00
         21   -1    0    0  502  501  0.00000000000E+00  0.00000000000E+00  0.12704139602E+04  0.12704139602E+04  0.00000000000E+00 0. -1.
         21   -1    0    0  501  502 -0.00000000000E+00 -0.00000000000E+00 -0.37922946000E+02  0.37922946000E+02  0.00000000000E+00 0. -1.
      99926    2    1    2    0    0  0.12212453271E-14  0.00000000000E+00  0.12324910142E+04  0.13083369062E+04  0.43898902041E+03 0.  0.
      99925    2    3    3    0    0 -0.87893333414E+00  0.85865889822E+02  0.65691805346E+03  0.71310126816E+03  0.26381502256E+03 0.  0.
         25    1    4    4    0    0 -0.29770915405E+02  0.52628645041E+02  0.40881502758E+03  0.43177924517E+03  0.12509000000E+03 0.  0.
         25    1    3    3    0    0  0.87893333414E+00 -0.85865889822E+02  0.57557296070E+03  0.59523563801E+03  0.12509000000E+03 0.  0.
         25    1    4    4    0    0  0.28891982071E+02  0.33237244781E+02  0.24810302588E+03  0.28132202299E+03  0.12509000000E+03 0.  0.
<mgrwt>
<rscale>  2 0.43898902E+03</rscale>
<asrwt>0</asrwt>
<pdfrwt beam="1">  1       21 0.18682555E+00 0.43898902E+03</pdfrwt>
<pdfrwt beam="2">  1       21 0.55769047E-02 0.43898902E+03</pdfrwt>
<totfact> 0.32767463E+04</totfact>
</mgrwt>
</event>
<event>
 7    0  0.4784406E-002  0.4561732E+03  0.7546771E-02  0.1025897E+00
         21   -1    0    0  502  501  0.00000000000E+00  0.00000000000E+00  0.34921482955E+03  0.34921482955E+03  0.00000000000E+00 0.  1.
         21   -1    0    0  501  502 -0.00000000000E+00 -0.00000000000E+00 -0.14897277836E+03  0.14897277836E+03  0.00000000000E+00 0.  1.
      99926    2    1    2    0    0 -0.71054273576E-14  0.00000000000E+00  0.20024205119E+03  0.49818760790E+03  0.45617322763E+03 0.  0.
      99925    2    3    3    0    0  0.57727552191E+02 -0.66466203752E+02  0.45818794640E+02  0.28083012175E+03  0.26270890509E+03 0.  0.
         25    1    4    4    0    0  0.60754588385E+02 -0.10362493911E+02  0.14758903158E+02  0.14022779543E+03  0.12509000000E+03 0.  0.
         25    1    4    4    0    0 -0.30270361936E+01 -0.56103709841E+02  0.31059891482E+02  0.14060232631E+03  0.12509000000E+03 0.  0.
         25    1    3    3    0    0 -0.57727552191E+02  0.66466203752E+02  0.15442325655E+03  0.21735748615E+03  0.12509000000E+03 0.  0.
<mgrwt>
<rscale>  2 0.45617323E+03</rscale>
<asrwt>0</asrwt>
<pdfrwt beam="1">  1       21 0.51355122E-01 0.45617323E+03</pdfrwt>
<pdfrwt beam="2">  1       21 0.21907762E-01 0.45617323E+03</pdfrwt>
<totfact> 0.64792624E+04</totfact>
</mgrwt>
</event>
<event>
 7    0  0.4784406E-002  0.4529006E+03  0.7546771E-02  0.1026861E+00
         21   -1    0    0  502  501  0.00000000000E+00  0.00000000000E+00  0.48274732016E+03  0.48274732016E+03  0.00000000000E+00 0. -1.
         21   -1    0    0  501  502 -0.00000000000E+00 -0.00000000000E+00 -0.10622480883E+03  0.10622480883E+03  0.00000000000E+00 0. -1.
      99926    2    1    2    0    0  0.00000000000E+00  0.71054273576E-14  0.37652251132E+03  0.58897212899E+03  0.45290061514E+03 0.  0.
      99925    2    3    3    0    0  0.39288073836E+02 -0.60898554747E+02  0.34614963658E+03  0.44124871739E+03  0.26387245588E+03 0.  0.
         25    1    4    4    0    0  0.57759685561E+02 -0.42757848993E+02  0.15939406135E+03  0.21498462694E+03  0.12509000000E+03 0.  0.
         25    1    3    3    0    0 -0.39288073836E+02  0.60898554747E+02  0.30372874737E+02  0.14772341160E+03  0.12509000000E+03 0.  0.
         25    1    4    4    0    0 -0.18471611725E+02 -0.18140705754E+02  0.18675557523E+03  0.22626409044E+03  0.12509000000E+03 0.  0.
<mgrwt>
<rscale>  2 0.45290062E+03</rscale>
<asrwt>0</asrwt>
<pdfrwt beam="1">  1       21 0.70992252E-01 0.45290062E+03</pdfrwt>
<pdfrwt beam="2">  1       21 0.15621296E-01 0.45290062E+03</pdfrwt>
<totfact> 0.60357533E+04</totfact>
</mgrwt>
</event>
<event>
 7    0  0.4784406E-002  0.4603302E+03  0.7546771E-02  0.1024685E+00
         21   -1    0    0  502  501  0.00000000000E+00  0.00000000000E+00  0.11948026356E+04  0.11948026356E+04  0.00000000000E+00 0.  1.
         21   -1    0    0  501  502 -0.00000000000E+00 -0.00000000000E+00 -0.44338689135E+02  0.44338689135E+02  0.00000000000E+00 0.  1.
      99926    2    1    2    0    0  0.14210854715E-13 -0.71054273576E-14  0.11504639465E+04  0.12391413247E+04  0.46033024075E+03 0.  0.
      99925    2    3    3    0    0  0.10151432365E+03 -0.59566090254E+02  0.70671466855E+03  0.76331130596E+03  0.26333486296E+03 0.  0.
         25    1    3    3    0    0 -0.10151432365E+03  0.59566090254E+02  0.44374927793E+03  0.47583001878E+03  0.12509000000E+03 0.  0.
         25    1    4    4    0    0  0.64850423758E+02 -0.13336851922E+02  0.44970234936E+03  0.47144794008E+03  0.12509000000E+03 0.  0.
         25    1    4    4    0    0  0.36663899893E+02 -0.46229238332E+02  0.25701231919E+03  0.29186336589E+03  0.12509000000E+03 0.  0.
<mgrwt>
<rscale>  2 0.46033024E+03</rscale>
<asrwt>0</asrwt>
<pdfrwt beam="1">  1       21 0.17570625E+00 0.46033024E+03</pdfrwt>
<pdfrwt beam="2">  1       21 0.65203962E-02 0.46033024E+03</pdfrwt>
<totfact> 0.29683604E+04</totfact>
</mgrwt>
</event>
<event>
 7    0  0.4784406E-002  0.4591960E+03  0.7546771E-02  0.1025015E+00
         21   -1    0    0  502  501  0.00000000000E+00  0.00000000000E+00  0.35744074134E+03  0.35744074134E+03  0.00000000000E+00 0. -1.
         21   -1    0    0  501  502 -0.00000000000E+00 -0.00000000000E+00 -0.14747967486E+03  0.14747967486E+03  0.00000000000E+00 0. -1.
      99926    2    1    2    0    0  0.00000000000E+00  0.44408920985E-15  0.20996106648E+03  0.50492041619E+03  0.45919601180E+03 0.  0.
      99925    2    3    3    0    0 -0.21339121614E+02 -0.28410392376E+01  0.25815246606E+03  0.36915094721E+03  0.26299486018E+03 0.  0.
         25    1    4    4    0    0  0.27299426679E+02 -0.14329632532E+02  0.11688962372E+03  0.17395772273E+03  0.12509000000E+03 0.  0.
         25    1    3    3    0    0  0.21339121614E+02  0.28410392376E+01 -0.48191399575E+02  0.13576946898E+03  0.12509000000E+03 0.  0.
         25    1    4    4    0    0 -0.48638548293E+02  0.11488593294E+02  0.14126284234E+03  0.19519322448E+03  0.12509000000E+03 0.  0.
<mgrwt>
<rscale>  2 0.45919601E+03</rscale>
<asrwt>0</asrwt>
<pdfrwt beam="1">  1       21 0.52564815E-01 0.45919601E+03</pdfrwt>
<pdfrwt beam="2">  1       21 0.21688188E-01 0.45919601E+03</pdfrwt>
<totfact> 0.62808208E+04</totfact>
</mgrwt>
</event>
<event>
 7    0  0.4784406E-002  0.4551664E+03  0.7546771E-02  0.1026192E+00
         21   -1    0    0  502  501  0.00000000000E+00  0.00000000000E+00  0.51869254578E+02  0.51869254578E+02  0.00000000000E+00 0. -1.
         21   -1    0    0  501  502 -0.00000000000E+00 -0.00000000000E+00 -0.99855132307E+03  0.99855132307E+03  0.00000000000E+00 0. -1.
      99926    2    1    2    0    0  0.00000000000E+00  0.00000000000E+00 -0.94668206849E+03  0.10504205777E+04  0.45516639940E+03 0.  0.
      99925    2    3    3    0    0 -0.90697640902E+02 -0.66816762514E+02 -0.56818968178E+03  0.63618086841E+03  0.26305140376E+03 0.  0.
         25    1    3    3    0    0  0.90697640902E+02  0.66816762514E+02 -0.37849238671E+03  0.41423970924E+03  0.12509000000E+03 0.  0.
         25    1    4    4    0    0 -0.66197850636E+02 -0.70905925519E+02 -0.29939248411E+03  0.33866380578E+03  0.12509000000E+03 0.  0.
         25    1    4    4    0    0 -0.24499790266E+02  0.40891630050E+01 -0.26879719767E+03  0.29751706262E+03  0.12509000000E+03 0.  0.
<mgrwt>
<rscale>  2 0.45516640E+03</rscale>
<asrwt>0</asrwt>
<pdfrwt beam="1">  1       21 0.76278320E-02 0.45516640E+03</pdfrwt>
<pdfrwt beam="2">  1       21 0.14684577E+00 0.45516640E+03</pdfrwt>
<totfact> 0.37213603E+04</totfact>
</mgrwt>
</event>
<event>
 7    0  0.4784406E-002  0.4516490E+03  0.7546771E-02  0.1027231E+00
         21   -1    0    0  502  501  0.00000000000E+00  0.00000000000E+00  0.12986877533E+03  0.12986877533E+03  0.00000000000E+00 0. -1.
         21   -1    0    0  501  502 -0.00000000000E+00 -0.00000000000E+00 -0.39267876122E+03  0.39267876122E+03  0.00000000000E+00 0. -1.
      99926    2    1    2    0    0  0.00000000000E+00  0.00000000000E+00 -0.26280998590E+03  0.52254753655E+03  0.45164902221E+03 0.  0.
      99925    2    3    3    0    0 -0.53748866673E+02 -0.66030063000E+02 -0.24632796090E+03  0.37033690901E+03  0.26310274032E+03 0.  0.
         25    1    4    4    0    0 -0.78194912656E+01 -0.60781158516E+02 -0.15668176756E+03  0.20964774757E+03  0.12509000000E+03 0.  0.
         25    1    3    3    0    0  0.53748866673E+02  0.66030063000E+02 -0.16482024995E+02  0.15221062754E+03  0.12509000000E+03 0.  0.
         25    1    4    4    0    0 -0.45929375407E+02 -0.52489044836E+01 -0.89646193338E+02  0.16068916144E+03  0.12509000000E+03 0.  0.
<mgrwt>
<rscale>  2 0.45164902E+03</rscale>
<asrwt>0</asrwt>
<pdfrwt beam="1">  1       21 0.19098349E-01 0.45164902E+03</pdfrwt>
<pdfrwt beam="2">  1       21 0.57746876E-01 0.45164902E+03</pdfrwt>
<totfact> 0.65434853E+04</totfact>
</mgrwt>
</event>
<event>
 7    0  0.4784406E-002  0.4633185E+03  0.7546771E-02  0.1023823E+00
         21   -1    0    0  502  501  0.00000000000E+00  0.00000000000E+00  0.17841087112E+03  0.17841087112E+03  0.00000000000E+00 0. -1.
         21   -1    0    0  501  502 -0.00000000000E+00 -0.00000000000E+00 -0.30080011544E+03  0.30080011544E+03  0.00000000000E+00 0. -1.
      99926    2    1    2    0    0 -0.71054273576E-14  0.00000000000E+00 -0.12238924433E+03  0.47921098656E+03  0.46331851087E+03 0.  0.
      99925    2    3    3    0    0  0.56267785881E+02 -0.66695608953E+02 -0.16286685242E+03  0.32141265691E+03  0.26299451786E+03 0.  0.
         25    1    4    4    0    0  0.22981265283E+01 -0.35178820602E+00 -0.82795258696E+02  0.15002655799E+03  0.12509000000E+03 0.  0.
         25    1    3    3    0    0 -0.56267785881E+02  0.66695608953E+02  0.40477608095E+02  0.15779832964E+03  0.12509000000E+03 0.  0.
         25    1    4    4    0    0  0.53969659353E+02 -0.66343820747E+02 -0.80071593724E+02  0.17138609892E+03  0.12509000000E+03 0.  0.
<mgrwt>
<rscale>  2 0.46331851E+03</rscale>
<asrwt>0</asrwt>
<pdfrwt beam="1">  1       21 0.26236893E-01 0.46331851E+03</pdfrwt>
<pdfrwt beam="2">  1       21 0.44235311E-01 0.46331851E+03</pdfrwt>
<totfact> 0.62527048E+04</totfact>
</mgrwt>
</event>
<event>
 7    0  0.4784406E-002  0.4565076E+03  0.7546771E-02  0.1025799E+00
         21   -1    0    0  502  501  0.00000000000E+00  0.00000000000E+00  0.13992657758E+03  0.13992657758E+03  0.00000000000E+00 0.  1.
         21   -1    0    0  501  502 -0.00000000000E+00 -0.00000000000E+00 -0.37233667004E+03  0.37233667004E+03  0.00000000000E+00 0.  1.
      99926    2    1    2    0    0 -0.17763568394E-14  0.00000000000E+00 -0.23241009246E+03  0.51226324762E+03  0.45650759444E+03 0.  0.
      99925    2    3    3    0    0 -0.71950594888E+01 -0.62264208651E+02 -0.25358627410E+03  0.37075515835E+03  0.26310604035E+03 0.  0.
         25    1    4    4    0    0 -0.15334406250E+02 -0.47924534509E+01 -0.16160563267E+03  0.20499268337E+03  0.12509000000E+03 0.  0.
         25    1    3    3    0    0  0.71950594888E+01  0.62264208651E+02  0.21176181645E+02  0.14150808927E+03  0.12509000000E+03 0.  0.
         25    1    4    4    0    0  0.81393467615E+01 -0.57471755200E+02 -0.91980641439E+02  0.16576247498E+03  0.12509000000E+03 0.  0.
<mgrwt>
<rscale>  2 0.45650759E+03</rscale>
<asrwt>0</asrwt>
<pdfrwt beam="1">  1       21 0.20577439E-01 0.45650759E+03</pdfrwt>
<pdfrwt beam="2">  1       21 0.54755391E-01 0.45650759E+03</pdfrwt>
<totfact> 0.63652467E+04</totfact>
</mgrwt>
</event>
<event>
 7    0  0.4784406E-002  0.4487286E+03  0.7546771E-02  0.1028102E+00
         21   -1    0    0  502  501  0.00000000000E+00  0.00000000000E+00  0.17649754448E+03  0.17649754448E+03  0.00000000000E+00 0. -1.
         21   -1    0    0  501  502 -0.00000000000E+00 -0.00000000000E+00 -0.28521271569E+03  0.28521271569E+03  0.00000000000E+00 0. -1.
      99926    2    1    2    0    0  0.00000000000E+00 -0.71054273576E-14 -0.10871517121E+03  0.46171026017E+03  0.44872862166E+03 0.  0.
      99925    2    3    3    0    0 -0.42608468439E+02  0.32810915224E+02 -0.16423094210E+03  0.31466759066E+03  0.26296739823E+03 0.  0.
         25    1    4    4    0    0 -0.44238830210E+02  0.18693963796E+02 -0.12382861960E+03  0.18244882437E+03  0.12509000000E+03 0.  0.
         25    1    3    3    0    0  0.42608468439E+02 -0.32810915224E+02  0.55515770881E+02  0.14704266951E+03  0.12509000000E+03 0.  0.
         25    1    4    4    0    0  0.16303617712E+01  0.14116951429E+02 -0.40402322495E+02  0.13221876629E+03  0.12509000000E+03 0.  0.
<mgrwt>
<rscale>  2 0.44872862E+03</rscale>
<asrwt>0</asrwt>
<pdfrwt beam="1">  1       21 0.25955522E-01 0.44872862E+03</pdfrwt>
<pdfrwt beam="2">  1       21 0.41943046E-01 0.44872862E+03</pdfrwt>
<totfact> 0.71551086E+04</totfact>
</mgrwt>
</event>
<event>
 7    0  0.4784406E-002  0.4511356E+03  0.7546771E-02  0.1027384E+00
         21   -1    0    0  502  501  0.00000000000E+00  0.00000000000E+00  0.10121999096E+03  0.10121999096E+03  0.00000000000E+00 0.  1.
         21   -1    0    0  501  502 -0.00000000000E+00 -0.00000000000E+00 -0.50267579765E+03  0.50267579765E+03  0.00000000000E+00 0.  1.
      99926    2    1    2    0    0  0.00000000000E+00  0.00000000000E+00 -0.40145580670E+03  0.60389578861E+03  0.45113563235E+03 0.  0.
      99925    2    3    3    0    0  0.30656804709E+02 -0.52665376662E+02 -0.37492525158E+03  0.46224530316E+03  0.26341657967E+03 0.  0.
         25    1    3    3    0    0 -0.30656804709E+02  0.52665376662E+02 -0.26530555111E+02  0.14165048545E+03  0.12509000000E+03 0.  0.
         25    1    4    4    0    0  0.10334867997E+02 -0.58928894901E+02 -0.23892083824E+03  0.27624282651E+03  0.12509000000E+03 0.  0.
         25    1    4    4    0    0  0.20321936712E+02  0.62635182383E+01 -0.13600441335E+03  0.18600247666E+03  0.12509000000E+03 0.  0.
<mgrwt>
<rscale>  2 0.45113563E+03</rscale>
<asrwt>0</asrwt>
<pdfrwt beam="1">  1       21 0.14885293E-01 0.45113563E+03</pdfrwt>
<pdfrwt beam="2">  1       21 0.73922911E-01 0.45113563E+03</pdfrwt>
<totfact> 0.60257774E+04</totfact>
</mgrwt>
</event>
<event>
 7    0  0.4784406E-002  0.4671489E+03  0.7546771E-02  0.1022728E+00
         21   -1    0    0  502  501  0.00000000000E+00  0.00000000000E+00  0.12733931675E+03  0.12733931675E+03  0.00000000000E+00 0. -1.
         21   -1    0    0  501  502 -0.00000000000E+00 -0.00000000000E+00 -0.42843822625E+03  0.42843822625E+03  0.00000000000E+00 0. -1.
      99926    2    1    2    0    0  0.00000000000E+00  0.88817841970E-15 -0.30109890950E+03  0.55577754299E+03  0.46714893128E+03 0.  0.
      99925    2    3    3    0    0  0.83415096943E+02 -0.21564589778E+01 -0.77963705471E+02  0.28670588694E+03  0.26298136345E+03 0.  0.
         25    1    3    3    0    0 -0.83415096943E+02  0.21564589778E+01 -0.22313520403E+03  0.26907165605E+03  0.12509000000E+03 0.  0.
         25    1    4    4    0    0  0.11793946619E+02  0.22276357919E+02 -0.18765311622E+02  0.12897665804E+03  0.12509000000E+03 0.  0.
         25    1    4    4    0    0  0.71621150325E+02 -0.24432816897E+02 -0.59198393849E+02  0.15772922890E+03  0.12509000000E+03 0.  0.
<mgrwt>
<rscale>  2 0.46714893E+03</rscale>
<asrwt>0</asrwt>
<pdfrwt beam="1">  1       21 0.18726370E-01 0.46714893E+03</pdfrwt>
<pdfrwt beam="2">  1       21 0.63005621E-01 0.46714893E+03</pdfrwt>
<totfact> 0.55915350E+04</totfact>
</mgrwt>
</event>
<event>
 7    0  0.4784406E-002  0.4450041E+03  0.7546771E-02  0.1029222E+00
         21   -1    0    0  502  501  0.00000000000E+00  0.00000000000E+00  0.37811763669E+03  0.37811763669E+03  0.00000000000E+00 0. -1.
         21   -1    0    0  501  502 -0.00000000000E+00 -0.00000000000E+00 -0.13093059298E+03  0.13093059298E+03  0.00000000000E+00 0. -1.
      99926    2    1    2    0    0  0.00000000000E+00  0.00000000000E+00  0.24718704371E+03  0.50904822967E+03  0.44500411858E+03 0.  0.
      99925    2    3    3    0    0 -0.14542906396E+02 -0.20418062859E+02  0.42317501288E+02  0.26770318429E+03  0.26314602514E+03 0.  0.
         25    1    4    4    0    0  0.75668952987E+01 -0.18139560208E+02 -0.16507794716E+02  0.12769618998E+03  0.12509000000E+03 0.  0.
         25    1    3    3    0    0  0.14542906396E+02  0.20418062859E+02  0.20486954242E+03  0.24134504538E+03  0.12509000000E+03 0.  0.
         25    1    4    4    0    0 -0.22109801694E+02 -0.22785026517E+01  0.58825296005E+02  0.14000699431E+03  0.12509000000E+03 0.  0.
<mgrwt>
<rscale>  2 0.44500412E+03</rscale>
<asrwt>0</asrwt>
<pdfrwt beam="1">  1       21 0.55605534E-01 0.44500412E+03</pdfrwt>
<pdfrwt beam="2">  1       21 0.19254499E-01 0.44500412E+03</pdfrwt>
<totfact> 0.70031662E+04</totfact>
</mgrwt>
</event>
<event>
 7    0  0.4784406E-002  0.4567644E+03  0.7546771E-02  0.1025724E+00
         21   -1    0    0  502  501  0.00000000000E+00  0.00000000000E+00  0.19267587687E+03  0.19267587687E+03  0.00000000000E+00 0.  1.
         21   -1    0    0  501  502 -0.00000000000E+00 -0.00000000000E+00 -0.27070552335E+03  0.27070552335E+03  0.00000000000E+00 0.  1.
      99926    2    1    2    0    0  0.00000000000E+00  0.00000000000E+00 -0.78029646478E+02  0.46338140022E+03  0.45676437727E+03 0.  0.
      99925    2    3    3    0    0  0.30479967595E+02  0.12833163098E+02  0.62526725063E+02  0.27233868201E+03  0.26299248635E+03 0.  0.
         25    1    3    3    0    0 -0.30479967595E+02 -0.12833163098E+02 -0.14055637154E+03  0.19104271821E+03  0.12509000000E+03 0.  0.
         25    1    4    4    0    0  0.48900593386E+00  0.82247904452E+01 -0.79078995988E+01  0.12561022761E+03  0.12509000000E+03 0.  0.
         25    1    4    4    0    0  0.29990961661E+02  0.46083726524E+01  0.70434624662E+02  0.14672845440E+03  0.12509000000E+03 0.  0.
<mgrwt>
<rscale>  2 0.45676438E+03</rscale>
<asrwt>0</asrwt>
<pdfrwt beam="1">  1       21 0.28334688E-01 0.45676438E+03</pdfrwt>
<pdfrwt beam="2">  1       21 0.39809635E-01 0.45676438E+03</pdfrwt>
<totfact> 0.66985949E+04</totfact>
</mgrwt>
</event>
<event>
 6    0  0.4784406E-002  0.4448172E+03  0.7546771E-02  0.1029279E+00
         21   -1    0    0  502  501  0.00000000000E+00  0.00000000000E+00  0.44727609930E+03  0.44727609930E+03  0.00000000000E+00 0.  1.
         21   -1    0    0  501  502 -0.00000000000E+00 -0.00000000000E+00 -0.11059294596E+03  0.11059294596E+03  0.00000000000E+00 0.  1.
      99926    2    1    2    0    0  0.00000000000E+00  0.35527136788E-14  0.33668315334E+03  0.55786904526E+03  0.44481718258E+03 0.  0.
         25    1    3    3    0    0 -0.16394125043E+02 -0.20821054356E+02  0.19994793731E+03  0.23733724818E+03  0.12509000000E+03 0.  0.
         25    1    3    3    0    0 -0.16110911536E+02  0.34306239543E+02  0.13868462510E+03  0.19057128031E+03  0.12509000000E+03 0.  0.
         25    1    3    3    0    0  0.32505036579E+02 -0.13485185187E+02 -0.19494090667E+01  0.12996051677E+03  0.12509000000E+03 0.  0.
<mgrwt>
<rscale>  2 0.44481718E+03</rscale>
<asrwt>0</asrwt>
<pdfrwt beam="1">  1       21 0.65775896E-01 0.44481718E+03</pdfrwt>
<pdfrwt beam="2">  1       21 0.16263669E-01 0.44481718E+03</pdfrwt>
<totfact> 0.66550154E+04</totfact>
</mgrwt>
</event>
<event>
 7    0  0.4784406E-002  0.4550475E+03  0.7546771E-02  0.1026227E+00
         21   -1    0    0  502  501  0.00000000000E+00  0.00000000000E+00  0.24527377261E+03  0.24527377261E+03  0.00000000000E+00 0. -1.
         21   -1    0    0  501  502 -0.00000000000E+00 -0.00000000000E+00 -0.21105827968E+03  0.21105827968E+03  0.00000000000E+00 0. -1.
      99926    2    1    2    0    0  0.00000000000E+00  0.35527136788E-14  0.34215492922E+02  0.45633205229E+03  0.45504751619E+03 0.  0.
      99925    2    3    3    0    0  0.79830636578E+02 -0.28448655510E+02  0.96883162331E+02  0.29275637737E+03  0.26294047389E+03 0.  0.
         25    1    4    4    0    0  0.63300968066E+02 -0.34310698000E+02  0.22236963601E+02  0.14603502048E+03  0.12509000000E+03 0.  0.
         25    1    3    3    0    0 -0.79830636578E+02  0.28448655510E+02 -0.62667669409E+02  0.16357567492E+03  0.12509000000E+03 0.  0.
         25    1    4    4    0    0  0.16529668513E+02  0.58620424899E+01  0.74646198731E+02  0.14672135689E+03  0.12509000000E+03 0.  0.
<mgrwt>
<rscale>  2 0.45504752E+03</rscale>
<asrwt>0</asrwt>
<pdfrwt beam="1">  1       21 0.36069672E-01 0.45504752E+03</pdfrwt>
<pdfrwt beam="2">  1       21 0.31037982E-01 0.45504752E+03</pdfrwt>
<totfact> 0.68422409E+04</totfact>
</mgrwt>
</event>
<event>
 7    0  0.4784406E-002  0.4559721E+03  0.7546771E-02  0.1025956E+00
         21   -1    0    0  502  501  0.00000000000E+00  0.00000000000E+00  0.64981937089E+03  0.64981937089E+03  0.00000000000E+00 0.  1.
         21   -1    0    0  501  502 -0.00000000000E+00 -0.00000000000E+00 -0.79987839264E+02  0.79987839264E+02  0.00000000000E+00 0.  1.
      99926    2    1    2    0    0 -0.26645352591E-14  0.00000000000E+00  0.56983153162E+03  0.72980721015E+03  0.45597213682E+03 0.  0.
      99925    2    3    3    0    0  0.69102936474E+01 -0.11387111081E+03  0.36009287610E+03  0.46026650125E+03  0.26299047647E+03 0.  0.
         25    1    4    4    0    0  0.24700548293E+02 -0.33637547116E+02  0.21231876219E+03  0.24993672507E+03  0.12509000000E+03 0.  0.
         25    1    4    4    0    0 -0.17790254646E+02 -0.80233563695E+02  0.14777411391E+03  0.21032977617E+03  0.12509000000E+03 0.  0.
         25    1    3    3    0    0 -0.69102936474E+01  0.11387111081E+03  0.20973865552E+03  0.26954070890E+03  0.12509000000E+03 0.  0.
<mgrwt>
<rscale>  2 0.45597214E+03</rscale>
<asrwt>0</asrwt>
<pdfrwt beam="1">  1       21 0.95561669E-01 0.45597214E+03</pdfrwt>
<pdfrwt beam="2">  1       21 0.11762918E-01 0.45597214E+03</pdfrwt>
<totfact> 0.50923951E+04</totfact>
</mgrwt>
</event>
<event>
 7    0  0.4784406E-002  0.4479311E+03  0.7546771E-02  0.1028341E+00
         21   -1    0    0  502  501  0.00000000000E+00  0.00000000000E+00  0.19591324726E+03  0.19591324726E+03  0.00000000000E+00 0. -1.
         21   -1    0    0  501  502 -0.00000000000E+00 -0.00000000000E+00 -0.25603460367E+03  0.25603460367E+03  0.00000000000E+00 0. -1.
      99926    2    1    2    0    0  0.00000000000E+00  0.00000000000E+00 -0.60121356409E+02  0.45194785093E+03  0.44793111352E+03 0.  0.
      99925    2    3    3    0    0 -0.28128550181E+02 -0.26420850921E+00  0.65454145232E+02  0.27248197714E+03  0.26300360758E+03 0.  0.
         25    1    4    4    0    0 -0.30161837065E+02  0.14712731558E+02  0.68362883310E+02  0.14644860122E+03  0.12509000000E+03 0.  0.
         25    1    3    3    0    0  0.28128550181E+02  0.26420850921E+00 -0.12557550164E+03  0.17946587379E+03  0.12509000000E+03 0.  0.
         25    1    4    4    0    0  0.20332868840E+01 -0.14976940068E+02 -0.29087380780E+01  0.12603337592E+03  0.12509000000E+03 0.  0.
<mgrwt>
<rscale>  2 0.44793111E+03</rscale>
<asrwt>0</asrwt>
<pdfrwt beam="1">  1       21 0.28810772E-01 0.44793111E+03</pdfrwt>
<pdfrwt beam="2">  1       21 0.37652148E-01 0.44793111E+03</pdfrwt>
<totfact> 0.72789006E+04</totfact>
</mgrwt>
</event>
<event>
 7    0  0.4784406E-002  0.4542404E+03  0.7546771E-02  0.1026465E+00
         21   -1    0    0  502  501  0.00000000000E+00  0.00000000000E+00  0.27856888227E+03  0.27856888227E+03  0.00000000000E+00 0. -1.
         21   -1    0    0  501  502 -0.00000000000E+00 -0.00000000000E+00 -0.18517351622E+03  0.18517351622E+03  0.00000000000E+00 0. -1.
      99926    2    1    2    0    0  0.00000000000E+00 -0.14210854715E-13  0.93395366055E+02  0.46374239849E+03  0.45424037442E+03 0.  0.
      99925    2    3    3    0    0 -0.45873432295E+02  0.94898348164E+02  0.18800022228E+02  0.28395907975E+03  0.26300047503E+03 0.  0.
         25    1    4    4    0    0 -0.43854356867E+01  0.95444697435E+01  0.18886091609E+02  0.12694298525E+03  0.12509000000E+03 0.  0.
         25    1    4    4    0    0 -0.41487996608E+02  0.85353878421E+02 -0.86069381671E-01  0.15701609450E+03  0.12509000000E+03 0.  0.
         25    1    3    3    0    0  0.45873432295E+02 -0.94898348164E+02  0.74595343828E+02  0.17978331874E+03  0.12509000000E+03 0.  0.
<mgrwt>
<rscale>  2 0.45424037E+03</rscale>
<asrwt>0</asrwt>
<pdfrwt beam="1">  1       21 0.40966012E-01 0.45424037E+03</pdfrwt>
<pdfrwt beam="2">  1       21 0.27231399E-01 0.45424037E+03</pdfrwt>
<totfact> 0.68315314E+04</totfact>
</mgrwt>
</event>
<event>
 7    0  0.4784406E-002  0.4512444E+03  0.7546771E-02  0.1027352E+00
         21   -1    0    0  502  501  0.00000000000E+00  0.00000000000E+00  0.30261673011E+03  0.30261673011E+03  0.00000000000E+00 0. -1.
         21   -1    0    0  501  502 -0.00000000000E+00 -0.00000000000E+00 -0.16821734614E+03  0.16821734614E+03  0.00000000000E+00 0. -1.
      99926    2    1    2    0    0  0.00000000000E+00  0.00000000000E+00  0.13439938398E+03  0.47083407625E+03  0.45124442705E+03 0.  0.
      99925    2    3    3    0    0 -0.28014632436E+02 -0.10493378738E+03  0.69254951972E+02  0.29282501894E+03  0.26297209734E+03 0.  0.
         25    1    4    4    0    0 -0.33106937254E+02 -0.84096471419E+02  0.15866689173E+02  0.15513718357E+03  0.12509000000E+03 0.  0.
         25    1    4    4    0    0  0.50923048184E+01 -0.20837315961E+02  0.53388262800E+02  0.13768783537E+03  0.12509000000E+03 0.  0.
         25    1    3    3    0    0  0.28014632436E+02  0.10493378738E+03  0.65144432003E+02  0.17800905731E+03  0.12509000000E+03 0.  0.
<mgrwt>
<rscale>  2 0.45124443E+03</rscale>
<asrwt>0</asrwt>
<pdfrwt beam="1">  1       21 0.44502460E-01 0.45124443E+03</pdfrwt>
<pdfrwt beam="2">  1       21 0.24737845E-01 0.45124443E+03</pdfrwt>
<totfact> 0.69419423E+04</totfact>
</mgrwt>
</event>
<event>
 7    0  0.4784406E-002  0.4537878E+03  0.7546771E-02  0.1026598E+00
         21   -1    0    0  502  501  0.00000000000E+00  0.00000000000E+00  0.55867703477E+03  0.55867703477E+03  0.00000000000E+00 0. -1.
         21   -1    0    0  501  502 -0.00000000000E+00 -0.00000000000E+00 -0.92147755059E+02  0.92147755059E+02  0.00000000000E+00 0. -1.
      99926    2    1    2    0    0 -0.71054273576E-14  0.00000000000E+00  0.46652927971E+03  0.65082478983E+03  0.45378776782E+03 0.  0.
      99925    2    3    3    0    0 -0.52050963409E+02 -0.88949325380E+02  0.35687311604E+03  0.45513813313E+03  0.26300382887E+03 0.  0.
         25    1    3    3    0    0  0.52050963409E+02  0.88949325380E+02  0.10965616367E+03  0.19568665669E+03  0.12509000000E+03 0.  0.
         25    1    4    4    0    0 -0.40914039484E+02 -0.11480029909E+02  0.20073427567E+03  0.24030711026E+03  0.12509000000E+03 0.  0.
         25    1    4    4    0    0 -0.11136923925E+02 -0.77469295471E+02  0.15613884037E+03  0.21483102287E+03  0.12509000000E+03 0.  0.
<mgrwt>
<rscale>  2 0.45378777E+03</rscale>
<asrwt>0</asrwt>
<pdfrwt beam="1">  1       21 0.82158386E-01 0.45378777E+03</pdfrwt>
<pdfrwt beam="2">  1       21 0.13551141E-01 0.45378777E+03</pdfrwt>
<totfact> 0.56189409E+04</totfact>
</mgrwt>
</event>
<event>
 7    0  0.4784406E-002  0.4310162E+03  0.7546771E-02  0.1033539E+00
         21   -1    0    0  502  501  0.00000000000E+00  0.00000000000E+00  0.58862484151E+02  0.58862484151E+02  0.00000000000E+00 0.  1.
         21   -1    0    0  501  502 -0.00000000000E+00 -0.00000000000E+00 -0.78902101595E+03  0.78902101595E+03  0.00000000000E+00 0.  1.
      99926    2    1    2    0    0 -0.42188474936E-14  0.00000000000E+00 -0.73015853180E+03  0.84788350010E+03  0.43101618089E+03 0.  0.
      99925    2    3    3    0    0  0.19112091993E+01  0.50522255078E+02 -0.61187111620E+03  0.66845225486E+03  0.26435960965E+03 0.  0.
         25    1    3    3    0    0 -0.19112091993E+01 -0.50522255078E+02 -0.11828741560E+03  0.17943124524E+03  0.12509000000E+03 0.  0.
         25    1    4    4    0    0  0.32978527951E+02  0.38989396494E+01 -0.25044473123E+03  0.28190930552E+03  0.12509000000E+03 0.  0.
         25    1    4    4    0    0 -0.31067318752E+02  0.46623315428E+02 -0.36142638497E+03  0.38654294935E+03  0.12509000000E+03 0.  0.
<mgrwt>
<rscale>  2 0.43101618E+03</rscale>
<asrwt>0</asrwt>
<pdfrwt beam="1">  1       21 0.86562485E-02 0.43101618E+03</pdfrwt>
<pdfrwt beam="2">  1       21 0.11603249E+00 0.43101618E+03</pdfrwt>
<totfact> 0.55209804E+04</totfact>
</mgrwt>
</event>
<event>
 7    0  0.4784406E-002  0.4535292E+03  0.7546771E-02  0.1026675E+00
         21   -1    0    0  502  501  0.00000000000E+00  0.00000000000E+00  0.65366939030E+02  0.65366939030E+02  0.00000000000E+00 0.  1.
         21   -1    0    0  501  502 -0.00000000000E+00 -0.00000000000E+00 -0.78666973449E+03  0.78666973449E+03  0.00000000000E+00 0.  1.
      99926    2    1    2    0    0  0.00000000000E+00 -0.14210854715E-13 -0.72130279546E+03  0.85203667352E+03  0.45352923862E+03 0.  0.
      99925    2    3    3    0    0 -0.13596740640E+02 -0.96578769330E+02 -0.55712206896E+03  0.62374924703E+03  0.26299390373E+03 0.  0.
         25    1    4    4    0    0  0.23933501706E+02 -0.61305910891E+02 -0.33613168235E+03  0.36464125273E+03  0.12509000000E+03 0.  0.
         25    1    3    3    0    0  0.13596740640E+02  0.96578769330E+02 -0.16418072649E+03  0.22828742649E+03  0.12509000000E+03 0.  0.
         25    1    4    4    0    0 -0.37530242346E+02 -0.35272858439E+02 -0.22099038661E+03  0.25910799430E+03  0.12509000000E+03 0.  0.
<mgrwt>
<rscale>  2 0.45352924E+03</rscale>
<asrwt>0</asrwt>
<pdfrwt beam="1">  1       21 0.96127860E-02 0.45352924E+03</pdfrwt>
<pdfrwt beam="2">  1       21 0.11568671E+00 0.45352924E+03</pdfrwt>
<totfact> 0.45875392E+04</totfact>
</mgrwt>
</event>
<event>
 7    0  0.4784406E-002  0.4536497E+03  0.7546771E-02  0.1026639E+00
         21   -1    0    0  502  501  0.00000000000E+00  0.00000000000E+00  0.69262882689E+03  0.69262882689E+03  0.00000000000E+00 0.  1.
         21   -1    0    0  501  502 -0.00000000000E+00 -0.00000000000E+00 -0.74281496957E+02  0.74281496957E+02  0.00000000000E+00 0.  1.
      99926    2    1    2    0    0  0.00000000000E+00  0.88817841970E-15  0.61834732993E+03  0.76691032384E+03  0.45364967143E+03 0.  0.
      99925    2    3    3    0    0 -0.60610031303E+02 -0.44805746032E+01  0.23048959113E+03  0.35487296499E+03  0.26289868432E+03 0.  0.
         25    1    4    4    0    0  0.24834536180E+01 -0.26823265324E+02  0.11014629723E+03  0.16883533397E+03  0.12509000000E+03 0.  0.
         25    1    3    3    0    0  0.60610031303E+02  0.44805746032E+01  0.38785773880E+03  0.41203735885E+03  0.12509000000E+03 0.  0.
         25    1    4    4    0    0 -0.63093484921E+02  0.22342690721E+02  0.12034329390E+03  0.18603763102E+03  0.12509000000E+03 0.  0.
<mgrwt>
<rscale>  2 0.45364967E+03</rscale>
<asrwt>0</asrwt>
<pdfrwt beam="1">  1       21 0.10185718E+00 0.45364967E+03</pdfrwt>
<pdfrwt beam="2">  1       21 0.10923750E-01 0.45364967E+03</pdfrwt>
<totfact> 0.49934067E+04</totfact>
</mgrwt>
</event>
<event>
 7    0  0.4784406E-002  0.4539820E+03  0.7546771E-02  0.1026541E+00
         21   -1    0    0  502  501  0.00000000000E+00  0.00000000000E+00  0.91956544187E+03  0.91956544187E+03  0.00000000000E+00 0.  1.
         21   -1    0    0  501  502 -0.00000000000E+00 -0.00000000000E+00 -0.56031798025E+02  0.56031798025E+02  0.00000000000E+00 0.  1.
      99926    2    1    2    0    0  0.00000000000E+00  0.28310687128E-14  0.86353364384E+03  0.97559723989E+03  0.45398196047E+03 0.  0.
      99925    2    3    3    0    0  0.99756929608E+02 -0.32022894682E+00  0.65538833034E+03  0.71306433303E+03  0.26263155169E+03 0.  0.
         25    1    3    3    0    0 -0.99756929608E+02  0.32022894682E+00  0.20814531350E+03  0.26253290686E+03  0.12509000000E+03 0.  0.
         25    1    4    4    0    0  0.48436445344E+02  0.36889403259E+02  0.28859336727E+03  0.32037564989E+03  0.12509000000E+03 0.  0.
         25    1    4    4    0    0  0.51320484264E+02 -0.37209632206E+02  0.36679496307E+03  0.39268868314E+03  0.12509000000E+03 0.  0.
<mgrwt>
<rscale>  2 0.45398196E+03</rscale>
<asrwt>0</asrwt>
<pdfrwt beam="1">  1       21 0.13523020E+00 0.45398196E+03</pdfrwt>
<pdfrwt beam="2">  1       21 0.82399709E-02 0.45398196E+03</pdfrwt>
<totfact> 0.40442168E+04</totfact>
</mgrwt>
</event>
<event>
 7    0  0.4784406E-002  0.4547899E+03  0.7546771E-02  0.1026303E+00
         21   -1    0    0  502  501  0.00000000000E+00  0.00000000000E+00  0.62502844038E+02  0.62502844038E+02  0.00000000000E+00 0.  1.
         21   -1    0    0  501  502 -0.00000000000E+00 -0.00000000000E+00 -0.82729782495E+03  0.82729782495E+03  0.00000000000E+00 0.  1.
      99926    2    1    2    0    0  0.35527136788E-14  0.00000000000E+00 -0.76479498091E+03  0.88980066899E+03  0.45478991601E+03 0.  0.
      99925    2    3    3    0    0 -0.24088662805E+01  0.11028654205E+03 -0.42962447233E+03  0.51542692269E+03  0.26252390637E+03 0.  0.
         25    1    4    4    0    0 -0.36147014343E+02  0.65190836959E+02 -0.19096142047E+03  0.24014625560E+03  0.12509000000E+03 0.  0.
         25    1    3    3    0    0  0.24088662805E+01 -0.11028654205E+03 -0.33517050858E+03  0.37437374630E+03  0.12509000000E+03 0.  0.
         25    1    4    4    0    0  0.33738148062E+02  0.45095705090E+02 -0.23866305186E+03  0.27528066709E+03  0.12509000000E+03 0.  0.
<mgrwt>
<rscale>  2 0.45478992E+03</rscale>
<asrwt>0</asrwt>
<pdfrwt beam="1">  1       21 0.91915951E-02 0.45478992E+03</pdfrwt>
<pdfrwt beam="2">  1       21 0.12166144E+00 0.45478992E+03</pdfrwt>
<totfact> 0.43749542E+04</totfact>
</mgrwt>
</event>
<event>
 7    0  0.4784406E-002  0.4526779E+03  0.7546771E-02  0.1026926E+00
         21   -1    0    0  502  501  0.00000000000E+00  0.00000000000E+00  0.67457230003E+02  0.67457230003E+02  0.00000000000E+00 0.  1.
         21   -1    0    0  501  502 -0.00000000000E+00 -0.00000000000E+00 -0.75943394292E+03  0.75943394292E+03  0.00000000000E+00 0.  1.
      99926    2    1    2    0    0  0.00000000000E+00  0.00000000000E+00 -0.69197671292E+03  0.82689117293E+03  0.45267785526E+03 0.  0.
      99925    2    3    3    0    0  0.10464922275E+03  0.33450362706E+02 -0.40635766922E+03  0.49629151653E+03  0.26288462766E+03 0.  0.
         25    1    4    4    0    0  0.53146405687E+02  0.42647921612E+02 -0.15375281224E+03  0.20959680586E+03  0.12509000000E+03 0.  0.
         25    1    3    3    0    0 -0.10464922275E+03 -0.33450362706E+02 -0.28561904370E+03  0.33059965640E+03  0.12509000000E+03 0.  0.
         25    1    4    4    0    0  0.51502817060E+02 -0.91975589057E+01 -0.25260485698E+03  0.28669471067E+03  0.12509000000E+03 0.  0.
<mgrwt>
<rscale>  2 0.45267786E+03</rscale>
<asrwt>0</asrwt>
<pdfrwt beam="1">  1       21 0.99201809E-02 0.45267786E+03</pdfrwt>
<pdfrwt beam="2">  1       21 0.11168146E+00 0.45267786E+03</pdfrwt>
<totfact> 0.47348280E+04</totfact>
</mgrwt>
</event>
<event>
 7    0  0.4784406E-002  0.4313925E+03  0.7546771E-02  0.1033421E+00
         21   -1    0    0  502  501  0.00000000000E+00  0.00000000000E+00  0.11488450386E+04  0.11488450386E+04  0.00000000000E+00 0.  1.
         21   -1    0    0  501  502 -0.00000000000E+00 -0.00000000000E+00 -0.40497086468E+02  0.40497086468E+02  0.00000000000E+00 0.  1.
      99926    2    1    2    0    0  0.00000000000E+00  0.00000000000E+00  0.11083479521E+04  0.11893421250E+04  0.43139252134E+03 0.  0.
      99925    2    3    3    0    0  0.59985655822E+02 -0.64023208931E+02  0.75695600551E+03  0.80616976380E+03  0.26311602689E+03 0.  0.
         25    1    4    4    0    0  0.46770630004E+02 -0.36713799714E+02  0.28342179421E+03  0.31545335068E+03  0.12509000000E+03 0.  0.
         25    1    4    4    0    0  0.13215025818E+02 -0.27309409217E+02  0.47353421130E+03  0.49071641313E+03  0.12509000000E+03 0.  0.
         25    1    3    3    0    0 -0.59985655822E+02  0.64023208931E+02  0.35139194660E+03  0.38317236125E+03  0.12509000000E+03 0.  0.
<mgrwt>
<rscale>  2 0.43139252E+03</rscale>
<asrwt>0</asrwt>
<pdfrwt beam="1">  1       21 0.16894778E+00 0.43139252E+03</pdfrwt>
<pdfrwt beam="2">  1       21 0.59554546E-02 0.43139252E+03</pdfrwt>
<totfact> 0.39227923E+04</totfact>
</mgrwt>
</event>
<event>
 7    0  0.4784406E-002  0.4540176E+03  0.7546771E-02  0.1026531E+00
         21   -1    0    0  502  501  0.00000000000E+00  0.00000000000E+00  0.18308595483E+04  0.18308595483E+04  0.00000000000E+00 0.  1.
         21   -1    0    0  501  502 -0.00000000000E+00 -0.00000000000E+00 -0.28146890492E+02  0.28146890492E+02  0.00000000000E+00 0.  1.
      99926    2    1    2    0    0  0.00000000000E+00 -0.14210854715E-13  0.18027126578E+04  0.18590064388E+04  0.45401763496E+03 0.  0.
      99925    2    3    3    0    0  0.40488795698E+02 -0.95066830018E+02  0.95556459984E+03  0.99646114435E+03  0.26297160110E+03 0.  0.
         25    1    4    4    0    0  0.85220915607E+00 -0.29648720502E+02  0.56080381138E+03  0.57535049826E+03  0.12509000000E+03 0.  0.
         25    1    4    4    0    0  0.39636586542E+02 -0.65418109517E+02  0.39476078846E+03  0.42111064609E+03  0.12509000000E+03 0.  0.
         25    1    3    3    0    0 -0.40488795698E+02  0.95066830018E+02  0.84714805800E+03  0.86254529448E+03  0.12509000000E+03 0.  0.
<mgrwt>
<rscale>  2 0.45401763E+03</rscale>
<asrwt>0</asrwt>
<pdfrwt beam="1">  1       21 0.26924397E+00 0.45401763E+03</pdfrwt>
<pdfrwt beam="2">  1       21 0.41392499E-02 0.45401763E+03</pdfrwt>
<totfact> 0.16275211E+04</totfact>
</mgrwt>
</event>
<event>
 7    0  0.4784406E-002  0.4466794E+03  0.7546771E-02  0.1028717E+00
         21   -1    0    0  502  501  0.00000000000E+00  0.00000000000E+00  0.78662858453E+03  0.78662858453E+03  0.00000000000E+00 0. -1.
         21   -1    0    0  501  502 -0.00000000000E+00 -0.00000000000E+00 -0.63410650088E+02  0.63410650088E+02  0.00000000000E+00 0. -1.
      99926    2    1    2    0    0  0.00000000000E+00 -0.14210854715E-13  0.72321793445E+03  0.85003923462E+03  0.44667943728E+03 0.  0.
      99925    2    3    3    0    0  0.48474236498E+02  0.90672567742E+02  0.50021325088E+03  0.57444920734E+03  0.26307285932E+03 0.  0.
         25    1    4    4    0    0  0.39944772527E+02  0.77123003813E+01  0.25168820677E+03  0.28398860181E+03  0.12509000000E+03 0.  0.
         25    1    4    4    0    0  0.85294639702E+01  0.82960267361E+02  0.24852504411E+03  0.29046060553E+03  0.12509000000E+03 0.  0.
         25    1    3    3    0    0 -0.48474236498E+02 -0.90672567742E+02  0.22300468357E+03  0.27559002728E+03  0.12509000000E+03 0.  0.
<mgrwt>
<rscale>  2 0.44667944E+03</rscale>
<asrwt>0</asrwt>
<pdfrwt beam="1">  1       21 0.11568067E+00 0.44667944E+03</pdfrwt>
<pdfrwt beam="2">  1       21 0.93250961E-02 0.44667944E+03</pdfrwt>
<totfact> 0.48528355E+04</totfact>
</mgrwt>
</event>
<event>
 7    0  0.4784406E-002  0.4580150E+03  0.7546771E-02  0.1025358E+00
         21   -1    0    0  502  501  0.00000000000E+00  0.00000000000E+00  0.39325249764E+03  0.39325249764E+03  0.00000000000E+00 0. -1.
         21   -1    0    0  501  502 -0.00000000000E+00 -0.00000000000E+00 -0.13336072964E+03  0.13336072964E+03  0.00000000000E+00 0. -1.
      99926    2    1    2    0    0  0.14210854715E-13  0.71054273576E-14  0.25989176800E+03  0.52661322728E+03  0.45801502167E+03 0.  0.
      99925    2    3    3    0    0  0.73995036194E+02  0.62121430920E+02  0.23689748883E+03  0.36689290129E+03  0.26297460569E+03 0.  0.
         25    1    4    4    0    0  0.64558037051E+02  0.10729562504E+02  0.14936786726E+03  0.20552647404E+03  0.12509000000E+03 0.  0.
         25    1    3    3    0    0 -0.73995036194E+02 -0.62121430920E+02  0.22994279166E+02  0.15972032599E+03  0.12509000000E+03 0.  0.
         25    1    4    4    0    0  0.94369991433E+01  0.51391868416E+02  0.87529621571E+02  0.16136642725E+03  0.12509000000E+03 0.  0.
<mgrwt>
<rscale>  2 0.45801502E+03</rscale>
<asrwt>0</asrwt>
<pdfrwt beam="1">  1       21 0.57831249E-01 0.45801502E+03</pdfrwt>
<pdfrwt beam="2">  1       21 0.19611872E-01 0.45801502E+03</pdfrwt>
<totfact> 0.61942587E+04</totfact>
</mgrwt>
</event>
<event>
 7    0  0.4784406E-002  0.4505908E+03  0.7546771E-02  0.1027546E+00
         21   -1    0    0  502  501  0.00000000000E+00  0.00000000000E+00  0.85470741041E+02  0.85470741041E+02  0.00000000000E+00 0.  1.
         21   -1    0    0  501  502 -0.00000000000E+00 -0.00000000000E+00 -0.59386423605E+03  0.59386423605E+03  0.00000000000E+00 0.  1.
      99926    2    1    2    0    0  0.00000000000E+00 -0.71054273576E-14 -0.50839349501E+03  0.67933497709E+03  0.45059079588E+03 0.  0.
      99925    2    3    3    0    0  0.61344743036E+02  0.33722872224E+02 -0.19815879018E+03  0.33758435194E+03  0.26418909694E+03 0.  0.
         25    1    4    4    0    0  0.45735718575E+02  0.57417671658E+02 -0.10546337139E+03  0.17932812322E+03  0.12509000000E+03 0.  0.
         25    1    3    3    0    0 -0.61344743036E+02 -0.33722872224E+02 -0.31023470483E+03  0.34175062515E+03  0.12509000000E+03 0.  0.
         25    1    4    4    0    0  0.15609024461E+02 -0.23694799434E+02 -0.92695418783E+02  0.15825622872E+03  0.12509000000E+03 0.  0.
<mgrwt>
<rscale>  2 0.45059080E+03</rscale>
<asrwt>0</asrwt>
<pdfrwt beam="1">  1       21 0.12569227E-01 0.45059080E+03</pdfrwt>
<pdfrwt beam="2">  1       21 0.87332975E-01 0.45059080E+03</pdfrwt>
<totfact> 0.55957439E+04</totfact>
</mgrwt>
</event>
<event>
 7    0  0.4784406E-002  0.4530145E+03  0.7546771E-02  0.1026827E+00
         21   -1    0    0  502  501  0.00000000000E+00  0.00000000000E+00  0.35364616212E+03  0.35364616212E+03  0.00000000000E+00 0. -1.
         21   -1    0    0  501  502 -0.00000000000E+00 -0.00000000000E+00 -0.14507589826E+03  0.14507589826E+03  0.00000000000E+00 0. -1.
      99926    2    1    2    0    0  0.00000000000E+00  0.14210854715E-13  0.20857026386E+03  0.49872206037E+03  0.45301450147E+03 0.  0.
      99925    2    3    3    0    0  0.56728089430E+02  0.94319297832E+02  0.11378525305E+03  0.30702982671E+03  0.26307037956E+03 0.  0.
         25    1    4    4    0    0  0.75177757608E+01  0.80922878416E+02  0.47476612804E+02  0.15654573155E+03  0.12509000000E+03 0.  0.
         25    1    4    4    0    0  0.49210313669E+02  0.13396419416E+02  0.66308640244E+02  0.15048409516E+03  0.12509000000E+03 0.  0.
         25    1    3    3    0    0 -0.56728089430E+02 -0.94319297832E+02  0.94785010807E+02  0.19169223367E+03  0.12509000000E+03 0.  0.
<mgrwt>
<rscale>  2 0.45301450E+03</rscale>
<asrwt>0</asrwt>
<pdfrwt beam="1">  1       21 0.52006788E-01 0.45301450E+03</pdfrwt>
<pdfrwt beam="2">  1       21 0.21334691E-01 0.45301450E+03</pdfrwt>
<totfact> 0.66400924E+04</totfact>
</mgrwt>
</event>
<event>
 7    0  0.4784406E-002  0.4526483E+03  0.7546771E-02  0.1026935E+00
         21   -1    0    0  502  501  0.00000000000E+00  0.00000000000E+00  0.14883394882E+04  0.14883394882E+04  0.00000000000E+00 0. -1.
         21   -1    0    0  501  502 -0.00000000000E+00 -0.00000000000E+00 -0.34415947952E+02  0.34415947952E+02  0.00000000000E+00 0. -1.
      99926    2    1    2    0    0  0.88817841970E-15  0.71054273576E-14  0.14539235403E+04  0.15227554362E+04  0.45264827123E+03 0.  0.
      99925    2    3    3    0    0 -0.77455534089E+01 -0.37569575169E+02  0.56654173610E+03  0.62577971685E+03  0.26298146077E+03 0.  0.
         25    1    4    4    0    0  0.10943069818E+02 -0.48693156274E+01  0.19541183366E+03  0.23232897763E+03  0.12509000000E+03 0.  0.
         25    1    4    4    0    0 -0.18688623227E+02 -0.32700259541E+02  0.37112990244E+03  0.39345073922E+03  0.12509000000E+03 0.  0.
         25    1    3    3    0    0  0.77455534089E+01  0.37569575169E+02  0.88738180416E+03  0.89697571931E+03  0.12509000000E+03 0.  0.
<mgrwt>
<rscale>  2 0.45264827E+03</rscale>
<asrwt>0</asrwt>
<pdfrwt beam="1">  1       21 0.21887341E+00 0.45264827E+03</pdfrwt>
<pdfrwt beam="2">  1       21 0.50611698E-02 0.45264827E+03</pdfrwt>
<totfact> 0.23656047E+04</totfact>
</mgrwt>
</event>
<event>
 7    0  0.4784406E-002  0.4543203E+03  0.7546771E-02  0.1026441E+00
         21   -1    0    0  502  501  0.00000000000E+00  0.00000000000E+00  0.21257240473E+04  0.21257240473E+04  0.00000000000E+00 0.  1.
         21   -1    0    0  501  502 -0.00000000000E+00 -0.00000000000E+00 -0.24274895835E+02  0.24274895835E+02  0.00000000000E+00 0.  1.
      99926    2    1    2    0    0  0.00000000000E+00  0.00000000000E+00  0.21014491514E+04  0.21499989431E+04  0.45432028271E+03 0.  0.
      99925    2    3    3    0    0  0.61104553287E+02  0.67049491183E+02  0.10072881015E+04  0.10449807025E+04  0.26291814038E+03 0.  0.
         25    1    4    4    0    0  0.51862047154E+02  0.84057806954E+01  0.58684641350E+03  0.60232595015E+03  0.12509000000E+03 0.  0.
         25    1    3    3    0    0 -0.61104553287E+02 -0.67049491183E+02  0.10941610500E+04  0.11050182406E+04  0.12509000000E+03 0.  0.
         25    1    4    4    0    0  0.92425061332E+01  0.58643710487E+02  0.42044168795E+03  0.44265475234E+03  0.12509000000E+03 0.  0.
<mgrwt>
<rscale>  2 0.45432028E+03</rscale>
<asrwt>0</asrwt>
<pdfrwt beam="1">  1       21 0.31260635E+00 0.45432028E+03</pdfrwt>
<pdfrwt beam="2">  1       21 0.35698391E-02 0.45432028E+03</pdfrwt>
<totfact> 0.11472213E+04</totfact>
</mgrwt>
</event>
<event>
 7    0  0.4784406E-002  0.4619602E+03  0.7546771E-02  0.1024214E+00
         21   -1    0    0  502  501  0.00000000000E+00  0.00000000000E+00  0.13268864777E+03  0.13268864777E+03  0.00000000000E+00 0. -1.
         21   -1    0    0  501  502 -0.00000000000E+00 -0.00000000000E+00 -0.40208267025E+03  0.40208267025E+03  0.00000000000E+00 0. -1.
      99926    2    1    2    0    0  0.00000000000E+00 -0.44408920985E-15 -0.26939402248E+03  0.53477131802E+03  0.46196019659E+03 0.  0.
      99925    2    3    3    0    0  0.11943474337E+03  0.82115503459E+00 -0.16348273798E+03  0.33196589279E+03  0.26307682555E+03 0.  0.
         25    1    3    3    0    0 -0.11943474337E+03 -0.82115503459E+00 -0.10591128450E+03  0.20280542523E+03  0.12509000000E+03 0.  0.
         25    1    4    4    0    0  0.18853452285E+02  0.16359754020E+02 -0.76574106998E+02  0.14877565721E+03  0.12509000000E+03 0.  0.
         25    1    4    4    0    0  0.10058129108E+03 -0.15538598985E+02 -0.86908630978E+02  0.18319023558E+03  0.12509000000E+03 0.  0.
<mgrwt>
<rscale>  2 0.46196020E+03</rscale>
<asrwt>0</asrwt>
<pdfrwt beam="1">  1       21 0.19513036E-01 0.46196020E+03</pdfrwt>
<pdfrwt beam="2">  1       21 0.59129806E-01 0.46196020E+03</pdfrwt>
<totfact> 0.59532138E+04</totfact>
</mgrwt>
</event>
<event>
 7    0  0.4784406E-002  0.4517401E+03  0.7546771E-02  0.1027204E+00
         21   -1    0    0  502  501  0.00000000000E+00  0.00000000000E+00  0.22515639863E+03  0.22515639863E+03  0.00000000000E+00 0.  1.
         21   -1    0    0  501  502 -0.00000000000E+00 -0.00000000000E+00 -0.22658593429E+03  0.22658593429E+03  0.00000000000E+00 0.  1.
      99926    2    1    2    0    0  0.71054273576E-14 -0.71054273576E-14 -0.14295356544E+01  0.45174233292E+03  0.45174007104E+03 0.  0.
      99925    2    3    3    0    0 -0.46154759494E+02  0.49480957234E+02 -0.87855116521E+02  0.28532263433E+03  0.26289134107E+03 0.  0.
         25    1    3    3    0    0  0.46154759494E+02 -0.49480957234E+02  0.86425580866E+02  0.16641969860E+03  0.12509000000E+03 0.  0.
         25    1    4    4    0    0 -0.10344754833E+02 -0.14621902131E+02 -0.43515614502E+02  0.13364853452E+03  0.12509000000E+03 0.  0.
         25    1    4    4    0    0 -0.35810004661E+02  0.64102859365E+02 -0.44339502019E+02  0.15167409981E+03  0.12509000000E+03 0.  0.
<mgrwt>
<rscale>  2 0.45174007E+03</rscale>
<asrwt>0</asrwt>
<pdfrwt beam="1">  1       21 0.33111235E-01 0.45174007E+03</pdfrwt>
<pdfrwt beam="2">  1       21 0.33321461E-01 0.45174007E+03</pdfrwt>
<totfact> 0.70603775E+04</totfact>
</mgrwt>
</event>
<event>
 7    0  0.4784406E-002  0.4406245E+03  0.7546771E-02  0.1030555E+00
         21   -1    0    0  502  501  0.00000000000E+00  0.00000000000E+00  0.34938625824E+03  0.34938625824E+03  0.00000000000E+00 0.  1.
         21   -1    0    0  501  502 -0.00000000000E+00 -0.00000000000E+00 -0.13892213421E+03  0.13892213421E+03  0.00000000000E+00 0.  1.
      99926    2    1    2    0    0 -0.71054273576E-14  0.35527136788E-14  0.21046412402E+03  0.48830839245E+03  0.44062448710E+03 0.  0.
      99925    2    3    3    0    0 -0.50071593224E+02 -0.24591201313E+02  0.22502494316E+03  0.35057162472E+03  0.26296833913E+03 0.  0.
         25    1    4    4    0    0  0.27804080690E+01  0.16924747708E+02  0.11720896950E+03  0.17227776521E+03  0.12509000000E+03 0.  0.
         25    1    3    3    0    0  0.50071593224E+02  0.24591201313E+02 -0.14560819135E+02  0.13773676773E+03  0.12509000000E+03 0.  0.
         25    1    4    4    0    0 -0.52852001293E+02 -0.41515949021E+02  0.10781597365E+03  0.17829385951E+03  0.12509000000E+03 0.  0.
<mgrwt>
<rscale>  2 0.44062449E+03</rscale>
<asrwt>0</asrwt>
<pdfrwt beam="1">  1       21 0.51380332E-01 0.44062449E+03</pdfrwt>
<pdfrwt beam="2">  1       21 0.20429726E-01 0.44062449E+03</pdfrwt>
<totfact> 0.74214528E+04</totfact>
</mgrwt>
</event>
<event>
 7    0  0.4784406E-002  0.4533727E+03  0.7546771E-02  0.1026721E+00
         21   -1    0    0  502  501  0.00000000000E+00  0.00000000000E+00  0.86135073779E+02  0.86135073779E+02  0.00000000000E+00 0. -1.
         21   -1    0    0  501  502 -0.00000000000E+00 -0.00000000000E+00 -0.59658279294E+03  0.59658279294E+03  0.00000000000E+00 0. -1.
      99926    2    1    2    0    0  0.00000000000E+00  0.00000000000E+00 -0.51044771916E+03  0.68271786672E+03  0.45337270710E+03 0.  0.
      99925    2    3    3    0    0 -0.54050743440E+02  0.35249930823E+02 -0.18444727755E+03  0.32762937560E+03  0.26297560547E+03 0.  0.
         25    1    3    3    0    0  0.54050743440E+02 -0.35249930823E+02 -0.32600044161E+03  0.35508849111E+03  0.12509000000E+03 0.  0.
         25    1    4    4    0    0 -0.83206085690E+01 -0.18754648123E+02 -0.78809064365E+02  0.14926267477E+03  0.12509000000E+03 0.  0.
         25    1    4    4    0    0 -0.45730134871E+02  0.54004578946E+02 -0.10563821318E+03  0.17836670083E+03  0.12509000000E+03 0.  0.
<mgrwt>
<rscale>  2 0.45337271E+03</rscale>
<asrwt>0</asrwt>
<pdfrwt beam="1">  1       21 0.12666923E-01 0.45337271E+03</pdfrwt>
<pdfrwt beam="2">  1       21 0.87732759E-01 0.45337271E+03</pdfrwt>
<totfact> 0.54547193E+04</totfact>
</mgrwt>
</event>
<event>
 7    0  0.4784406E-002  0.4627676E+03  0.7546771E-02  0.1023982E+00
         21   -1    0    0  502  501  0.00000000000E+00  0.00000000000E+00  0.16625547092E+04  0.16625547092E+04  0.00000000000E+00 0. -1.
         21   -1    0    0  501  502 -0.00000000000E+00 -0.00000000000E+00 -0.32202530703E+02  0.32202530703E+02  0.00000000000E+00 0. -1.
      99926    2    1    2    0    0  0.00000000000E+00 -0.14210854715E-13  0.16303521785E+04  0.16947572399E+04  0.46276762665E+03 0.  0.
      99925    2    3    3    0    0 -0.89139388002E+02 -0.71576329085E+02  0.88047703723E+03  0.92597298085E+03  0.26290140128E+03 0.  0.
         25    1    3    3    0    0  0.89139388002E+02  0.71576329085E+02  0.74987514128E+03  0.76878425907E+03  0.12509000000E+03 0.  0.
         25    1    4    4    0    0 -0.32125480315E+02 -0.18633519026E+02  0.52935598631E+03  0.54520135992E+03  0.12509000000E+03 0.  0.
         25    1    4    4    0    0 -0.57013907687E+02 -0.52942810059E+02  0.35112105092E+03  0.38077162093E+03  0.12509000000E+03 0.  0.
<mgrwt>
<rscale>  2 0.46276763E+03</rscale>
<asrwt>0</asrwt>
<pdfrwt beam="1">  1       21 0.24449328E+00 0.46276763E+03</pdfrwt>
<pdfrwt beam="2">  1       21 0.47356674E-02 0.46276763E+03</pdfrwt>
<totfact> 0.18245498E+04</totfact>
</mgrwt>
</event>
<event>
 7    0  0.4784406E-002  0.4564245E+03  0.7546771E-02  0.1025823E+00
         21   -1    0    0  502  501  0.00000000000E+00  0.00000000000E+00  0.71238695714E+02  0.71238695714E+02  0.00000000000E+00 0. -1.
         21   -1    0    0  501  502 -0.00000000000E+00 -0.00000000000E+00 -0.73107490995E+03  0.73107490995E+03  0.00000000000E+00 0. -1.
      99926    2    1    2    0    0  0.71054273576E-14 -0.35527136788E-14 -0.65983621424E+03  0.80231360566E+03  0.45642446496E+03 0.  0.
      99925    2    3    3    0    0  0.51435585755E+02  0.18452527132E+02 -0.23832625232E+03  0.35925122706E+03  0.26320320355E+03 0.  0.
         25    1    3    3    0    0 -0.51435585755E+02 -0.18452527132E+02 -0.42150996192E+03  0.44306237860E+03  0.12509000000E+03 0.  0.
         25    1    4    4    0    0 -0.25147396647E+00 -0.39093413005E+01 -0.74789769866E+02  0.14579562396E+03  0.12509000000E+03 0.  0.
         25    1    4    4    0    0  0.51687059722E+02  0.22361868433E+02 -0.16353648246E+03  0.21345560310E+03  0.12509000000E+03 0.  0.
<mgrwt>
<rscale>  2 0.45642446E+03</rscale>
<asrwt>0</asrwt>
<pdfrwt beam="1">  1       21 0.10476280E-01 0.45642446E+03</pdfrwt>
<pdfrwt beam="2">  1       21 0.10751101E+00 0.45642446E+03</pdfrwt>
<totfact> 0.47124107E+04</totfact>
</mgrwt>
</event>
<event>
 7    0  0.4784406E-002  0.4595329E+03  0.7546771E-02  0.1024917E+00
         21   -1    0    0  502  501  0.00000000000E+00  0.00000000000E+00  0.96787544333E+03  0.96787544333E+03  0.00000000000E+00 0.  1.
         21   -1    0    0  501  502 -0.00000000000E+00 -0.00000000000E+00 -0.54544842522E+02  0.54544842522E+02  0.00000000000E+00 0.  1.
      99926    2    1    2    0    0  0.00000000000E+00  0.00000000000E+00  0.91333060081E+03  0.10224202859E+04  0.45953286558E+03 0.  0.
      99925    2    3    3    0    0 -0.83220096660E+02  0.80013635481E+02  0.53202507055E+03  0.60484492516E+03  0.26355064304E+03 0.  0.
         25    1    4    4    0    0 -0.10975026496E+02  0.10965785394E+02  0.26603041718E+03  0.29438136935E+03  0.12509000000E+03 0.  0.
         25    1    4    4    0    0 -0.72245070164E+02  0.69047850087E+02  0.26599465337E+03  0.31046355581E+03  0.12509000000E+03 0.  0.
         25    1    3    3    0    0  0.83220096660E+02 -0.80013635481E+02  0.38130553026E+03  0.41757536069E+03  0.12509000000E+03 0.  0.
<mgrwt>
<rscale>  2 0.45953287E+03</rscale>
<asrwt>0</asrwt>
<pdfrwt beam="1">  1       21 0.14233461E+00 0.45953287E+03</pdfrwt>
<pdfrwt beam="2">  1       21 0.80213010E-02 0.45953287E+03</pdfrwt>
<totfact> 0.36979734E+04</totfact>
</mgrwt>
</event>
<event>
 7    0  0.4784406E-002  0.4477315E+03  0.7546771E-02  0.1028401E+00
         21   -1    0    0  502  501  0.00000000000E+00  0.00000000000E+00  0.13598161166E+04  0.13598161166E+04  0.00000000000E+00 0. -1.
         21   -1    0    0  501  502 -0.00000000000E+00 -0.00000000000E+00 -0.36854892254E+02  0.36854892254E+02  0.00000000000E+00 0. -1.
      99926    2    1    2    0    0  0.00000000000E+00  0.71054273576E-14  0.13229612243E+04  0.13966710088E+04  0.44773151089E+03 0.  0.
      99925    2    3    3    0    0  0.72380322355E+02  0.50333351003E+02  0.65366218095E+03  0.71009903530E+03  0.26304759233E+03 0.  0.
         25    1    4    4    0    0 -0.47505843524E+01  0.32864251296E+02  0.30839896963E+03  0.33445486935E+03  0.12509000000E+03 0.  0.
         25    1    4    4    0    0  0.77130906708E+02  0.17469099707E+02  0.34526321133E+03  0.37564416595E+03  0.12509000000E+03 0.  0.
         25    1    3    3    0    0 -0.72380322355E+02 -0.50333351003E+02  0.66929904336E+03  0.68657197353E+03  0.12509000000E+03 0.  0.
<mgrwt>
<rscale>  2 0.44773151E+03</rscale>
<asrwt>0</asrwt>
<pdfrwt beam="1">  1       21 0.19997293E+00 0.44773151E+03</pdfrwt>
<pdfrwt beam="2">  1       21 0.54198380E-02 0.44773151E+03</pdfrwt>
<totfact> 0.27967591E+04</totfact>
</mgrwt>
</event>
<event>
 7    0  0.4784406E-002  0.4318544E+03  0.7546771E-02  0.1033276E+00
         21   -1    0    0  502  501  0.00000000000E+00  0.00000000000E+00  0.48818154307E+03  0.48818154307E+03  0.00000000000E+00 0. -1.
         21   -1    0    0  501  502 -0.00000000000E+00 -0.00000000000E+00 -0.95506612220E+02  0.95506612220E+02  0.00000000000E+00 0. -1.
      99926    2    1    2    0    0  0.00000000000E+00 -0.14210854715E-13  0.39267493085E+03  0.58368815529E+03  0.43185444459E+03 0.  0.
      99925    2    3    3    0    0  0.29397393936E+02 -0.73435691553E+02  0.19399088909E+03  0.33593855567E+03  0.26261233895E+03 0.  0.
         25    1    3    3    0    0 -0.29397393936E+02  0.73435691553E+02  0.19868404176E+03  0.24774959963E+03  0.12509000000E+03 0.  0.
         25    1    4    4    0    0  0.42326674564E+02 -0.89813673320E+01  0.82805080116E+02  0.15612943903E+03  0.12509000000E+03 0.  0.
         25    1    4    4    0    0 -0.12929280627E+02 -0.64454324221E+02  0.11118580898E+03  0.17980911664E+03  0.12509000000E+03 0.  0.
<mgrwt>
<rscale>  2 0.43185444E+03</rscale>
<asrwt>0</asrwt>
<pdfrwt beam="1">  1       21 0.71791402E-01 0.43185444E+03</pdfrwt>
<pdfrwt beam="2">  1       21 0.14045090E-01 0.43185444E+03</pdfrwt>
<totfact> 0.71987094E+04</totfact>
</mgrwt>
</event>
<event>
 7    0  0.4784406E-002  0.4560775E+03  0.7546771E-02  0.1025925E+00
         21   -1    0    0  502  501  0.00000000000E+00  0.00000000000E+00  0.17131263212E+04  0.17131263212E+04  0.00000000000E+00 0.  1.
         21   -1    0    0  501  502 -0.00000000000E+00 -0.00000000000E+00 -0.30354833926E+02  0.30354833926E+02  0.00000000000E+00 0.  1.
      99926    2    1    2    0    0  0.14210854715E-13 -0.71054273576E-14  0.16827714873E+04  0.17434811551E+04  0.45607747137E+03 0.  0.
      99925    2    3    3    0    0 -0.83344705603E+02  0.54719967324E+02  0.12710919579E+04  0.13018159451E+04  0.26288661928E+03 0.  0.
         25    1    3    3    0    0  0.83344705603E+02 -0.54719967324E+02  0.41167952934E+03  0.44166521003E+03  0.12509000000E+03 0.  0.
         25    1    4    4    0    0 -0.55214187305E+02  0.66738209037E+02  0.71461166360E+03  0.73062981932E+03  0.12509000000E+03 0.  0.
         25    1    4    4    0    0 -0.28130518298E+02 -0.12018241714E+02  0.55648029434E+03  0.57118612578E+03  0.12509000000E+03 0.  0.
<mgrwt>
<rscale>  2 0.45607747E+03</rscale>
<asrwt>0</asrwt>
<pdfrwt beam="1">  1       21 0.25193028E+00 0.45607747E+03</pdfrwt>
<pdfrwt beam="2">  1       21 0.44639473E-02 0.45607747E+03</pdfrwt>
<totfact> 0.18218316E+04</totfact>
</mgrwt>
</event>
<event>
 7    0  0.4784406E-002  0.4565764E+03  0.7546771E-02  0.1025779E+00
         21   -1    0    0  502  501  0.00000000000E+00  0.00000000000E+00  0.22419225633E+03  0.22419225633E+03  0.00000000000E+00 0. -1.
         21   -1    0    0  501  502 -0.00000000000E+00 -0.00000000000E+00 -0.23245896445E+03  0.23245896445E+03  0.00000000000E+00 0. -1.
      99926    2    1    2    0    0 -0.14210854715E-13  0.00000000000E+00 -0.82667081182E+01  0.45665122078E+03  0.45657638898E+03 0.  0.
      99925    2    3    3    0    0 -0.89851370450E+02 -0.48041568911E+02 -0.57365674503E+02  0.28801113742E+03  0.26320777639E+03 0.  0.
         25    1    4    4    0    0 -0.18672792538E+02 -0.54462039795E+02 -0.36344902689E+02  0.14241926489E+03  0.12509000000E+03 0.  0.
         25    1    4    4    0    0 -0.71178577912E+02  0.64204708840E+01 -0.21020771814E+02  0.14559187253E+03  0.12509000000E+03 0.  0.
         25    1    3    3    0    0  0.89851370450E+02  0.48041568911E+02  0.49098966385E+02  0.16864008336E+03  0.12509000000E+03 0.  0.
<mgrwt>
<rscale>  2 0.45657639E+03</rscale>
<asrwt>0</asrwt>
<pdfrwt beam="1">  1       21 0.32969449E-01 0.45657639E+03</pdfrwt>
<pdfrwt beam="2">  1       21 0.34185142E-01 0.45657639E+03</pdfrwt>
<totfact> 0.67571084E+04</totfact>
</mgrwt>
</event>
<event>
 7    0  0.4784406E-002  0.4590495E+03  0.7546771E-02  0.1025057E+00
         21   -1    0    0  502  501  0.00000000000E+00  0.00000000000E+00  0.41289066513E+03  0.41289066513E+03  0.00000000000E+00 0. -1.
         21   -1    0    0  501  502 -0.00000000000E+00 -0.00000000000E+00 -0.12759213612E+03  0.12759213612E+03  0.00000000000E+00 0. -1.
      99926    2    1    2    0    0  0.00000000000E+00  0.00000000000E+00  0.28529852901E+03  0.54048280125E+03  0.45904946116E+03 0.  0.
      99925    2    3    3    0    0 -0.10683280920E+03 -0.38470633189E+02  0.21040515322E+03  0.35568625210E+03  0.26334225391E+03 0.  0.
         25    1    4    4    0    0 -0.69571445846E+02 -0.56033364873E+02  0.95933617949E+02  0.18119241488E+03  0.12509000000E+03 0.  0.
         25    1    4    4    0    0 -0.37261363350E+02  0.17562731684E+02  0.11447153527E+03  0.17449383722E+03  0.12509000000E+03 0.  0.
         25    1    3    3    0    0  0.10683280920E+03  0.38470633189E+02  0.74893375792E+02  0.18479654915E+03  0.12509000000E+03 0.  0.
<mgrwt>
<rscale>  2 0.45904946E+03</rscale>
<asrwt>0</asrwt>
<pdfrwt beam="1">  1       21 0.60719215E-01 0.45904946E+03</pdfrwt>
<pdfrwt beam="2">  1       21 0.18763550E-01 0.45904946E+03</pdfrwt>
<totfact> 0.60536241E+04</totfact>
</mgrwt>
</event>
<event>
 7    0  0.4784406E-002  0.4639269E+03  0.7546771E-02  0.1023648E+00
         21   -1    0    0  502  501  0.00000000000E+00  0.00000000000E+00  0.10884500688E+03  0.10884500688E+03  0.00000000000E+00 0.  1.
         21   -1    0    0  501  502 -0.00000000000E+00 -0.00000000000E+00 -0.49434559114E+03  0.49434559114E+03  0.00000000000E+00 0.  1.
      99926    2    1    2    0    0  0.00000000000E+00  0.00000000000E+00 -0.38550058426E+03  0.60319059802E+03  0.46392693075E+03 0.  0.
      99925    2    3    3    0    0  0.11777129753E+03 -0.13576724520E+02 -0.27453268345E+03  0.39821306491E+03  0.26296586244E+03 0.  0.
         25    1    4    4    0    0  0.34090480996E+02  0.26791059209E+02 -0.11797649494E+03  0.17732987116E+03  0.12509000000E+03 0.  0.
         25    1    3    3    0    0 -0.11777129753E+03  0.13576724520E+02 -0.11096790081E+03  0.20497753311E+03  0.12509000000E+03 0.  0.
         25    1    4    4    0    0  0.83680816534E+02 -0.40367783730E+02 -0.15655618851E+03  0.22088319375E+03  0.12509000000E+03 0.  0.
<mgrwt>
<rscale>  2 0.46392693E+03</rscale>
<asrwt>0</asrwt>
<pdfrwt beam="1">  1       21 0.16006619E-01 0.46392693E+03</pdfrwt>
<pdfrwt beam="2">  1       21 0.72697881E-01 0.46392693E+03</pdfrwt>
<totfact> 0.54533068E+04</totfact>
</mgrwt>
</event>
<event>
 7    0  0.4784406E-002  0.4624387E+03  0.7546771E-02  0.1024076E+00
         21   -1    0    0  502  501  0.00000000000E+00  0.00000000000E+00  0.65806205600E+03  0.65806205600E+03  0.00000000000E+00 0. -1.
         21   -1    0    0  501  502 -0.00000000000E+00 -0.00000000000E+00 -0.81242156400E+02  0.81242156400E+02  0.00000000000E+00 0. -1.
      99926    2    1    2    0    0  0.00000000000E+00  0.00000000000E+00  0.57681989960E+03  0.73930421240E+03  0.46243866825E+03 0.  0.
      99925    2    3    3    0    0  0.31843137778E+02  0.10331633798E+02  0.17642237325E+03  0.31848784475E+03  0.26303787824E+03 0.  0.
         25    1    4    4    0    0  0.38702234840E+02  0.10084328367E+02  0.13026870701E+03  0.18497837924E+03  0.12509000000E+03 0.  0.
         25    1    3    3    0    0 -0.31843137778E+02 -0.10331633798E+02  0.40039752634E+03  0.42081636765E+03  0.12509000000E+03 0.  0.
         25    1    4    4    0    0 -0.68590970614E+01  0.24730543133E+00  0.46153666246E+02  0.13350946551E+03  0.12509000000E+03 0.  0.
<mgrwt>
<rscale>  2 0.46243867E+03</rscale>
<asrwt>0</asrwt>
<pdfrwt beam="1">  1       21 0.96773829E-01 0.46243867E+03</pdfrwt>
<pdfrwt beam="2">  1       21 0.11947376E-01 0.46243867E+03</pdfrwt>
<totfact> 0.47953881E+04</totfact>
</mgrwt>
</event>
<event>
 7    0  0.4784406E-002  0.4290368E+03  0.7546771E-02  0.1034165E+00
         21   -1    0    0  502  501  0.00000000000E+00  0.00000000000E+00  0.35372070454E+02  0.35372070454E+02  0.00000000000E+00 0.  1.
         21   -1    0    0  501  502 -0.00000000000E+00 -0.00000000000E+00 -0.13009739261E+04  0.13009739261E+04  0.00000000000E+00 0.  1.
      99926    2    1    2    0    0 -0.35527136788E-14  0.00000000000E+00 -0.12656018556E+04  0.13363459965E+04  0.42903678804E+03 0.  0.
      99925    2    3    3    0    0 -0.29778394704E+02 -0.37200498012E+02 -0.10422488511E+04  0.10759526353E+04  0.26290830330E+03 0.  0.
         25    1    4    4    0    0  0.98042677923E+00 -0.22645433726E+01 -0.36996768468E+03  0.39055048995E+03  0.12509000000E+03 0.  0.
         25    1    3    3    0    0  0.29778394704E+02  0.37200498012E+02 -0.22335300451E+03  0.26039336122E+03  0.12509000000E+03 0.  0.
         25    1    4    4    0    0 -0.30758821483E+02 -0.34935954639E+02 -0.67228116645E+03  0.68540214537E+03  0.12509000000E+03 0.  0.
<mgrwt>
<rscale>  2 0.42903679E+03</rscale>
<asrwt>0</asrwt>
<pdfrwt beam="1">  1       21 0.52017758E-02 0.42903679E+03</pdfrwt>
<pdfrwt beam="2">  1       21 0.19131967E+00 0.42903679E+03</pdfrwt>
<totfact> 0.34541494E+04</totfact>
</mgrwt>
</event>
<event>
 7    0  0.4784406E-002  0.4499700E+03  0.7546771E-02  0.1027731E+00
         21   -1    0    0  502  501  0.00000000000E+00  0.00000000000E+00  0.15711096875E+03  0.15711096875E+03  0.00000000000E+00 0. -1.
         21   -1    0    0  501  502 -0.00000000000E+00 -0.00000000000E+00 -0.32218157670E+03  0.32218157670E+03  0.00000000000E+00 0. -1.
      99926    2    1    2    0    0  0.00000000000E+00  0.22204460493E-15 -0.16507060795E+03  0.47929254545E+03  0.44997004180E+03 0.  0.
      99925    2    3    3    0    0  0.92464240939E+02 -0.11535841027E+01 -0.44127744675E+02  0.28225028885E+03  0.26299619978E+03 0.  0.
         25    1    4    4    0    0  0.42115509028E+02  0.19686240039E+02  0.13511573374E+02  0.13413178170E+03  0.12509000000E+03 0.  0.
         25    1    4    4    0    0  0.50348731911E+02 -0.20839824142E+02 -0.57639318049E+02  0.14811850715E+03  0.12509000000E+03 0.  0.
         25    1    3    3    0    0 -0.92464240939E+02  0.11535841027E+01 -0.12094286327E+03  0.19704225660E+03  0.12509000000E+03 0.  0.
<mgrwt>
<rscale>  2 0.44997004E+03</rscale>
<asrwt>0</asrwt>
<pdfrwt beam="1">  1       21 0.23104554E-01 0.44997004E+03</pdfrwt>
<pdfrwt beam="2">  1       21 0.47379644E-01 0.44997004E+03</pdfrwt>
<totfact> 0.69484808E+04</totfact>
</mgrwt>
</event>
<event>
 7    0  0.4784406E-002  0.4626264E+03  0.7546771E-02  0.1024022E+00
         21   -1    0    0  502  501  0.00000000000E+00  0.00000000000E+00  0.19998129858E+03  0.19998129858E+03  0.00000000000E+00 0. -1.
         21   -1    0    0  501  502 -0.00000000000E+00 -0.00000000000E+00 -0.26755401589E+03  0.26755401589E+03  0.00000000000E+00 0. -1.
      99926    2    1    2    0    0 -0.14210854715E-13 -0.14210854715E-13 -0.67572717310E+02  0.46753531448E+03  0.46262641316E+03 0.  0.
      99925    2    3    3    0    0  0.89916969783E+02  0.80119118005E+02 -0.41857447233E+02  0.29199922776E+03  0.26269253624E+03 0.  0.
         25    1    4    4    0    0  0.53609985268E+02  0.68106298485E+00 -0.12848563488E+02  0.13670072440E+03  0.12509000000E+03 0.  0.
         25    1    3    3    0    0 -0.89916969783E+02 -0.80119118005E+02 -0.25715270077E+02  0.17553608672E+03  0.12509000000E+03 0.  0.
         25    1    4    4    0    0  0.36306984515E+02  0.79438055020E+02 -0.29008883745E+02  0.15529850336E+03  0.12509000000E+03 0.  0.
<mgrwt>
<rscale>  2 0.46262641E+03</rscale>
<asrwt>0</asrwt>
<pdfrwt beam="1">  1       21 0.29409015E-01 0.46262641E+03</pdfrwt>
<pdfrwt beam="2">  1       21 0.39346178E-01 0.46262641E+03</pdfrwt>
<totfact> 0.63673341E+04</totfact>
</mgrwt>
</event>
<event>
 7    0  0.4784406E-002  0.4388875E+03  0.7546771E-02  0.1031089E+00
         21   -1    0    0  502  501  0.00000000000E+00  0.00000000000E+00  0.30294008939E+02  0.30294008939E+02  0.00000000000E+00 0. -1.
         21   -1    0    0  501  502 -0.00000000000E+00 -0.00000000000E+00 -0.15896064529E+04  0.15896064529E+04  0.00000000000E+00 0. -1.
      99926    2    1    2    0    0  0.00000000000E+00  0.00000000000E+00 -0.15593124439E+04  0.16199004618E+04  0.43888746663E+03 0.  0.
      99925    2    3    3    0    0  0.62679520982E+02 -0.22419472455E+02 -0.73409434634E+03  0.78260495138E+03  0.26295369459E+03 0.  0.
         25    1    4    4    0    0  0.52800415777E+02 -0.40783092619E+02 -0.33246854988E+03  0.36143324323E+03  0.12509000000E+03 0.  0.
         25    1    3    3    0    0 -0.62679520982E+02  0.22419472455E+02 -0.82521809758E+03  0.83729551042E+03  0.12509000000E+03 0.  0.
         25    1    4    4    0    0  0.98791052052E+01  0.18363620164E+02 -0.40162579645E+03  0.42117170815E+03  0.12509000000E+03 0.  0.
<mgrwt>
<rscale>  2 0.43888747E+03</rscale>
<asrwt>0</asrwt>
<pdfrwt beam="1">  1       21 0.44550006E-02 0.43888747E+03</pdfrwt>
<pdfrwt beam="2">  1       21 0.23376569E+00 0.43888747E+03</pdfrwt>
<totfact> 0.23828521E+04</totfact>
</mgrwt>
</event>
<event>
 6    0  0.4784406E-002  0.4575448E+03  0.7546771E-02  0.1025496E+00
         21   -1    0    0  502  501  0.00000000000E+00  0.00000000000E+00  0.18020063134E+02  0.18020063134E+02  0.00000000000E+00 0. -1.
         21   -1    0    0  501  502 -0.00000000000E+00 -0.00000000000E+00 -0.29043631345E+04  0.29043631345E+04  0.00000000000E+00 0. -1.
      99926    2    1    2    0    0  0.00000000000E+00  0.00000000000E+00 -0.28863430713E+04  0.29223831976E+04  0.45754478271E+03 0.  0.
         25    1    3    3    0    0  0.28091198379E+01 -0.88053600273E+02 -0.12624479077E+04  0.12716853209E+04  0.12509000000E+03 0.  0.
         25    1    3    3    0    0 -0.22612536582E+02  0.10204390907E+03 -0.10693188729E+04  0.10816721528E+04  0.12509000000E+03 0.  0.
         25    1    3    3    0    0  0.19803416744E+02 -0.13990308793E+02 -0.55457629070E+03  0.56902572382E+03  0.12509000000E+03 0.  0.
<mgrwt>
<rscale>  2 0.45754478E+03</rscale>
<asrwt>0</asrwt>
<pdfrwt beam="1">  1       21 0.26500102E-02 0.45754478E+03</pdfrwt>
<pdfrwt beam="2">  1       21 0.42711208E+00 0.45754478E+03</pdfrwt>
<totfact> 0.36307215E+03</totfact>
</mgrwt>
</event>
<event>
 7    0  0.4784406E-002  0.4610904E+03  0.7546771E-02  0.1024465E+00
         21   -1    0    0  502  501  0.00000000000E+00  0.00000000000E+00  0.58796969931E+02  0.58796969931E+02  0.00000000000E+00 0.  1.
         21   -1    0    0  501  502 -0.00000000000E+00 -0.00000000000E+00 -0.90397670559E+03  0.90397670559E+03  0.00000000000E+00 0.  1.
      99926    2    1    2    0    0  0.00000000000E+00  0.71054273576E-14 -0.84517973566E+03  0.96277367553E+03  0.46109040839E+03 0.  0.
      99925    2    3    3    0    0  0.70758842116E+02 -0.60989158702E+02 -0.68223720964E+03  0.73710961968E+03  0.26297621562E+03 0.  0.
         25    1    4    4    0    0  0.44975653846E+02 -0.91181925114E+01 -0.42315079508E+03  0.44363279224E+03  0.12509000000E+03 0.  0.
         25    1    4    4    0    0  0.25783188270E+02 -0.51870966190E+02 -0.25908641456E+03  0.29347682744E+03  0.12509000000E+03 0.  0.
         25    1    3    3    0    0 -0.70758842116E+02  0.60989158702E+02 -0.16294252602E+03  0.22566405585E+03  0.12509000000E+03 0.  0.
<mgrwt>
<rscale>  2 0.46109041E+03</rscale>
<asrwt>0</asrwt>
<pdfrwt beam="1">  1       21 0.86466143E-02 0.46109041E+03</pdfrwt>
<pdfrwt beam="2">  1       21 0.13293773E+00 0.46109041E+03</pdfrwt>
<totfact> 0.38749482E+04</totfact>
</mgrwt>
</event>
<event>
 7    0  0.4784406E-002  0.4473819E+03  0.7546771E-02  0.1028506E+00
         21   -1    0    0  502  501  0.00000000000E+00  0.00000000000E+00  0.46829887055E+02  0.46829887055E+02  0.00000000000E+00 0. -1.
         21   -1    0    0  501  502 -0.00000000000E+00 -0.00000000000E+00 -0.10684981716E+04  0.10684981716E+04  0.00000000000E+00 0. -1.
      99926    2    1    2    0    0  0.00000000000E+00  0.00000000000E+00 -0.10216682846E+04  0.11153280587E+04  0.44738193391E+03 0.  0.
      99925    2    3    3    0    0 -0.35335073237E+02  0.13709839026E+02 -0.40082164169E+03  0.48087192216E+03  0.26295111712E+03 0.  0.
         25    1    3    3    0    0  0.35335073237E+02 -0.13709839026E+02 -0.62084664290E+03  0.63445613653E+03  0.12509000000E+03 0.  0.
         25    1    4    4    0    0 -0.47673975603E+02 -0.22397677770E+01 -0.15895561177E+03  0.20782737819E+03  0.12509000000E+03 0.  0.
         25    1    4    4    0    0  0.12338902366E+02  0.15949606803E+02 -0.24186602991E+03  0.27304454397E+03  0.12509000000E+03 0.  0.
<mgrwt>
<rscale>  2 0.44738193E+03</rscale>
<asrwt>0</asrwt>
<pdfrwt beam="1">  1       21 0.68867485E-02 0.44738193E+03</pdfrwt>
<pdfrwt beam="2">  1       21 0.15713208E+00 0.44738193E+03</pdfrwt>
<totfact> 0.37117319E+04</totfact>
</mgrwt>
</event>
<event>
 7    0  0.4784406E-002  0.4568509E+03  0.7546771E-02  0.1025699E+00
         21   -1    0    0  502  501  0.00000000000E+00  0.00000000000E+00  0.49328265116E+03  0.49328265116E+03  0.00000000000E+00 0. -1.
         21   -1    0    0  501  502 -0.00000000000E+00 -0.00000000000E+00 -0.10577744867E+03  0.10577744867E+03  0.00000000000E+00 0. -1.
      99926    2    1    2    0    0  0.00000000000E+00  0.71054273576E-14  0.38750520250E+03  0.59906009983E+03  0.45685087418E+03 0.  0.
      99925    2    3    3    0    0  0.44820778409E+02  0.54545368073E+02  0.12457679659E+03  0.29945543683E+03  0.26300205521E+03 0.  0.
         25    1    4    4    0    0  0.16473876863E+02  0.55177621789E+02  0.96503659292E+02  0.16815594822E+03  0.12509000000E+03 0.  0.
         25    1    4    4    0    0  0.28346901546E+02 -0.63225371585E+00  0.28073137298E+02  0.13129948861E+03  0.12509000000E+03 0.  0.
         25    1    3    3    0    0 -0.44820778409E+02 -0.54545368073E+02  0.26292840591E+03  0.29960466299E+03  0.12509000000E+03 0.  0.
<mgrwt>
<rscale>  2 0.45685087E+03</rscale>
<asrwt>0</asrwt>
<pdfrwt beam="1">  1       21 0.72541565E-01 0.45685087E+03</pdfrwt>
<pdfrwt beam="2">  1       21 0.15555507E-01 0.45685087E+03</pdfrwt>
<totfact> 0.57884948E+04</totfact>
</mgrwt>
</event>
<event>
 7    0  0.4784406E-002  0.4627330E+03  0.7546771E-02  0.1023992E+00
         21   -1    0    0  502  501  0.00000000000E+00  0.00000000000E+00  0.10147301327E+03  0.10147301327E+03  0.00000000000E+00 0. -1.
         21   -1    0    0  501  502 -0.00000000000E+00 -0.00000000000E+00 -0.52753385679E+03  0.52753385679E+03  0.00000000000E+00 0. -1.
      99926    2    1    2    0    0 -0.14210854715E-13 -0.35527136788E-14 -0.42606084353E+03  0.62900687006E+03  0.46273296856E+03 0.  0.
      99925    2    3    3    0    0  0.78188254456E+02 -0.30326809645E+02 -0.38346070901E+03  0.47249681262E+03  0.26301711743E+03 0.  0.
         25    1    3    3    0    0 -0.78188254456E+02  0.30326809645E+02 -0.42600134513E+02  0.15651005744E+03  0.12509000000E+03 0.  0.
         25    1    4    4    0    0  0.42139096396E+01 -0.31686432760E+02 -0.20605268934E+03  0.24316045307E+03  0.12509000000E+03 0.  0.
         25    1    4    4    0    0  0.73974344817E+02  0.13596231151E+01 -0.17740801968E+03  0.22933635955E+03  0.12509000000E+03 0.  0.
<mgrwt>
<rscale>  2 0.46273297E+03</rscale>
<asrwt>0</asrwt>
<pdfrwt beam="1">  1       21 0.14922502E-01 0.46273297E+03</pdfrwt>
<pdfrwt beam="2">  1       21 0.77578508E-01 0.46273297E+03</pdfrwt>
<totfact> 0.53580636E+04</totfact>
</mgrwt>
</event>
<event>
 7    0  0.4784406E-002  0.4604243E+03  0.7546771E-02  0.1024658E+00
         21   -1    0    0  502  501  0.00000000000E+00  0.00000000000E+00  0.53623597619E+03  0.53623597619E+03  0.00000000000E+00 0.  1.
         21   -1    0    0  501  502 -0.00000000000E+00 -0.00000000000E+00 -0.98832670519E+02  0.98832670519E+02  0.00000000000E+00 0.  1.
      99926    2    1    2    0    0  0.00000000000E+00 -0.14210854715E-13  0.43740330567E+03  0.63506864671E+03  0.46042429804E+03 0.  0.
      99925    2    3    3    0    0 -0.54187462837E+02  0.81607135278E+02  0.18272243874E+03  0.33489226899E+03  0.26300063984E+03 0.  0.
         25    1    3    3    0    0  0.54187462837E+02 -0.81607135278E+02  0.25468086693E+03  0.30017637772E+03  0.12509000000E+03 0.  0.
         25    1    4    4    0    0 -0.33762104852E+01  0.31301803245E+02  0.12517220881E+03  0.17974090142E+03  0.12509000000E+03 0.  0.
         25    1    4    4    0    0 -0.50811252352E+02  0.50305332033E+02  0.57550229929E+02  0.15515136758E+03  0.12509000000E+03 0.  0.
<mgrwt>
<rscale>  2 0.46042430E+03</rscale>
<asrwt>0</asrwt>
<pdfrwt beam="1">  1       21 0.78858231E-01 0.46042430E+03</pdfrwt>
<pdfrwt beam="2">  1       21 0.14534216E-01 0.46042430E+03</pdfrwt>
<totfact> 0.54211398E+04</totfact>
</mgrwt>
</event>
<event>
 7    0  0.4784406E-002  0.4484333E+03  0.7546771E-02  0.1028190E+00
         21   -1    0    0  502  501  0.00000000000E+00  0.00000000000E+00  0.17898794061E+02  0.17898794061E+02  0.00000000000E+00 0. -1.
         21   -1    0    0  501  502 -0.00000000000E+00 -0.00000000000E+00 -0.28087424625E+04  0.28087424625E+04  0.00000000000E+00 0. -1.
      99926    2    1    2    0    0  0.71054273576E-14  0.00000000000E+00 -0.27908436684E+04  0.28266412566E+04  0.44843328559E+03 0.  0.
      99925    2    3    3    0    0 -0.36219073238E+02  0.40604601149E+02 -0.11862126336E+04  0.12162224225E+04  0.26293728163E+03 0.  0.
         25    1    3    3    0    0  0.36219073238E+02 -0.40604601149E+02 -0.16046310349E+04  0.16104188341E+04  0.12509000000E+03 0.  0.
         25    1    4    4    0    0 -0.57036263175E+02  0.28527043672E+02 -0.57747811141E+03  0.59430245229E+03  0.12509000000E+03 0.  0.
         25    1    4    4    0    0  0.20817189936E+02  0.12077557478E+02 -0.60873452216E+03  0.62191997022E+03  0.12509000000E+03 0.  0.
<mgrwt>
<rscale>  2 0.44843329E+03</rscale>
<asrwt>0</asrwt>
<pdfrwt beam="1">  1       21 0.26321746E-02 0.44843329E+03</pdfrwt>
<pdfrwt beam="2">  1       21 0.41305053E+00 0.44843329E+03</pdfrwt>
<totfact> 0.45626160E+03</totfact>
</mgrwt>
</event>
<event>
 7    0  0.4784406E-002  0.4672955E+03  0.7546771E-02  0.1022686E+00
         21   -1    0    0  502  501  0.00000000000E+00  0.00000000000E+00  0.20904978777E+03  0.20904978777E+03  0.00000000000E+00 0. -1.
         21   -1    0    0  501  502 -0.00000000000E+00 -0.00000000000E+00 -0.26114010025E+03  0.26114010025E+03  0.00000000000E+00 0. -1.
      99926    2    1    2    0    0 -0.71054273576E-14  0.00000000000E+00 -0.52090312476E+02  0.47018988801E+03  0.46729554902E+03 0.  0.
      99925    2    3    3    0    0  0.32745681971E+02  0.80387843412E+02 -0.12205861093E+03  0.30262630025E+03  0.26296366297E+03 0.  0.
         25    1    3    3    0    0 -0.32745681971E+02 -0.80387843412E+02  0.69968298455E+02  0.16756358777E+03  0.12509000000E+03 0.  0.
         25    1    4    4    0    0  0.54160381834E+02  0.29073867445E+02 -0.71940531347E+02  0.15684892374E+03  0.12509000000E+03 0.  0.
         25    1    4    4    0    0 -0.21414699863E+02  0.51313975967E+02 -0.50118079585E+02  0.14577737651E+03  0.12509000000E+03 0.  0.
<mgrwt>
<rscale>  2 0.46729555E+03</rscale>
<asrwt>0</asrwt>
<pdfrwt beam="1">  1       21 0.30742616E-01 0.46729555E+03</pdfrwt>
<pdfrwt beam="2">  1       21 0.38402956E-01 0.46729555E+03</pdfrwt>
<totfact> 0.61217475E+04</totfact>
</mgrwt>
</event>
<event>
 7    0  0.4784406E-002  0.4477455E+03  0.7546771E-02  0.1028396E+00
         21   -1    0    0  502  501  0.00000000000E+00  0.00000000000E+00  0.45648628874E+03  0.45648628874E+03  0.00000000000E+00 0.  1.
         21   -1    0    0  501  502 -0.00000000000E+00 -0.00000000000E+00 -0.10979301556E+03  0.10979301556E+03  0.00000000000E+00 0.  1.
      99926    2    1    2    0    0  0.00000000000E+00  0.00000000000E+00  0.34669327318E+03  0.56627930430E+03  0.44774549111E+03 0.  0.
      99925    2    3    3    0    0  0.71699902501E+02 -0.64679877608E+02  0.16385045305E+03  0.32461141740E+03  0.26306128327E+03 0.  0.
         25    1    4    4    0    0  0.43071865947E+02 -0.62518272850E+02  0.54984620599E+02  0.15631550364E+03  0.12509000000E+03 0.  0.
         25    1    3    3    0    0 -0.71699902501E+02  0.64679877608E+02  0.18284282013E+03  0.24166788690E+03  0.12509000000E+03 0.  0.
         25    1    4    4    0    0  0.28628036554E+02 -0.21616047576E+01  0.10886583245E+03  0.16829591376E+03  0.12509000000E+03 0.  0.
<mgrwt>
<rscale>  2 0.44774549E+03</rscale>
<asrwt>0</asrwt>
<pdfrwt beam="1">  1       21 0.67130336E-01 0.44774549E+03</pdfrwt>
<pdfrwt beam="2">  1       21 0.16146032E-01 0.44774549E+03</pdfrwt>
<totfact> 0.64420556E+04</totfact>
</mgrwt>
</event>
<event>
 7    0  0.4784406E-002  0.4806903E+03  0.7546771E-02  0.1018946E+00
         21   -1    0    0  502  501  0.00000000000E+00  0.00000000000E+00  0.48071424739E+03  0.48071424739E+03  0.00000000000E+00 0.  1.
         21   -1    0    0  501  502 -0.00000000000E+00 -0.00000000000E+00 -0.12016660953E+03  0.12016660953E+03  0.00000000000E+00 0.  1.
      99926    2    1    2    0    0 -0.71054273576E-14  0.00000000000E+00  0.36054763786E+03  0.60088085692E+03  0.48069034216E+03 0.  0.
      99925    2    3    3    0    0  0.48029389787E+02 -0.76323800852E+02  0.94984853465E+02  0.29379252205E+03  0.26298246855E+03 0.  0.
         25    1    3    3    0    0 -0.48029389787E+02  0.76323800852E+02  0.26556278440E+03  0.30708833487E+03  0.12509000000E+03 0.  0.
         25    1    4    4    0    0  0.46117412265E+02 -0.73120448982E+02  0.40902979659E+02  0.15746103524E+03  0.12509000000E+03 0.  0.
         25    1    4    4    0    0  0.19119775221E+01 -0.32033518705E+01  0.54081873806E+02  0.13633148681E+03  0.12509000000E+03 0.  0.
<mgrwt>
<rscale>  2 0.48069034E+03</rscale>
<asrwt>0</asrwt>
<pdfrwt beam="1">  1       21 0.70693271E-01 0.48069034E+03</pdfrwt>
<pdfrwt beam="2">  1       21 0.17671560E-01 0.48069034E+03</pdfrwt>
<totfact> 0.48091797E+04</totfact>
</mgrwt>
</event>
<event>
 7    0  0.4784406E-002  0.4403962E+03  0.7546771E-02  0.1030625E+00
         21   -1    0    0  502  501  0.00000000000E+00  0.00000000000E+00  0.43788329430E+03  0.43788329430E+03  0.00000000000E+00 0. -1.
         21   -1    0    0  501  502 -0.00000000000E+00 -0.00000000000E+00 -0.11073088330E+03  0.11073088330E+03  0.00000000000E+00 0. -1.
      99926    2    1    2    0    0  0.00000000000E+00  0.00000000000E+00  0.32715241099E+03  0.54861417760E+03  0.44039620326E+03 0.  0.
      99925    2    3    3    0    0 -0.58711882231E+02  0.79269335893E+02  0.21246795792E+03  0.35232168002E+03  0.26316766584E+03 0.  0.
         25    1    4    4    0    0 -0.67424506874E+02  0.41431242010E+02  0.91432002290E+02  0.17398255971E+03  0.12509000000E+03 0.  0.
         25    1    4    4    0    0  0.87126246432E+01  0.37838093883E+02  0.12103595563E+03  0.17833912031E+03  0.12509000000E+03 0.  0.
         25    1    3    3    0    0  0.58711882231E+02 -0.79269335893E+02  0.11468445308E+03  0.19629249758E+03  0.12509000000E+03 0.  0.
<mgrwt>
<rscale>  2 0.44039620E+03</rscale>
<asrwt>0</asrwt>
<pdfrwt beam="1">  1       21 0.64394602E-01 0.44039620E+03</pdfrwt>
<pdfrwt beam="2">  1       21 0.16283954E-01 0.44039620E+03</pdfrwt>
<totfact> 0.69665501E+04</totfact>
</mgrwt>
</event>
<event>
 7    0  0.4784406E-002  0.4509395E+03  0.7546771E-02  0.1027442E+00
         21   -1    0    0  502  501  0.00000000000E+00  0.00000000000E+00  0.64286618047E+02  0.64286618047E+02  0.00000000000E+00 0. -1.
         21   -1    0    0  501  502 -0.00000000000E+00 -0.00000000000E+00 -0.79078041330E+03  0.79078041330E+03  0.00000000000E+00 0. -1.
      99926    2    1    2    0    0  0.14210854715E-13 -0.71054273576E-14 -0.72649379525E+03  0.85506703135E+03  0.45093945664E+03 0.  0.
      99925    2    3    3    0    0 -0.64014394238E+02 -0.39520795945E+02 -0.30538914913E+03  0.40938063143E+03  0.26205005820E+03 0.  0.
         25    1    4    4    0    0 -0.12010096752E+02  0.15093492809E+02 -0.14083893744E+03  0.18935461533E+03  0.12509000000E+03 0.  0.
         25    1    3    3    0    0  0.64014394238E+02  0.39520795945E+02 -0.42110464613E+03  0.44568639992E+03  0.12509000000E+03 0.  0.
         25    1    4    4    0    0 -0.52004297486E+02 -0.54614288753E+02 -0.16455021169E+03  0.22002601610E+03  0.12509000000E+03 0.  0.
<mgrwt>
<rscale>  2 0.45093946E+03</rscale>
<asrwt>0</asrwt>
<pdfrwt beam="1">  1       21 0.94539142E-02 0.45093946E+03</pdfrwt>
<pdfrwt beam="2">  1       21 0.11629124E+00 0.45093946E+03</pdfrwt>
<totfact> 0.46682760E+04</totfact>
</mgrwt>
</event>
<event>
 7    0  0.4784406E-002  0.4521504E+03  0.7546771E-02  0.1027083E+00
         21   -1    0    0  502  501  0.00000000000E+00  0.00000000000E+00  0.18108118166E+04  0.18108118166E+04  0.00000000000E+00 0. -1.
         21   -1    0    0  501  502 -0.00000000000E+00 -0.00000000000E+00 -0.28224903298E+02  0.28224903298E+02  0.00000000000E+00 0. -1.
      99926    2    1    2    0    0  0.00000000000E+00 -0.44408920985E-15  0.17825869133E+04  0.18390367199E+04  0.45215036621E+03 0.  0.
      99925    2    3    3    0    0  0.55304014670E+02  0.37718771614E+01  0.15133267449E+04  0.15370080665E+04  0.26298897032E+03 0.  0.
         25    1    4    4    0    0  0.62122902079E+02 -0.45987374035E+01  0.91901206177E+03  0.92957575330E+03  0.12509000000E+03 0.  0.
         25    1    4    4    0    0 -0.68188874091E+01  0.83706145648E+01  0.59431468315E+03  0.60743231320E+03  0.12509000000E+03 0.  0.
         25    1    3    3    0    0 -0.55304014670E+02 -0.37718771614E+01  0.26926016840E+03  0.30202865342E+03  0.12509000000E+03 0.  0.
<mgrwt>
<rscale>  2 0.45215037E+03</rscale>
<asrwt>0</asrwt>
<pdfrwt beam="1">  1       21 0.26629578E+00 0.45215037E+03</pdfrwt>
<pdfrwt beam="2">  1       21 0.41507223E-02 0.45215037E+03</pdfrwt>
<totfact> 0.16891465E+04</totfact>
</mgrwt>
</event>
<event>
 7    0  0.4784406E-002  0.4480139E+03  0.7546771E-02  0.1028316E+00
         21   -1    0    0  502  501  0.00000000000E+00  0.00000000000E+00  0.56153597765E+03  0.56153597765E+03  0.00000000000E+00 0.  1.
         21   -1    0    0  501  502 -0.00000000000E+00 -0.00000000000E+00 -0.89360478178E+02  0.89360478178E+02  0.00000000000E+00 0.  1.
      99926    2    1    2    0    0 -0.71054273576E-14 -0.44408920985E-15  0.47217549947E+03  0.65089645583E+03  0.44801394388E+03 0.  0.
      99925    2    3    3    0    0  0.35933817732E+02 -0.21030586954E+01  0.15366784261E+03  0.30681754381E+03  0.26311126397E+03 0.  0.
         25    1    4    4    0    0 -0.10983127502E+02  0.26034533454E+02  0.62621789298E+02  0.14271447935E+03  0.12509000000E+03 0.  0.
         25    1    3    3    0    0 -0.35933817732E+02  0.21030586954E+01  0.31850765686E+03  0.34407891201E+03  0.12509000000E+03 0.  0.
         25    1    4    4    0    0  0.46916945234E+02 -0.28137592149E+02  0.91046053312E+02  0.16410306446E+03  0.12509000000E+03 0.  0.
<mgrwt>
<rscale>  2 0.44801394E+03</rscale>
<asrwt>0</asrwt>
<pdfrwt beam="1">  1       21 0.82578819E-01 0.44801394E+03</pdfrwt>
<pdfrwt beam="2">  1       21 0.13141247E-01 0.44801394E+03</pdfrwt>
<totfact> 0.58825190E+04</totfact>
</mgrwt>
</event>
<event>
 7    0  0.4784406E-002  0.4535933E+03  0.7546771E-02  0.1026656E+00
         21   -1    0    0  502  501  0.00000000000E+00  0.00000000000E+00  0.37781926946E+02  0.37781926946E+02  0.00000000000E+00 0. -1.
         21   -1    0    0  501  502 -0.00000000000E+00 -0.00000000000E+00 -0.13614108664E+04  0.13614108664E+04  0.00000000000E+00 0. -1.
      99926    2    1    2    0    0  0.00000000000E+00  0.00000000000E+00 -0.13236289394E+04  0.13991927933E+04  0.45359332401E+03 0.  0.
      99925    2    3    3    0    0  0.99477630363E+02 -0.47853622003E+02 -0.89049922489E+03  0.93504343611E+03  0.26292886833E+03 0.  0.
         25    1    3    3    0    0 -0.99477630363E+02  0.47853622003E+02 -0.43312971453E+03  0.46414935721E+03  0.12509000000E+03 0.  0.
         25    1    4    4    0    0  0.14632928332E+02  0.21158049136E+01 -0.39641161973E+03  0.41594263977E+03  0.12509000000E+03 0.  0.
         25    1    4    4    0    0  0.84844702031E+02 -0.49969426916E+02 -0.49408760516E+03  0.51910079634E+03  0.12509000000E+03 0.  0.
<mgrwt>
<rscale>  2 0.45359332E+03</rscale>
<asrwt>0</asrwt>
<pdfrwt beam="1">  1       21 0.55561659E-02 0.45359332E+03</pdfrwt>
<pdfrwt beam="2">  1       21 0.20020747E+00 0.45359332E+03</pdfrwt>
<totfact> 0.26643587E+04</totfact>
</mgrwt>
</event>
<event>
 6    0  0.4784406E-002  0.4551020E+03  0.7546771E-02  0.1026211E+00
         21   -1    0    0  502  501  0.00000000000E+00  0.00000000000E+00  0.72823069879E+02  0.72823069879E+02  0.00000000000E+00 0. -1.
         21   -1    0    0  501  502 -0.00000000000E+00 -0.00000000000E+00 -0.71103102914E+03  0.71103102914E+03  0.00000000000E+00 0. -1.
      99926    2    1    2    0    0  0.00000000000E+00 -0.14210854715E-13 -0.63820795926E+03  0.78385409902E+03  0.45510202074E+03 0.  0.
         25    1    3    3    0    0  0.83514450057E+01  0.70622647757E+02 -0.13221549288E+03  0.19541174393E+03  0.12509000000E+03 0.  0.
         25    1    3    3    0    0 -0.51843780324E+02 -0.90559607618E+02 -0.32209639762E+03  0.36094655775E+03  0.12509000000E+03 0.  0.
         25    1    3    3    0    0  0.43492335318E+02  0.19936959861E+02 -0.18389606876E+03  0.22749579734E+03  0.12509000000E+03 0.  0.
<mgrwt>
<rscale>  2 0.45510202E+03</rscale>
<asrwt>0</asrwt>
<pdfrwt beam="1">  1       21 0.10709276E-01 0.45510202E+03</pdfrwt>
<pdfrwt beam="2">  1       21 0.10456338E+00 0.45510202E+03</pdfrwt>
<totfact> 0.48516860E+04</totfact>
</mgrwt>
</event>
<event>
 7    0  0.4784406E-002  0.4554960E+03  0.7546771E-02  0.1026096E+00
         21   -1    0    0  502  501  0.00000000000E+00  0.00000000000E+00  0.13832007496E+03  0.13832007496E+03  0.00000000000E+00 0. -1.
         21   -1    0    0  501  502 -0.00000000000E+00 -0.00000000000E+00 -0.37499362893E+03  0.37499362893E+03  0.00000000000E+00 0. -1.
      99926    2    1    2    0    0 -0.35527136788E-14  0.00000000000E+00 -0.23667355396E+03  0.51331370389E+03  0.45549597963E+03 0.  0.
      99925    2    3    3    0    0  0.20959605982E+02 -0.11162295833E+03 -0.14402146821E+03  0.32061988717E+03  0.26297516771E+03 0.  0.
         25    1    4    4    0    0  0.24992756375E+02 -0.84764508756E+02 -0.10876642360E+03  0.18784914910E+03  0.12509000000E+03 0.  0.
         25    1    3    3    0    0 -0.20959605982E+02  0.11162295833E+03 -0.92652085752E+02  0.19269381672E+03  0.12509000000E+03 0.  0.
         25    1    4    4    0    0 -0.40331503924E+01 -0.26858449574E+02 -0.35255044608E+02  0.13277073806E+03  0.12509000000E+03 0.  0.
<mgrwt>
<rscale>  2 0.45549598E+03</rscale>
<asrwt>0</asrwt>
<pdfrwt beam="1">  1       21 0.20341188E-01 0.45549598E+03</pdfrwt>
<pdfrwt beam="2">  1       21 0.55146120E-01 0.45549598E+03</pdfrwt>
<totfact> 0.64092462E+04</totfact>
</mgrwt>
</event>
<event>
 7    0  0.4784406E-002  0.4579311E+03  0.7546771E-02  0.1025383E+00
         21   -1    0    0  502  501  0.00000000000E+00  0.00000000000E+00  0.54523304952E+03  0.54523304952E+03  0.00000000000E+00 0.  1.
         21   -1    0    0  501  502 -0.00000000000E+00 -0.00000000000E+00 -0.96151967155E+02  0.96151967155E+02  0.00000000000E+00 0.  1.
      99926    2    1    2    0    0  0.00000000000E+00  0.00000000000E+00  0.44908108237E+03  0.64138501668E+03  0.45793113137E+03 0.  0.
      99925    2    3    3    0    0  0.11219532060E+03  0.19389729008E+02  0.25180816451E+03  0.38152377722E+03  0.26303857000E+03 0.  0.
         25    1    4    4    0    0  0.30849975949E+02 -0.24347966033E+02  0.11333988281E+03  0.17331468951E+03  0.12509000000E+03 0.  0.
         25    1    3    3    0    0 -0.11219532060E+03 -0.19389729008E+02  0.19727291785E+03  0.25986123946E+03  0.12509000000E+03 0.  0.
         25    1    4    4    0    0  0.81345344650E+02  0.43737695040E+02  0.13846828171E+03  0.20820908770E+03  0.12509000000E+03 0.  0.
<mgrwt>
<rscale>  2 0.45793113E+03</rscale>
<asrwt>0</asrwt>
<pdfrwt beam="1">  1       21 0.80181329E-01 0.45793113E+03</pdfrwt>
<pdfrwt beam="2">  1       21 0.14139995E-01 0.45793113E+03</pdfrwt>
<totfact> 0.54919163E+04</totfact>
</mgrwt>
</event>
<event>
 7    0  0.4784406E-002  0.4237009E+03  0.7546771E-02  0.1035868E+00
         21   -1    0    0  502  501  0.00000000000E+00  0.00000000000E+00  0.16286548596E+04  0.16286548596E+04  0.00000000000E+00 0. -1.
         21   -1    0    0  501  502 -0.00000000000E+00 -0.00000000000E+00 -0.27556862398E+02  0.27556862398E+02  0.00000000000E+00 0. -1.
      99926    2    1    2    0    0 -0.71054273576E-14  0.00000000000E+00  0.16010979972E+04  0.16562117220E+04  0.42370092217E+03 0.  0.
      99925    2    3    3    0    0 -0.34876891010E+02  0.89551198757E+01  0.75777909780E+03  0.80290587655E+03  0.26292982681E+03 0.  0.
         25    1    4    4    0    0 -0.46693086978E+02  0.19245515604E+02  0.31839979905E+03  0.34579845919E+03  0.12509000000E+03 0.  0.
         25    1    4    4    0    0  0.11816195967E+02 -0.10290395729E+02  0.43937929875E+03  0.45710741736E+03  0.12509000000E+03 0.  0.
         25    1    3    3    0    0  0.34876891010E+02 -0.89551198757E+01  0.84331889943E+03  0.85330584548E+03  0.12509000000E+03 0.  0.
<mgrwt>
<rscale>  2 0.42370092E+03</rscale>
<asrwt>0</asrwt>
<pdfrwt beam="1">  1       21 0.23950800E+00 0.42370092E+03</pdfrwt>
<pdfrwt beam="2">  1       21 0.40524809E-02 0.42370092E+03</pdfrwt>
<totfact> 0.25943467E+04</totfact>
</mgrwt>
</event>
<event>
 7    0  0.4784406E-002  0.4301185E+03  0.7546771E-02  0.1033823E+00
         21   -1    0    0  502  501  0.00000000000E+00  0.00000000000E+00  0.48359722487E+03  0.48359722487E+03  0.00000000000E+00 0. -1.
         21   -1    0    0  501  502 -0.00000000000E+00 -0.00000000000E+00 -0.95638434925E+02  0.95638434925E+02  0.00000000000E+00 0. -1.
      99926    2    1    2    0    0 -0.35527136788E-14  0.00000000000E+00  0.38795878995E+03  0.57923565980E+03  0.43011850330E+03 0.  0.
      99925    2    3    3    0    0  0.23168561669E+02 -0.76544135551E+02  0.29886911650E+03  0.40608755859E+03  0.26303720175E+03 0.  0.
         25    1    4    4    0    0 -0.15041774161E+02 -0.69019049770E+02  0.14753654246E+03  0.20592334414E+03  0.12509000000E+03 0.  0.
         25    1    4    4    0    0  0.38210335830E+02 -0.75250857805E+01  0.15133257404E+03  0.20016421445E+03  0.12509000000E+03 0.  0.
         25    1    3    3    0    0 -0.23168561669E+02  0.76544135551E+02  0.89089673448E+02  0.17314810121E+03  0.12509000000E+03 0.  0.
<mgrwt>
<rscale>  2 0.43011850E+03</rscale>
<asrwt>0</asrwt>
<pdfrwt beam="1">  1       21 0.71117238E-01 0.43011850E+03</pdfrwt>
<pdfrwt beam="2">  1       21 0.14064476E-01 0.43011850E+03</pdfrwt>
<totfact> 0.73377483E+04</totfact>
</mgrwt>
</event>
<event>
 7    0  0.4784406E-002  0.4539509E+03  0.7546771E-02  0.1026550E+00
         21   -1    0    0  502  501  0.00000000000E+00  0.00000000000E+00  0.57492137812E+02  0.57492137812E+02  0.00000000000E+00 0. -1.
         21   -1    0    0  501  502 -0.00000000000E+00 -0.00000000000E+00 -0.89608532622E+03  0.89608532622E+03  0.00000000000E+00 0. -1.
      99926    2    1    2    0    0  0.71054273576E-14  0.17763568394E-14 -0.83859318841E+03  0.95357746403E+03  0.45395092716E+03 0.  0.
      99925    2    3    3    0    0 -0.62749285145E+02 -0.12495143195E+02 -0.72184972941E+03  0.77090249391E+03  0.26292588666E+03 0.  0.
         25    1    4    4    0    0 -0.39572763323E+02 -0.25209541831E+02 -0.46767326082E+03  0.48638185778E+03  0.12509000000E+03 0.  0.
         25    1    3    3    0    0  0.62749285145E+02  0.12495143195E+02 -0.11674345900E+03  0.18267497012E+03  0.12509000000E+03 0.  0.
         25    1    4    4    0    0 -0.23176521822E+02  0.12714398636E+02 -0.25417646860E+03  0.28452063613E+03  0.12509000000E+03 0.  0.
<mgrwt>
<rscale>  2 0.45395093E+03</rscale>
<asrwt>0</asrwt>
<pdfrwt beam="1">  1       21 0.84547264E-02 0.45395093E+03</pdfrwt>
<pdfrwt beam="2">  1       21 0.13177725E+00 0.45395093E+03</pdfrwt>
<totfact> 0.41334326E+04</totfact>
</mgrwt>
</event>
<event>
 7    0  0.4784406E-002  0.4558166E+03  0.7546771E-02  0.1026002E+00
         21   -1    0    0  502  501  0.00000000000E+00  0.00000000000E+00  0.11040402709E+03  0.11040402709E+03  0.00000000000E+00 0.  1.
         21   -1    0    0  501  502 -0.00000000000E+00 -0.00000000000E+00 -0.47047378242E+03  0.47047378242E+03  0.00000000000E+00 0.  1.
      99926    2    1    2    0    0  0.00000000000E+00  0.00000000000E+00 -0.36006975534E+03  0.58087780951E+03  0.45581663075E+03 0.  0.
      99925    2    3    3    0    0  0.63524107149E+02 -0.33302436360E+02 -0.11328755748E+03  0.29505736633E+03  0.26283153215E+03 0.  0.
         25    1    4    4    0    0 -0.88554090156E+01 -0.11102385354E+02 -0.59690879139E+02  0.13932763682E+03  0.12509000000E+03 0.  0.
         25    1    4    4    0    0  0.72379516165E+02 -0.22200051007E+02 -0.53596678337E+02  0.15572972951E+03  0.12509000000E+03 0.  0.
         25    1    3    3    0    0 -0.63524107149E+02  0.33302436360E+02 -0.24678219786E+03  0.28582044318E+03  0.12509000000E+03 0.  0.
<mgrwt>
<rscale>  2 0.45581663E+03</rscale>
<asrwt>0</asrwt>
<pdfrwt beam="1">  1       21 0.16235886E-01 0.45581663E+03</pdfrwt>
<pdfrwt beam="2">  1       21 0.69187321E-01 0.45581663E+03</pdfrwt>
<totfact> 0.59486033E+04</totfact>
</mgrwt>
</event>
<event>
 7    0  0.4784406E-002  0.4509978E+03  0.7546771E-02  0.1027425E+00
         21   -1    0    0  502  501  0.00000000000E+00  0.00000000000E+00  0.78891490359E+02  0.78891490359E+02  0.00000000000E+00 0.  1.
         21   -1    0    0  501  502 -0.00000000000E+00 -0.00000000000E+00 -0.64455319717E+03  0.64455319717E+03  0.00000000000E+00 0.  1.
      99926    2    1    2    0    0  0.00000000000E+00  0.00000000000E+00 -0.56566170681E+03  0.72344468753E+03  0.45099783742E+03 0.  0.
      99925    2    3    3    0    0 -0.35251932012E+02 -0.57396004312E+02 -0.21930603422E+03  0.34908288384E+03  0.26310971690E+03 0.  0.
         25    1    4    4    0    0 -0.55065132219E+02 -0.24276456182E+02 -0.13328010278E+03  0.19243858503E+03  0.12509000000E+03 0.  0.
         25    1    4    4    0    0  0.19813200207E+02 -0.33119548130E+02 -0.86025931439E+02  0.15664429881E+03  0.12509000000E+03 0.  0.
         25    1    3    3    0    0  0.35251932012E+02  0.57396004312E+02 -0.34635567259E+03  0.37436180369E+03  0.12509000000E+03 0.  0.
<mgrwt>
<rscale>  2 0.45099784E+03</rscale>
<asrwt>0</asrwt>
<pdfrwt beam="1">  1       21 0.11601689E-01 0.45099784E+03</pdfrwt>
<pdfrwt beam="2">  1       21 0.94787239E-01 0.45099784E+03</pdfrwt>
<totfact> 0.53306706E+04</totfact>
</mgrwt>
</event>
<event>
 7    0  0.4784406E-002  0.4101835E+03  0.7546771E-02  0.1040309E+00
         21   -1    0    0  502  501  0.00000000000E+00  0.00000000000E+00  0.42526475087E+03  0.42526475087E+03  0.00000000000E+00 0. -1.
         21   -1    0    0  501  502 -0.00000000000E+00 -0.00000000000E+00 -0.98909269735E+02  0.98909269735E+02  0.00000000000E+00 0. -1.
      99926    2    1    2    0    0  0.00000000000E+00  0.00000000000E+00  0.32635548113E+03  0.52417402060E+03  0.41018350017E+03 0.  0.
      99925    2    3    3    0    0 -0.29653553824E+02  0.51539050350E+02  0.19165884417E+03  0.33097386772E+03  0.26320140881E+03 0.  0.
         25    1    4    4    0    0  0.52087266979E+01  0.48005590274E+02  0.63035366671E+02  0.14816420986E+03  0.12509000000E+03 0.  0.
         25    1    4    4    0    0 -0.34862280522E+02  0.35334600764E+01  0.12862347750E+03  0.18280965786E+03  0.12509000000E+03 0.  0.
         25    1    3    3    0    0  0.29653553824E+02 -0.51539050350E+02  0.13469663697E+03  0.19320015289E+03  0.12509000000E+03 0.  0.
<mgrwt>
<rscale>  2 0.41018350E+03</rscale>
<asrwt>0</asrwt>
<pdfrwt beam="1">  1       21 0.62538933E-01 0.41018350E+03</pdfrwt>
<pdfrwt beam="2">  1       21 0.14545481E-01 0.41018350E+03</pdfrwt>
<totfact> 0.92227794E+04</totfact>
</mgrwt>
</event>
<event>
 7    0  0.4784406E-002  0.4405473E+03  0.7546771E-02  0.1030579E+00
         21   -1    0    0  502  501  0.00000000000E+00  0.00000000000E+00  0.53688520628E+02  0.53688520628E+02  0.00000000000E+00 0. -1.
         21   -1    0    0  501  502 -0.00000000000E+00 -0.00000000000E+00 -0.90374028342E+03  0.90374028342E+03  0.00000000000E+00 0. -1.
      99926    2    1    2    0    0 -0.71054273576E-14  0.00000000000E+00 -0.85005176280E+03  0.95742880405E+03  0.44054729076E+03 0.  0.
      99925    2    3    3    0    0  0.43829257667E+02 -0.82280313647E+02 -0.61451698485E+03  0.67491297518E+03  0.26303107337E+03 0.  0.
         25    1    3    3    0    0 -0.43829257667E+02  0.82280313647E+02 -0.23553477794E+03  0.28251582887E+03  0.12509000000E+03 0.  0.
         25    1    4    4    0    0  0.45564603714E+02 -0.53614096703E+02 -0.24749633767E+03  0.28609884610E+03  0.12509000000E+03 0.  0.
         25    1    4    4    0    0 -0.17353460469E+01 -0.28666216944E+02 -0.36702064718E+03  0.38881412908E+03  0.12509000000E+03 0.  0.
<mgrwt>
<rscale>  2 0.44054729E+03</rscale>
<asrwt>0</asrwt>
<pdfrwt beam="1">  1       21 0.78953713E-02 0.44054729E+03</pdfrwt>
<pdfrwt beam="2">  1       21 0.13290297E+00 0.44054729E+03</pdfrwt>
<totfact> 0.45802467E+04</totfact>
</mgrwt>
</event>
<event>
 7    0  0.4784406E-002  0.4138127E+03  0.7546771E-02  0.1039099E+00
         21   -1    0    0  502  501  0.00000000000E+00  0.00000000000E+00  0.70021197713E+03  0.70021197713E+03  0.00000000000E+00 0. -1.
         21   -1    0    0  501  502 -0.00000000000E+00 -0.00000000000E+00 -0.61138968795E+02  0.61138968795E+02  0.00000000000E+00 0. -1.
      99926    2    1    2    0    0  0.00000000000E+00 -0.11102230246E-14  0.63907300834E+03  0.76135094593E+03  0.41381270266E+03 0.  0.
      99925    2    3    3    0    0  0.60967468054E+02  0.51547826696E+00  0.36504039123E+03  0.45400963530E+03  0.26296951123E+03 0.  0.
         25    1    3    3    0    0 -0.60967468054E+02 -0.51547826696E+00  0.27403261710E+03  0.30734131062E+03  0.12509000000E+03 0.  0.
         25    1    4    4    0    0  0.22251510705E+02 -0.11415956478E+02  0.11614864506E+03  0.17252092522E+03  0.12509000000E+03 0.  0.
         25    1    4    4    0    0  0.38715957349E+02  0.11931434745E+02  0.24889174618E+03  0.28148871008E+03  0.12509000000E+03 0.  0.
<mgrwt>
<rscale>  2 0.41381270E+03</rscale>
<asrwt>0</asrwt>
<pdfrwt beam="1">  1       21 0.10297234E+00 0.41381270E+03</pdfrwt>
<pdfrwt beam="2">  1       21 0.89910252E-02 0.41381270E+03</pdfrwt>
<totfact> 0.69620523E+04</totfact>
</mgrwt>
</event>
<event>
 7    0  0.4784406E-002  0.4500554E+03  0.7546771E-02  0.1027706E+00
         21   -1    0    0  502  501  0.00000000000E+00  0.00000000000E+00  0.74322253248E+03  0.74322253248E+03  0.00000000000E+00 0.  1.
         21   -1    0    0  501  502 -0.00000000000E+00 -0.00000000000E+00 -0.68132313348E+02  0.68132313348E+02  0.00000000000E+00 0.  1.
      99926    2    1    2    0    0  0.00000000000E+00  0.00000000000E+00  0.67509021913E+03  0.81135484583E+03  0.45005542090E+03 0.  0.
      99925    2    3    3    0    0 -0.34275501107E+02 -0.32201904330E+02  0.25080925436E+03  0.36652497073E+03  0.26310359076E+03 0.  0.
         25    1    4    4    0    0 -0.40812271809E+02 -0.49953789156E+02  0.13424445745E+03  0.19449962735E+03  0.12509000000E+03 0.  0.
         25    1    4    4    0    0  0.65367707019E+01  0.17751884825E+02  0.11656479691E+03  0.17202534338E+03  0.12509000000E+03 0.  0.
         25    1    3    3    0    0  0.34275501107E+02  0.32201904330E+02  0.42428096477E+03  0.44482987510E+03  0.12509000000E+03 0.  0.
<mgrwt>
<rscale>  2 0.45005542E+03</rscale>
<asrwt>0</asrwt>
<pdfrwt beam="1">  1       21 0.10929743E+00 0.45005542E+03</pdfrwt>
<pdfrwt beam="2">  1       21 0.10019458E-01 0.45005542E+03</pdfrwt>
<totfact> 0.49097998E+04</totfact>
</mgrwt>
</event>
<event>
 7    0  0.4784406E-002  0.4420259E+03  0.7546771E-02  0.1030127E+00
         21   -1    0    0  502  501  0.00000000000E+00  0.00000000000E+00  0.20046981216E+04  0.20046981216E+04  0.00000000000E+00 0.  1.
         21   -1    0    0  501  502 -0.00000000000E+00 -0.00000000000E+00 -0.24366123235E+02  0.24366123235E+02  0.00000000000E+00 0.  1.
      99926    2    1    2    0    0  0.35527136788E-14  0.00000000000E+00  0.19803319983E+04  0.20290642448E+04  0.44202588828E+03 0.  0.
      99925    2    3    3    0    0 -0.13645097503E+02  0.25927639121E+02  0.17021586206E+04  0.17226554209E+04  0.26332356236E+03 0.  0.
         25    1    4    4    0    0 -0.46014953379E+02  0.15834677761E+02  0.94503483127E+03  0.95451896438E+03  0.12509000000E+03 0.  0.
         25    1    3    3    0    0  0.13645097503E+02 -0.25927639121E+02  0.27817337776E+03  0.30640882388E+03  0.12509000000E+03 0.  0.
         25    1    4    4    0    0  0.32369855876E+02  0.10092961360E+02  0.75712378930E+03  0.76813645654E+03  0.12509000000E+03 0.  0.
<mgrwt>
<rscale>  2 0.44202589E+03</rscale>
<asrwt>0</asrwt>
<pdfrwt beam="1">  1       21 0.29480843E+00 0.44202589E+03</pdfrwt>
<pdfrwt beam="2">  1       21 0.35832548E-02 0.44202589E+03</pdfrwt>
<totfact> 0.14663142E+04</totfact>
</mgrwt>
</event>
<event>
 7    0  0.4784406E-002  0.4495907E+03  0.7546771E-02  0.1027844E+00
         21   -1    0    0  502  501  0.00000000000E+00  0.00000000000E+00  0.90355581811E+02  0.90355581811E+02  0.00000000000E+00 0. -1.
         21   -1    0    0  501  502 -0.00000000000E+00 -0.00000000000E+00 -0.55926761658E+03  0.55926761658E+03  0.00000000000E+00 0. -1.
      99926    2    1    2    0    0 -0.14210854715E-13  0.71054273576E-14 -0.46891203477E+03  0.64962319839E+03  0.44959070668E+03 0.  0.
      99925    2    3    3    0    0 -0.84873544072E+02  0.57547938839E+02 -0.34539517923E+03  0.44610610955E+03  0.26305426701E+03 0.  0.
         25    1    4    4    0    0 -0.23333037441E+02 -0.43457902307E+01 -0.12801850105E+03  0.18055348581E+03  0.12509000000E+03 0.  0.
         25    1    4    4    0    0 -0.61540506631E+02  0.61893729069E+02 -0.21737667818E+03  0.26555262374E+03  0.12509000000E+03 0.  0.
         25    1    3    3    0    0  0.84873544072E+02 -0.57547938839E+02 -0.12351685553E+03  0.20351708884E+03  0.12509000000E+03 0.  0.
<mgrwt>
<rscale>  2 0.44959071E+03</rscale>
<asrwt>0</asrwt>
<pdfrwt beam="1">  1       21 0.13287586E-01 0.44959071E+03</pdfrwt>
<pdfrwt beam="2">  1       21 0.82245237E-01 0.44959071E+03</pdfrwt>
<totfact> 0.58165813E+04</totfact>
</mgrwt>
</event>
<event>
 7    0  0.4784406E-002  0.4617623E+03  0.7546771E-02  0.1024271E+00
         21   -1    0    0  502  501  0.00000000000E+00  0.00000000000E+00  0.43660627307E+02  0.43660627307E+02  0.00000000000E+00 0. -1.
         21   -1    0    0  501  502 -0.00000000000E+00 -0.00000000000E+00 -0.12209194561E+04  0.12209194561E+04  0.00000000000E+00 0. -1.
      99926    2    1    2    0    0  0.00000000000E+00  0.14210854715E-13 -0.11772588288E+04  0.12645800834E+04  0.46176231697E+03 0.  0.
      99925    2    3    3    0    0 -0.73769282523E+02 -0.64837986835E+02 -0.55150182179E+03  0.61892908520E+03  0.26319779915E+03 0.  0.
         25    1    4    4    0    0 -0.54651640308E+02 -0.99593174832E+00 -0.22804311649E+03  0.26577991788E+03  0.12509000000E+03 0.  0.
         25    1    3    3    0    0  0.73769282523E+02  0.64837986835E+02 -0.62575700697E+03  0.64565099819E+03  0.12509000000E+03 0.  0.
         25    1    4    4    0    0 -0.19117642215E+02 -0.63842055087E+02 -0.32345870530E+03  0.35314916732E+03  0.12509000000E+03 0.  0.
<mgrwt>
<rscale>  2 0.46176232E+03</rscale>
<asrwt>0</asrwt>
<pdfrwt beam="1">  1       21 0.64206805E-02 0.46176232E+03</pdfrwt>
<pdfrwt beam="2">  1       21 0.17954698E+00 0.46176232E+03</pdfrwt>
<totfact> 0.28624409E+04</totfact>
</mgrwt>
</event>
<event>
 7    0  0.4784406E-002  0.4559207E+03  0.7546771E-02  0.1025971E+00
         21   -1    0    0  502  501  0.00000000000E+00  0.00000000000E+00  0.20364885051E+03  0.20364885051E+03  0.00000000000E+00 0.  1.
         21   -1    0    0  501  502 -0.00000000000E+00 -0.00000000000E+00 -0.25517419134E+03  0.25517419134E+03  0.00000000000E+00 0.  1.
      99926    2    1    2    0    0  0.00000000000E+00  0.00000000000E+00 -0.51525340829E+02  0.45882304186E+03  0.45592074200E+03 0.  0.
      99925    2    3    3    0    0 -0.69693769038E+02 -0.10381049531E+02  0.57906114559E+02  0.27830229745E+03  0.26293357152E+03 0.  0.
         25    1    4    4    0    0 -0.45600820609E+02  0.21986505705E+02  0.67867403598E+00  0.13494743411E+03  0.12509000000E+03 0.  0.
         25    1    4    4    0    0 -0.24092948428E+02 -0.32367555236E+02  0.57227440523E+02  0.14335486335E+03  0.12509000000E+03 0.  0.
         25    1    3    3    0    0  0.69693769038E+02  0.10381049531E+02 -0.10943145539E+03  0.18052074440E+03  0.12509000000E+03 0.  0.
<mgrwt>
<rscale>  2 0.45592074E+03</rscale>
<asrwt>0</asrwt>
<pdfrwt beam="1">  1       21 0.29948361E-01 0.45592074E+03</pdfrwt>
<pdfrwt beam="2">  1       21 0.37525616E-01 0.45592074E+03</pdfrwt>
<totfact> 0.67767356E+04</totfact>
</mgrwt>
</event>
<event>
 7    0  0.4784406E-002  0.4679015E+03  0.7546771E-02  0.1022514E+00
         21   -1    0    0  502  501  0.00000000000E+00  0.00000000000E+00  0.18289303996E+03  0.18289303996E+03  0.00000000000E+00 0. -1.
         21   -1    0    0  501  502 -0.00000000000E+00 -0.00000000000E+00 -0.29926211786E+03  0.29926211786E+03  0.00000000000E+00 0. -1.
      99926    2    1    2    0    0  0.00000000000E+00 -0.35527136788E-14 -0.11636907789E+03  0.48215515782E+03  0.46790152161E+03 0.  0.
      99925    2    3    3    0    0 -0.69350298860E+02 -0.22061431416E+02  0.32485764641E+02  0.27454628770E+03  0.26272451061E+03 0.  0.
         25    1    4    4    0    0 -0.16049218677E+02  0.21332626392E+02 -0.11311298877E+01  0.12791186780E+03  0.12509000000E+03 0.  0.
         25    1    4    4    0    0 -0.53301080183E+02 -0.43394057808E+02  0.33616894529E+02  0.14663441990E+03  0.12509000000E+03 0.  0.
         25    1    3    3    0    0  0.69350298860E+02  0.22061431416E+02 -0.14885484254E+03  0.20760887012E+03  0.12509000000E+03 0.  0.
<mgrwt>
<rscale>  2 0.46790152E+03</rscale>
<asrwt>0</asrwt>
<pdfrwt beam="1">  1       21 0.26896035E-01 0.46790152E+03</pdfrwt>
<pdfrwt beam="2">  1       21 0.44009135E-01 0.46790152E+03</pdfrwt>
<totfact> 0.60145935E+04</totfact>
</mgrwt>
</event>
<event>
 7    0  0.4784406E-002  0.4534483E+03  0.7546771E-02  0.1026699E+00
         21   -1    0    0  502  501  0.00000000000E+00  0.00000000000E+00  0.32128464086E+03  0.32128464086E+03  0.00000000000E+00 0.  1.
         21   -1    0    0  501  502 -0.00000000000E+00 -0.00000000000E+00 -0.15999467091E+03  0.15999467091E+03  0.00000000000E+00 0.  1.
      99926    2    1    2    0    0  0.00000000000E+00  0.00000000000E+00  0.16128996994E+03  0.48127931177E+03  0.45344825673E+03 0.  0.
      99925    2    3    3    0    0 -0.89344346577E+02 -0.26525691111E+02  0.16699339864E+03  0.32518298973E+03  0.26300410086E+03 0.  0.
         25    1    4    4    0    0 -0.31543487322E+02 -0.13899658096E+02  0.36036489562E+02  0.13466376189E+03  0.12509000000E+03 0.  0.
         25    1    4    4    0    0 -0.57800859255E+02 -0.12626033015E+02  0.13095690908E+03  0.19051922784E+03  0.12509000000E+03 0.  0.
         25    1    3    3    0    0  0.89344346577E+02  0.26525691111E+02 -0.57034286990E+01  0.15609632204E+03  0.12509000000E+03 0.  0.
<mgrwt>
<rscale>  2 0.45344826E+03</rscale>
<asrwt>0</asrwt>
<pdfrwt beam="1">  1       21 0.47247742E-01 0.45344826E+03</pdfrwt>
<pdfrwt beam="2">  1       21 0.23528628E-01 0.45344826E+03</pdfrwt>
<totfact> 0.67433899E+04</totfact>
</mgrwt>
</event>
<event>
 7    0  0.4784406E-002  0.4421995E+03  0.7546771E-02  0.1030074E+00
         21   -1    0    0  502  501  0.00000000000E+00  0.00000000000E+00  0.56113497085E+03  0.56113497085E+03  0.00000000000E+00 0.  1.
         21   -1    0    0  501  502 -0.00000000000E+00 -0.00000000000E+00 -0.87118257124E+02  0.87118257124E+02  0.00000000000E+00 0.  1.
      99926    2    1    2    0    0  0.17763568394E-14 -0.71054273576E-14  0.47401671373E+03  0.64825322798E+03  0.44219950553E+03 0.  0.
      99925    2    3    3    0    0  0.11036416495E+02 -0.35476273804E+02  0.43908098284E+03  0.51316665616E+03  0.26299722245E+03 0.  0.
         25    1    4    4    0    0 -0.15427346736E+02 -0.48189938689E+02  0.25764570494E+03  0.29084203718E+03  0.12509000000E+03 0.  0.
         25    1    3    3    0    0 -0.11036416495E+02  0.35476273804E+02  0.34935730894E+02  0.13508657182E+03  0.12509000000E+03 0.  0.
         25    1    4    4    0    0  0.26463763231E+02  0.12713664885E+02  0.18143527790E+03  0.22232461898E+03  0.12509000000E+03 0.  0.
<mgrwt>
<rscale>  2 0.44219951E+03</rscale>
<asrwt>0</asrwt>
<pdfrwt beam="1">  1       21 0.82519847E-01 0.44219951E+03</pdfrwt>
<pdfrwt beam="2">  1       21 0.12811509E-01 0.44219951E+03</pdfrwt>
<totfact> 0.61810672E+04</totfact>
</mgrwt>
</event>
<event>
 7    0  0.4784406E-002  0.4535156E+03  0.7546771E-02  0.1026679E+00
         21   -1    0    0  502  501  0.00000000000E+00  0.00000000000E+00  0.46293051186E+03  0.46293051186E+03  0.00000000000E+00 0.  1.
         21   -1    0    0  501  502 -0.00000000000E+00 -0.00000000000E+00 -0.11107305069E+03  0.11107305069E+03  0.00000000000E+00 0.  1.
      99926    2    1    2    0    0  0.00000000000E+00  0.35527136788E-14  0.35185746118E+03  0.57400356255E+03  0.45351561917E+03 0.  0.
      99925    2    3    3    0    0  0.70650276591E+02  0.31933729771E+02  0.11978753943E+03  0.29920330534E+03  0.26298733553E+03 0.  0.
         25    1    3    3    0    0 -0.70650276591E+02 -0.31933729771E+02  0.23206992175E+03  0.27480025720E+03  0.12509000000E+03 0.  0.
         25    1    4    4    0    0  0.31261255718E+02  0.29776383049E+02  0.18783084326E+02  0.13365706660E+03  0.12509000000E+03 0.  0.
         25    1    4    4    0    0  0.39389020873E+02  0.21573467220E+01  0.10100445510E+03  0.16554623874E+03  0.12509000000E+03 0.  0.
<mgrwt>
<rscale>  2 0.45351562E+03</rscale>
<asrwt>0</asrwt>
<pdfrwt beam="1">  1       21 0.68078016E-01 0.45351562E+03</pdfrwt>
<pdfrwt beam="2">  1       21 0.16334272E-01 0.45351562E+03</pdfrwt>
<totfact> 0.61020694E+04</totfact>
</mgrwt>
</event>
<event>
 7    0  0.4784406E-002  0.4504556E+03  0.7546771E-02  0.1027586E+00
         21   -1    0    0  502  501  0.00000000000E+00  0.00000000000E+00  0.21484355862E+03  0.21484355862E+03  0.00000000000E+00 0. -1.
         21   -1    0    0  501  502 -0.00000000000E+00 -0.00000000000E+00 -0.23611400150E+03  0.23611400150E+03  0.00000000000E+00 0. -1.
      99926    2    1    2    0    0  0.00000000000E+00  0.00000000000E+00 -0.21270442888E+02  0.45095756012E+03  0.45045564630E+03 0.  0.
      99925    2    3    3    0    0  0.64940744922E+02 -0.74972782548E+02  0.31355317403E+02  0.28286473689E+03  0.26304198329E+03 0.  0.
         25    1    4    4    0    0  0.72719947626E+02 -0.30137241144E+02  0.10978480294E+02  0.14820418083E+03  0.12509000000E+03 0.  0.
         25    1    4    4    0    0 -0.77792027033E+01 -0.44835541404E+02  0.20376837109E+02  0.13466055606E+03  0.12509000000E+03 0.  0.
         25    1    3    3    0    0 -0.64940744922E+02  0.74972782548E+02 -0.52625760291E+02  0.16809282323E+03  0.12509000000E+03 0.  0.
<mgrwt>
<rscale>  2 0.45045565E+03</rscale>
<asrwt>0</asrwt>
<pdfrwt beam="1">  1       21 0.31594641E-01 0.45045565E+03</pdfrwt>
<pdfrwt beam="2">  1       21 0.34722647E-01 0.45045565E+03</pdfrwt>
<totfact> 0.71396841E+04</totfact>
</mgrwt>
</event>
<event>
 7    0  0.4784406E-002  0.4349843E+03  0.7546771E-02  0.1032297E+00
         21   -1    0    0  502  501  0.00000000000E+00  0.00000000000E+00  0.69339674040E+02  0.69339674040E+02  0.00000000000E+00 0. -1.
         21   -1    0    0  501  502 -0.00000000000E+00 -0.00000000000E+00 -0.68219017142E+03  0.68219017142E+03  0.00000000000E+00 0. -1.
      99926    2    1    2    0    0  0.00000000000E+00  0.00000000000E+00 -0.61285049738E+03  0.75152984546E+03  0.43498434050E+03 0.  0.
      99925    2    3    3    0    0 -0.62770750087E+02 -0.61417852425E+02 -0.44700090615E+03  0.52599511493E+03  0.26296146328E+03 0.  0.
         25    1    4    4    0    0 -0.24032020306E+01 -0.57000784689E+02 -0.24211864594E+03  0.27843098184E+03  0.12509000000E+03 0.  0.
         25    1    4    4    0    0 -0.60367548056E+02 -0.44170677366E+01 -0.20488226021E+03  0.24756413309E+03  0.12509000000E+03 0.  0.
         25    1    3    3    0    0  0.62770750087E+02  0.61417852425E+02 -0.16584959123E+03  0.22553473053E+03  0.12509000000E+03 0.  0.
<mgrwt>
<rscale>  2 0.43498434E+03</rscale>
<asrwt>0</asrwt>
<pdfrwt beam="1">  1       21 0.10197011E-01 0.43498434E+03</pdfrwt>
<pdfrwt beam="2">  1       21 0.10032208E+00 0.43498434E+03</pdfrwt>
<totfact> 0.58927953E+04</totfact>
</mgrwt>
</event>
<event>
 7    0  0.4784406E-002  0.4402064E+03  0.7546771E-02  0.1030684E+00
         21   -1    0    0  502  501  0.00000000000E+00  0.00000000000E+00  0.35289060893E+02  0.35289060893E+02  0.00000000000E+00 0. -1.
         21   -1    0    0  501  502 -0.00000000000E+00 -0.00000000000E+00 -0.13728167831E+04  0.13728167831E+04  0.00000000000E+00 0. -1.
      99926    2    1    2    0    0  0.00000000000E+00  0.00000000000E+00 -0.13375277222E+04  0.14081058440E+04  0.44020638367E+03 0.  0.
      99925    2    3    3    0    0  0.49535819774E+02  0.85173145125E+02 -0.87112933041E+03  0.91527399634E+03  0.26296751888E+03 0.  0.
         25    1    4    4    0    0  0.19208132919E+02  0.54538294818E+02 -0.56888769246E+03  0.58534100549E+03  0.12509000000E+03 0.  0.
         25    1    3    3    0    0 -0.49535819774E+02 -0.85173145125E+02 -0.46639839183E+03  0.49283184769E+03  0.12509000000E+03 0.  0.
         25    1    4    4    0    0  0.30327686855E+02  0.30634850307E+02 -0.30224163795E+03  0.32993299085E+03  0.12509000000E+03 0.  0.
<mgrwt>
<rscale>  2 0.44020638E+03</rscale>
<asrwt>0</asrwt>
<pdfrwt beam="1">  1       21 0.51895698E-02 0.44020638E+03</pdfrwt>
<pdfrwt beam="2">  1       21 0.20188474E+00 0.44020638E+03</pdfrwt>
<totfact> 0.29348571E+04</totfact>
</mgrwt>
</event>
<event>
 7    0  0.4784406E-002  0.4506895E+03  0.7546771E-02  0.1027517E+00
         21   -1    0    0  502  501  0.00000000000E+00  0.00000000000E+00  0.16872880195E+03  0.16872880195E+03  0.00000000000E+00 0. -1.
         21   -1    0    0  501  502 -0.00000000000E+00 -0.00000000000E+00 -0.30095779029E+03  0.30095779029E+03  0.00000000000E+00 0. -1.
      99926    2    1    2    0    0  0.00000000000E+00 -0.71054273576E-14 -0.13222898834E+03  0.46968659224E+03  0.45068946024E+03 0.  0.
      99925    2    3    3    0    0  0.97936511909E+02  0.31663498345E+02 -0.46065581541E+02  0.28620422725E+03  0.26305262668E+03 0.  0.
         25    1    3    3    0    0 -0.97936511909E+02 -0.31663498345E+02 -0.86163406799E+02  0.18348236499E+03  0.12509000000E+03 0.  0.
         25    1    4    4    0    0  0.18800942071E+02 -0.22806367521E+01  0.31840803377E+01  0.12655561305E+03  0.12509000000E+03 0.  0.
         25    1    4    4    0    0  0.79135569837E+02  0.33944135097E+02 -0.49249661879E+02  0.15964861420E+03  0.12509000000E+03 0.  0.
<mgrwt>
<rscale>  2 0.45068946E+03</rscale>
<asrwt>0</asrwt>
<pdfrwt beam="1">  1       21 0.24813059E-01 0.45068946E+03</pdfrwt>
<pdfrwt beam="2">  1       21 0.44258498E-01 0.45068946E+03</pdfrwt>
<totfact> 0.69816418E+04</totfact>
</mgrwt>
</event>
<event>
 7    0  0.4784406E-002  0.4601363E+03  0.7546771E-02  0.1024742E+00
         21   -1    0    0  502  501  0.00000000000E+00  0.00000000000E+00  0.58686457874E+03  0.58686457874E+03  0.00000000000E+00 0. -1.
         21   -1    0    0  501  502 -0.00000000000E+00 -0.00000000000E+00 -0.90193468212E+02  0.90193468212E+02  0.00000000000E+00 0. -1.
      99926    2    1    2    0    0  0.00000000000E+00  0.00000000000E+00  0.49667111053E+03  0.67705804695E+03  0.46013629166E+03 0.  0.
      99925    2    3    3    0    0  0.42445230240E+02 -0.10101367580E+03  0.24759844894E+03  0.37757506059E+03  0.26315883834E+03 0.  0.
         25    1    3    3    0    0 -0.42445230240E+02  0.10101367580E+03  0.24907266159E+03  0.29948298636E+03  0.12509000000E+03 0.  0.
         25    1    4    4    0    0  0.23460626675E+02 -0.65538384808E+02  0.77987868439E+02  0.16301931361E+03  0.12509000000E+03 0.  0.
         25    1    4    4    0    0  0.18984603565E+02 -0.35475290990E+02  0.16961058050E+03  0.21455574698E+03  0.12509000000E+03 0.  0.
<mgrwt>
<rscale>  2 0.46013629E+03</rscale>
<asrwt>0</asrwt>
<pdfrwt beam="1">  1       21 0.86303612E-01 0.46013629E+03</pdfrwt>
<pdfrwt beam="2">  1       21 0.13263746E-01 0.46013629E+03</pdfrwt>
<totfact> 0.52028471E+04</totfact>
</mgrwt>
</event>
<event>
 7    0  0.4784406E-002  0.4574225E+03  0.7546771E-02  0.1025531E+00
         21   -1    0    0  502  501  0.00000000000E+00  0.00000000000E+00  0.10997037636E+03  0.10997037636E+03  0.00000000000E+00 0.  1.
         21   -1    0    0  501  502 -0.00000000000E+00 -0.00000000000E+00 -0.47566294406E+03  0.47566294406E+03  0.00000000000E+00 0.  1.
      99926    2    1    2    0    0  0.13322676296E-14  0.00000000000E+00 -0.36569256770E+03  0.58563332042E+03  0.45742248733E+03 0.  0.
      99925    2    3    3    0    0  0.29551175411E+01 -0.11714226689E+02 -0.37655574706E+03  0.45949263470E+03  0.26304618393E+03 0.  0.
         25    1    4    4    0    0 -0.29740323650E+02 -0.23074608297E+02 -0.15485682517E+03  0.20259582621E+03  0.12509000000E+03 0.  0.
         25    1    4    4    0    0  0.32695441191E+02  0.11360381608E+02 -0.22169892189E+03  0.25689680849E+03  0.12509000000E+03 0.  0.
         25    1    3    3    0    0 -0.29551175411E+01  0.11714226689E+02  0.10863179357E+02  0.12614068571E+03  0.12509000000E+03 0.  0.
<mgrwt>
<rscale>  2 0.45742249E+03</rscale>
<asrwt>0</asrwt>
<pdfrwt beam="1">  1       21 0.16172114E-01 0.45742249E+03</pdfrwt>
<pdfrwt beam="2">  1       21 0.69950434E-01 0.45742249E+03</pdfrwt>
<totfact> 0.58444206E+04</totfact>
</mgrwt>
</event>
<event>
 7    0  0.4784406E-002  0.4557869E+03  0.7546771E-02  0.1026010E+00
         21   -1    0    0  502  501  0.00000000000E+00  0.00000000000E+00  0.70529404208E+03  0.70529404208E+03  0.00000000000E+00 0. -1.
         21   -1    0    0  501  502 -0.00000000000E+00 -0.00000000000E+00 -0.73636557257E+02  0.73636557257E+02  0.00000000000E+00 0. -1.
      99926    2    1    2    0    0  0.00000000000E+00  0.00000000000E+00  0.63165748482E+03  0.77893059933E+03  0.45578690246E+03 0.  0.
      99925    2    3    3    0    0  0.34642439454E+02 -0.10825940941E+03  0.39598630792E+03  0.48891575478E+03  0.26327411738E+03 0.  0.
         25    1    4    4    0    0  0.54271310423E+02 -0.70970118242E+02  0.23374764883E+03  0.27976347913E+03  0.12509000000E+03 0.  0.
         25    1    4    4    0    0 -0.19628870969E+02 -0.37289291166E+02  0.16223865908E+03  0.20915227566E+03  0.12509000000E+03 0.  0.
         25    1    3    3    0    0 -0.34642439454E+02  0.10825940941E+03  0.23567117690E+03  0.29001484455E+03  0.12509000000E+03 0.  0.
<mgrwt>
<rscale>  2 0.45578690E+03</rscale>
<asrwt>0</asrwt>
<pdfrwt beam="1">  1       21 0.10371971E+00 0.45578690E+03</pdfrwt>
<pdfrwt beam="2">  1       21 0.10828906E-01 0.45578690E+03</pdfrwt>
<totfact> 0.48500569E+04</totfact>
</mgrwt>
</event>
<event>
 7    0  0.4784406E-002  0.4501442E+03  0.7546771E-02  0.1027679E+00
         21   -1    0    0  502  501  0.00000000000E+00  0.00000000000E+00  0.14388799223E+03  0.14388799223E+03  0.00000000000E+00 0. -1.
         21   -1    0    0  501  502 -0.00000000000E+00 -0.00000000000E+00 -0.35206164879E+03  0.35206164879E+03  0.00000000000E+00 0. -1.
      99926    2    1    2    0    0  0.00000000000E+00  0.00000000000E+00 -0.20817365656E+03  0.49594964102E+03  0.45014417151E+03 0.  0.
      99925    2    3    3    0    0  0.35825669759E+02 -0.57107179961E+02 -0.37798428602E+02  0.27409397844E+03  0.26297163192E+03 0.  0.
         25    1    3    3    0    0 -0.35825669759E+02  0.57107179961E+02 -0.17037522796E+03  0.22185566258E+03  0.12509000000E+03 0.  0.
         25    1    4    4    0    0 -0.22561424668E+02 -0.30289895960E+02 -0.23213244822E+02  0.13271344512E+03  0.12509000000E+03 0.  0.
         25    1    4    4    0    0  0.58387094427E+02 -0.26817284002E+02 -0.14585183780E+02  0.14138053332E+03  0.12509000000E+03 0.  0.
<mgrwt>
<rscale>  2 0.45014417E+03</rscale>
<asrwt>0</asrwt>
<pdfrwt beam="1">  1       21 0.21160000E-01 0.45014417E+03</pdfrwt>
<pdfrwt beam="2">  1       21 0.51773770E-01 0.45014417E+03</pdfrwt>
<totfact> 0.68145279E+04</totfact>
</mgrwt>
</event>
<event>
 7    0  0.4784406E-002  0.4533137E+03  0.7546771E-02  0.1026738E+00
         21   -1    0    0  502  501  0.00000000000E+00  0.00000000000E+00  0.34800632236E+03  0.34800632236E+03  0.00000000000E+00 0.  1.
         21   -1    0    0  501  502 -0.00000000000E+00 -0.00000000000E+00 -0.14762179119E+03  0.14762179119E+03  0.00000000000E+00 0.  1.
      99926    2    1    2    0    0  0.00000000000E+00 -0.13322676296E-14  0.20038453117E+03  0.49562811356E+03  0.45331365148E+03 0.  0.
      99925    2    3    3    0    0  0.77512852928E+02  0.28020839289E+01  0.21388478513E+03  0.34782466637E+03  0.26309542600E+03 0.  0.
         25    1    4    4    0    0  0.28653732890E+02  0.32253757169E+02  0.73647888905E+02  0.15143599605E+03  0.12509000000E+03 0.  0.
         25    1    3    3    0    0 -0.77512852928E+02 -0.28020839289E+01 -0.13500253957E+02  0.14780344719E+03  0.12509000000E+03 0.  0.
         25    1    4    4    0    0  0.48859120038E+02 -0.29451673240E+02  0.14023689622E+03  0.19638867032E+03  0.12509000000E+03 0.  0.
<mgrwt>
<rscale>  2 0.45331365E+03</rscale>
<asrwt>0</asrwt>
<pdfrwt beam="1">  1       21 0.51177400E-01 0.45331365E+03</pdfrwt>
<pdfrwt beam="2">  1       21 0.21709087E-01 0.45331365E+03</pdfrwt>
<totfact> 0.66464205E+04</totfact>
</mgrwt>
</event>
<event>
 7    0  0.4784406E-002  0.4639571E+03  0.7546771E-02  0.1023640E+00
         21   -1    0    0  502  501  0.00000000000E+00  0.00000000000E+00  0.59922376763E+02  0.59922376763E+02  0.00000000000E+00 0. -1.
         21   -1    0    0  501  502 -0.00000000000E+00 -0.00000000000E+00 -0.89806266368E+03  0.89806266368E+03  0.00000000000E+00 0. -1.
      99926    2    1    2    0    0  0.00000000000E+00  0.35527136788E-14 -0.83814028692E+03  0.95798504044E+03  0.46395710702E+03 0.  0.
      99925    2    3    3    0    0 -0.86188855600E+02 -0.20379485205E+02 -0.35185215284E+03  0.44811495925E+03  0.26298904350E+03 0.  0.
         25    1    4    4    0    0 -0.23874837199E+02 -0.42895996471E+02 -0.14761848890E+03  0.19962164394E+03  0.12509000000E+03 0.  0.
         25    1    4    4    0    0 -0.62314018401E+02  0.22516511265E+02 -0.20423366394E+03  0.24849331532E+03  0.12509000000E+03 0.  0.
         25    1    3    3    0    0  0.86188855600E+02  0.20379485205E+02 -0.48628813408E+03  0.50987008119E+03  0.12509000000E+03 0.  0.
<mgrwt>
<rscale>  2 0.46395711E+03</rscale>
<asrwt>0</asrwt>
<pdfrwt beam="1">  1       21 0.88121148E-02 0.46395711E+03</pdfrwt>
<pdfrwt beam="2">  1       21 0.13206803E+00 0.46395711E+03</pdfrwt>
<totfact> 0.38081255E+04</totfact>
</mgrwt>
</event>
<event>
 7    0  0.4784406E-002  0.4525691E+03  0.7546771E-02  0.1026959E+00
         21   -1    0    0  502  501  0.00000000000E+00  0.00000000000E+00  0.12806226675E+03  0.12806226675E+03  0.00000000000E+00 0. -1.
         21   -1    0    0  501  502 -0.00000000000E+00 -0.00000000000E+00 -0.39984225500E+03  0.39984225500E+03  0.00000000000E+00 0. -1.
      99926    2    1    2    0    0  0.14210854715E-13  0.00000000000E+00 -0.27177998825E+03  0.52790452175E+03  0.45256913513E+03 0.  0.
      99925    2    3    3    0    0 -0.70029028696E+02  0.86024699708E+02 -0.16926505862E+03  0.33178942106E+03  0.26292441127E+03 0.  0.
         25    1    4    4    0    0 -0.24133538739E+02  0.50542054943E+01 -0.95533935362E+02  0.15931796380E+03  0.12509000000E+03 0.  0.
         25    1    4    4    0    0 -0.45895489957E+02  0.80970494214E+02 -0.73731123262E+02  0.17247145726E+03  0.12509000000E+03 0.  0.
         25    1    3    3    0    0  0.70029028696E+02 -0.86024699708E+02 -0.10251492962E+03  0.19611510068E+03  0.12509000000E+03 0.  0.
<mgrwt>
<rscale>  2 0.45256914E+03</rscale>
<asrwt>0</asrwt>
<pdfrwt beam="1">  1       21 0.18832687E-01 0.45256914E+03</pdfrwt>
<pdfrwt beam="2">  1       21 0.58800331E-01 0.45256914E+03</pdfrwt>
<totfact> 0.64584033E+04</totfact>
</mgrwt>
</event>
<event>
 7    0  0.4784406E-002  0.4556324E+03  0.7546771E-02  0.1026056E+00
         21   -1    0    0  502  501  0.00000000000E+00  0.00000000000E+00  0.68026637142E+03  0.68026637142E+03  0.00000000000E+00 0.  1.
         21   -1    0    0  501  502 -0.00000000000E+00 -0.00000000000E+00 -0.76293982642E+02  0.76293982642E+02  0.00000000000E+00 0.  1.
      99926    2    1    2    0    0 -0.35527136788E-14  0.00000000000E+00  0.60397238878E+03  0.75656035406E+03  0.45563244280E+03 0.  0.
      99925    2    3    3    0    0  0.31157848600E+02  0.10874993069E+03  0.35082732924E+03  0.45237736929E+03  0.26223674485E+03 0.  0.
         25    1    4    4    0    0 -0.23851716411E+02  0.49090890141E+02  0.16560013186E+03  0.21459201207E+03  0.12509000000E+03 0.  0.
         25    1    4    4    0    0  0.55009565011E+02  0.59659040552E+02  0.18522719738E+03  0.23778535723E+03  0.12509000000E+03 0.  0.
         25    1    3    3    0    0 -0.31157848600E+02 -0.10874993069E+03  0.25314505954E+03  0.30418298477E+03  0.12509000000E+03 0.  0.
<mgrwt>
<rscale>  2 0.45563244E+03</rscale>
<asrwt>0</asrwt>
<pdfrwt beam="1">  1       21 0.10003917E+00 0.45563244E+03</pdfrwt>
<pdfrwt beam="2">  1       21 0.11219704E-01 0.45563244E+03</pdfrwt>
<totfact> 0.49689777E+04</totfact>
</mgrwt>
</event>
<event>
 7    0  0.4784406E-002  0.4522686E+03  0.7546771E-02  0.1027048E+00
         21   -1    0    0  502  501  0.00000000000E+00  0.00000000000E+00  0.22087236481E+04  0.22087236481E+04  0.00000000000E+00 0.  1.
         21   -1    0    0  501  502 -0.00000000000E+00 -0.00000000000E+00 -0.23152158664E+02  0.23152158664E+02  0.00000000000E+00 0.  1.
      99926    2    1    2    0    0  0.00000000000E+00  0.00000000000E+00  0.21855714895E+04  0.22318758068E+04  0.45226859430E+03 0.  0.
      99925    2    3    3    0    0 -0.16778873476E+02 -0.92759502826E+02  0.16641223989E+04  0.16874104561E+04  0.26299207756E+03 0.  0.
         25    1    3    3    0    0  0.16778873476E+02  0.92759502826E+02  0.52144909058E+03  0.54446535071E+03  0.12509000000E+03 0.  0.
         25    1    4    4    0    0  0.82862090623E+01 -0.68430197909E+01  0.75663292608E+03  0.76697873576E+03  0.12509000000E+03 0.  0.
         25    1    4    4    0    0 -0.25065082538E+02 -0.85916483035E+02  0.90748947281E+03  0.92043172032E+03  0.12509000000E+03 0.  0.
<mgrwt>
<rscale>  2 0.45226859E+03</rscale>
<asrwt>0</asrwt>
<pdfrwt beam="1">  1       21 0.32481216E+00 0.45226859E+03</pdfrwt>
<pdfrwt beam="2">  1       21 0.34047307E-02 0.45226859E+03</pdfrwt>
<totfact> 0.10501062E+04</totfact>
</mgrwt>
</event>
<event>
 7    0  0.4784406E-002  0.4603183E+03  0.7546771E-02  0.1024689E+00
         21   -1    0    0  502  501  0.00000000000E+00  0.00000000000E+00  0.25869162735E+03  0.25869162735E+03  0.00000000000E+00 0. -1.
         21   -1    0    0  501  502 -0.00000000000E+00 -0.00000000000E+00 -0.20477367983E+03  0.20477367983E+03  0.00000000000E+00 0. -1.
      99926    2    1    2    0    0  0.14210854715E-13  0.00000000000E+00  0.53917947517E+02  0.46346530718E+03  0.46031830931E+03 0.  0.
      99925    2    3    3    0    0  0.80008910166E+02 -0.28660556907E+02 -0.48761998716E+02  0.28067161832E+03  0.26301325362E+03 0.  0.
         25    1    4    4    0    0  0.47658508035E+01  0.88561457387E+01 -0.16980612433E+02  0.12663725340E+03  0.12509000000E+03 0.  0.
         25    1    4    4    0    0  0.75243059363E+02 -0.37516702646E+02 -0.31781386284E+02  0.15403436491E+03  0.12509000000E+03 0.  0.
         25    1    3    3    0    0 -0.80008910166E+02  0.28660556907E+02  0.10267994623E+03  0.18279368886E+03  0.12509000000E+03 0.  0.
<mgrwt>
<rscale>  2 0.46031831E+03</rscale>
<asrwt>0</asrwt>
<pdfrwt beam="1">  1       21 0.38042886E-01 0.46031831E+03</pdfrwt>
<pdfrwt beam="2">  1       21 0.30113776E-01 0.46031831E+03</pdfrwt>
<totfact> 0.65122488E+04</totfact>
</mgrwt>
</event>
<event>
 7    0  0.4784406E-002  0.4616627E+03  0.7546771E-02  0.1024300E+00
         21   -1    0    0  502  501  0.00000000000E+00  0.00000000000E+00  0.90613772454E+03  0.90613772454E+03  0.00000000000E+00 0.  1.
         21   -1    0    0  501  502 -0.00000000000E+00 -0.00000000000E+00 -0.58802445650E+02  0.58802445650E+02  0.00000000000E+00 0.  1.
      99926    2    1    2    0    0  0.00000000000E+00  0.00000000000E+00  0.84733527889E+03  0.96494017019E+03  0.46166270934E+03 0.  0.
      99925    2    3    3    0    0  0.43668209531E+02 -0.10809534102E+03  0.58340496839E+03  0.65045927701E+03  0.26295322519E+03 0.  0.
         25    1    4    4    0    0 -0.16446562270E+02 -0.64510277667E+02  0.26934526948E+03  0.30434593414E+03  0.12509000000E+03 0.  0.
         25    1    3    3    0    0 -0.43668209531E+02  0.10809534102E+03  0.26393031050E+03  0.31448089318E+03  0.12509000000E+03 0.  0.
         25    1    4    4    0    0  0.60114771801E+02 -0.43585063352E+02  0.31405969890E+03  0.34611334287E+03  0.12509000000E+03 0.  0.
<mgrwt>
<rscale>  2 0.46166271E+03</rscale>
<asrwt>0</asrwt>
<pdfrwt beam="1">  1       21 0.13325554E+00 0.46166271E+03</pdfrwt>
<pdfrwt beam="2">  1       21 0.86474190E-02 0.46166271E+03</pdfrwt>
<totfact> 0.38496840E+04</totfact>
</mgrwt>
</event>
<event>
 7    0  0.4784406E-002  0.4537751E+03  0.7546771E-02  0.1026602E+00
         21   -1    0    0  502  501  0.00000000000E+00  0.00000000000E+00  0.92691807557E+02  0.92691807557E+02  0.00000000000E+00 0. -1.
         21   -1    0    0  501  502 -0.00000000000E+00 -0.00000000000E+00 -0.55536683983E+03  0.55536683983E+03  0.00000000000E+00 0. -1.
      99926    2    1    2    0    0 -0.71054273576E-14  0.00000000000E+00 -0.46267503228E+03  0.64805864739E+03  0.45377508192E+03 0.  0.
      99925    2    3    3    0    0 -0.43680164835E+02  0.22060197277E+02 -0.43531451399E+03  0.51097941788E+03  0.26307153076E+03 0.  0.
         25    1    3    3    0    0  0.43680164835E+02 -0.22060197277E+02 -0.27360518287E+02  0.13707922952E+03  0.12509000000E+03 0.  0.
         25    1    4    4    0    0  0.99480459189E+01 -0.15620360088E+01 -0.25123449337E+03  0.28083390524E+03  0.12509000000E+03 0.  0.
         25    1    4    4    0    0 -0.53628210754E+02  0.23622233286E+02 -0.18408002062E+03  0.23014551263E+03  0.12509000000E+03 0.  0.
<mgrwt>
<rscale>  2 0.45377508E+03</rscale>
<asrwt>0</asrwt>
<pdfrwt beam="1">  1       21 0.13631148E-01 0.45377508E+03</pdfrwt>
<pdfrwt beam="2">  1       21 0.81671592E-01 0.45377508E+03</pdfrwt>
<totfact> 0.56356115E+04</totfact>
</mgrwt>
</event>
<event>
 7    0  0.4784406E-002  0.4527689E+03  0.7546771E-02  0.1026900E+00
         21   -1    0    0  502  501  0.00000000000E+00  0.00000000000E+00  0.15878756755E+03  0.15878756755E+03  0.00000000000E+00 0.  1.
         21   -1    0    0  501  502 -0.00000000000E+00 -0.00000000000E+00 -0.32275777837E+03  0.32275777837E+03  0.00000000000E+00 0.  1.
      99926    2    1    2    0    0 -0.14210854715E-13 -0.71054273576E-14 -0.16397021082E+03  0.48154534592E+03  0.45276891473E+03 0.  0.
      99925    2    3    3    0    0 -0.90634275808E+02 -0.30841668976E+02 -0.44591469192E+02  0.28389774905E+03  0.26352182508E+03 0.  0.
         25    1    3    3    0    0  0.90634275808E+02  0.30841668976E+02 -0.11937874163E+03  0.19764759687E+03  0.12509000000E+03 0.  0.
         25    1    4    4    0    0 -0.32158804555E+02 -0.54384904082E+02 -0.27060041680E+02  0.14272932585E+03  0.12509000000E+03 0.  0.
         25    1    4    4    0    0 -0.58475471253E+02  0.23543235106E+02 -0.17531427511E+02  0.14116842320E+03  0.12509000000E+03 0.  0.
<mgrwt>
<rscale>  2 0.45276891E+03</rscale>
<asrwt>0</asrwt>
<pdfrwt beam="1">  1       21 0.23351113E-01 0.45276891E+03</pdfrwt>
<pdfrwt beam="2">  1       21 0.47464378E-01 0.45276891E+03</pdfrwt>
<totfact> 0.67780271E+04</totfact>
</mgrwt>
</event>
<event>
 7    0  0.4784406E-002  0.4200506E+03  0.7546771E-02  0.1037050E+00
         21   -1    0    0  502  501  0.00000000000E+00  0.00000000000E+00  0.69279198160E+02  0.69279198160E+02  0.00000000000E+00 0.  1.
         21   -1    0    0  501  502 -0.00000000000E+00 -0.00000000000E+00 -0.63670821141E+03  0.63670821141E+03  0.00000000000E+00 0.  1.
      99926    2    1    2    0    0  0.00000000000E+00 -0.71054273576E-14 -0.56742901325E+03  0.70598740957E+03  0.42005063670E+03 0.  0.
      99925    2    3    3    0    0 -0.66870691093E+02  0.33940296229E+02 -0.39040560355E+03  0.47662213601E+03  0.26292297772E+03 0.  0.
         25    1    3    3    0    0  0.66870691093E+02 -0.33940296229E+02 -0.17702340970E+03  0.22936527356E+03  0.12509000000E+03 0.  0.
         25    1    4    4    0    0 -0.33533927360E+02  0.44235773403E+02 -0.14769086969E+03  0.20134902290E+03  0.12509000000E+03 0.  0.
         25    1    4    4    0    0 -0.33336763733E+02 -0.10295477174E+02 -0.24271473386E+03  0.27527311310E+03  0.12509000000E+03 0.  0.
<mgrwt>
<rscale>  2 0.42005064E+03</rscale>
<asrwt>0</asrwt>
<pdfrwt beam="1">  1       21 0.10188118E-01 0.42005064E+03</pdfrwt>
<pdfrwt beam="2">  1       21 0.93633558E-01 0.42005064E+03</pdfrwt>
<totfact> 0.69910730E+04</totfact>
</mgrwt>
</event>
<event>
 7    0  0.4784406E-002  0.4501227E+03  0.7546771E-02  0.1027685E+00
         21   -1    0    0  502  501  0.00000000000E+00  0.00000000000E+00  0.19673769999E+03  0.19673769999E+03  0.00000000000E+00 0.  1.
         21   -1    0    0  501  502 -0.00000000000E+00 -0.00000000000E+00 -0.25746261884E+03  0.25746261884E+03  0.00000000000E+00 0.  1.
      99926    2    1    2    0    0 -0.71054273576E-14  0.71054273576E-14 -0.60724918846E+02  0.45420031882E+03  0.45012266534E+03 0.  0.
      99925    2    3    3    0    0  0.32881014330E+02  0.62801977536E+02 -0.12126736785E+03  0.29819344168E+03  0.26303669833E+03 0.  0.
         25    1    4    4    0    0  0.52889671296E+00  0.69059571893E+02 -0.58288594881E+02  0.15431970903E+03  0.12509000000E+03 0.  0.
         25    1    3    3    0    0 -0.32881014330E+02 -0.62801977536E+02  0.60542449004E+02  0.15600687715E+03  0.12509000000E+03 0.  0.
         25    1    4    4    0    0  0.32352117617E+02 -0.62575943564E+01 -0.62978772969E+02  0.14387373265E+03  0.12509000000E+03 0.  0.
<mgrwt>
<rscale>  2 0.45012267E+03</rscale>
<asrwt>0</asrwt>
<pdfrwt beam="1">  1       21 0.28932015E-01 0.45012267E+03</pdfrwt>
<pdfrwt beam="2">  1       21 0.37862150E-01 0.45012267E+03</pdfrwt>
<totfact> 0.71340017E+04</totfact>
</mgrwt>
</event>
<event>
 7    0  0.4784406E-002  0.4498838E+03  0.7546771E-02  0.1027757E+00
         21   -1    0    0  502  501  0.00000000000E+00  0.00000000000E+00  0.66976910734E+02  0.66976910734E+02  0.00000000000E+00 0. -1.
         21   -1    0    0  501  502 -0.00000000000E+00 -0.00000000000E+00 -0.75546734448E+03  0.75546734448E+03  0.00000000000E+00 0. -1.
      99926    2    1    2    0    0 -0.17763568394E-14  0.00000000000E+00 -0.68849043375E+03  0.82244425522E+03  0.44988384676E+03 0.  0.
      99925    2    3    3    0    0  0.67421490543E+01  0.10655909069E+03 -0.46741130610E+03  0.54690154498E+03  0.26311152473E+03 0.  0.
         25    1    4    4    0    0 -0.15724173721E+02  0.52239382290E+02 -0.16302166138E+03  0.21260238211E+03  0.12509000000E+03 0.  0.
         25    1    4    4    0    0  0.22466322776E+02  0.54319708402E+02 -0.30438964472E+03  0.33429916286E+03  0.12509000000E+03 0.  0.
         25    1    3    3    0    0 -0.67421490543E+01 -0.10655909069E+03 -0.22107912765E+03  0.27554271024E+03  0.12509000000E+03 0.  0.
<mgrwt>
<rscale>  2 0.44988385E+03</rscale>
<asrwt>0</asrwt>
<pdfrwt beam="1">  1       21 0.98495460E-02 0.44988385E+03</pdfrwt>
<pdfrwt beam="2">  1       21 0.11109814E+00 0.44988385E+03</pdfrwt>
<totfact> 0.48620948E+04</totfact>
</mgrwt>
</event>
<event>
 7    0  0.4784406E-002  0.4517725E+03  0.7546771E-02  0.1027195E+00
         21   -1    0    0  502  501  0.00000000000E+00  0.00000000000E+00  0.55208368211E+02  0.55208368211E+02  0.00000000000E+00 0.  1.
         21   -1    0    0  501  502 -0.00000000000E+00 -0.00000000000E+00 -0.92421856809E+03  0.92421856809E+03  0.00000000000E+00 0.  1.
      99926    2    1    2    0    0  0.71054273576E-14  0.00000000000E+00 -0.86901019988E+03  0.97942693631E+03  0.45177250476E+03 0.  0.
      99925    2    3    3    0    0 -0.55192412727E+02 -0.64452319924E+02 -0.70072321014E+03  0.75322277413E+03  0.26292817704E+03 0.  0.
         25    1    3    3    0    0  0.55192412727E+02  0.64452319924E+02 -0.16828698975E+03  0.22620416217E+03  0.12509000000E+03 0.  0.
         25    1    4    4    0    0 -0.45263475555E+02 -0.55693892727E+02 -0.29355032206E+03  0.32706251939E+03  0.12509000000E+03 0.  0.
         25    1    4    4    0    0 -0.99289371724E+01 -0.87584271970E+01 -0.40717288807E+03  0.42616025474E+03  0.12509000000E+03 0.  0.
<mgrwt>
<rscale>  2 0.45177250E+03</rscale>
<asrwt>0</asrwt>
<pdfrwt beam="1">  1       21 0.81188783E-02 0.45177250E+03</pdfrwt>
<pdfrwt beam="2">  1       21 0.13591448E+00 0.45177250E+03</pdfrwt>
<totfact> 0.40996086E+04</totfact>
</mgrwt>
</event>
<event>
 7    0  0.4784406E-002  0.4280406E+03  0.7546771E-02  0.1034481E+00
         21   -1    0    0  502  501  0.00000000000E+00  0.00000000000E+00  0.23524989700E+03  0.23524989700E+03  0.00000000000E+00 0. -1.
         21   -1    0    0  501  502 -0.00000000000E+00 -0.00000000000E+00 -0.19470647805E+03  0.19470647805E+03  0.00000000000E+00 0. -1.
      99926    2    1    2    0    0  0.00000000000E+00  0.88817841970E-15  0.40543418948E+02  0.42995637504E+03  0.42804055371E+03 0.  0.
      99925    2    3    3    0    0 -0.68030306932E+02 -0.16672987140E+01 -0.24875594761E+02  0.27324626688E+03  0.26346503488E+03 0.  0.
         25    1    3    3    0    0  0.68030306932E+02  0.16672987140E+01  0.65419013710E+02  0.15671010816E+03  0.12509000000E+03 0.  0.
         25    1    4    4    0    0 -0.61244623521E+02 -0.24611844247E+02 -0.34314662435E+02  0.14553917323E+03  0.12509000000E+03 0.  0.
         25    1    4    4    0    0 -0.67856834115E+01  0.22944545533E+02  0.94390676736E+01  0.12770709365E+03  0.12509000000E+03 0.  0.
<mgrwt>
<rscale>  2 0.42804055E+03</rscale>
<asrwt>0</asrwt>
<pdfrwt beam="1">  1       21 0.34595573E-01 0.42804055E+03</pdfrwt>
<pdfrwt beam="2">  1       21 0.28633305E-01 0.42804055E+03</pdfrwt>
<totfact> 0.87850393E+04</totfact>
</mgrwt>
</event>
<event>
 7    0  0.4784406E-002  0.4561769E+03  0.7546771E-02  0.1025896E+00
         21   -1    0    0  502  501  0.00000000000E+00  0.00000000000E+00  0.35282953072E+03  0.35282953072E+03  0.00000000000E+00 0. -1.
         21   -1    0    0  501  502 -0.00000000000E+00 -0.00000000000E+00 -0.14744893200E+03  0.14744893200E+03  0.00000000000E+00 0. -1.
      99926    2    1    2    0    0 -0.35527136788E-14  0.00000000000E+00  0.20538059872E+03  0.50027846272E+03  0.45617688448E+03 0.  0.
      99925    2    3    3    0    0 -0.27294338006E+02 -0.11080317045E+03  0.12730738395E+03  0.31382402209E+03  0.26316539165E+03 0.  0.
         25    1    4    4    0    0 -0.33294673450E+02 -0.56214487123E+02  0.25410352498E+02  0.14339385606E+03  0.12509000000E+03 0.  0.
         25    1    4    4    0    0  0.60003354439E+01 -0.54588683324E+02  0.10189703145E+03  0.17043016602E+03  0.12509000000E+03 0.  0.
         25    1    3    3    0    0  0.27294338006E+02  0.11080317045E+03  0.78073214771E+02  0.18645444064E+03  0.12509000000E+03 0.  0.
<mgrwt>
<rscale>  2 0.45617688E+03</rscale>
<asrwt>0</asrwt>
<pdfrwt beam="1">  1       21 0.51886696E-01 0.45617688E+03</pdfrwt>
<pdfrwt beam="2">  1       21 0.21683667E-01 0.45617688E+03</pdfrwt>
<totfact> 0.64645060E+04</totfact>
</mgrwt>
</event>
<event>
 7    0  0.4784406E-002  0.4562643E+03  0.7546771E-02  0.1025870E+00
         21   -1    0    0  502  501  0.00000000000E+00  0.00000000000E+00  0.22452262489E+03  0.22452262489E+03  0.00000000000E+00 0.  1.
         21   -1    0    0  501  502 -0.00000000000E+00 -0.00000000000E+00 -0.23179972369E+03  0.23179972369E+03  0.00000000000E+00 0.  1.
      99926    2    1    2    0    0  0.00000000000E+00  0.71054273576E-14 -0.72770987931E+01  0.45632234858E+03  0.45626431993E+03 0.  0.
      99925    2    3    3    0    0  0.10011799638E+03 -0.55172040155E+02 -0.59143339621E+01  0.28686163796E+03  0.26303431863E+03 0.  0.
         25    1    4    4    0    0  0.43600835573E+02 -0.68056615666E+02 -0.25524378981E+01  0.14895220320E+03  0.12509000000E+03 0.  0.
         25    1    3    3    0    0 -0.10011799638E+03  0.55172040155E+02 -0.13627648310E+01  0.16946071061E+03  0.12509000000E+03 0.  0.
         25    1    4    4    0    0  0.56517160808E+02  0.12884575511E+02 -0.33618960640E+01  0.13790943476E+03  0.12509000000E+03 0.  0.
<mgrwt>
<rscale>  2 0.45626432E+03</rscale>
<asrwt>0</asrwt>
<pdfrwt beam="1">  1       21 0.33018033E-01 0.45626432E+03</pdfrwt>
<pdfrwt beam="2">  1       21 0.34088195E-01 0.45626432E+03</pdfrwt>
<totfact> 0.67762855E+04</totfact>
</mgrwt>
</event>
<event>
 7    0  0.4784406E-002  0.4322461E+03  0.7546771E-02  0.1033153E+00
         21   -1    0    0  502  501  0.00000000000E+00  0.00000000000E+00  0.39571661750E+03  0.39571661750E+03  0.00000000000E+00 0.  1.
         21   -1    0    0  501  502 -0.00000000000E+00 -0.00000000000E+00 -0.11803691660E+03  0.11803691660E+03  0.00000000000E+00 0.  1.
      99926    2    1    2    0    0  0.71054273576E-14 -0.14210854715E-13  0.27767970090E+03  0.51375353411E+03  0.43224608444E+03 0.  0.
      99925    2    3    3    0    0  0.33446124610E+02 -0.83633023398E+02  0.17376716755E+03  0.32785450630E+03  0.26302171569E+03 0.  0.
         25    1    4    4    0    0  0.12059067887E+02 -0.22466031033E+02  0.40504624364E+02  0.13393385070E+03  0.12509000000E+03 0.  0.
         25    1    4    4    0    0  0.21387056723E+02 -0.61166992365E+02  0.13326254319E+03  0.19392065560E+03  0.12509000000E+03 0.  0.
         25    1    3    3    0    0 -0.33446124610E+02  0.83633023398E+02  0.10391253335E+03  0.18589902781E+03  0.12509000000E+03 0.  0.
<mgrwt>
<rscale>  2 0.43224608E+03</rscale>
<asrwt>0</asrwt>
<pdfrwt beam="1">  1       21 0.58193620E-01 0.43224608E+03</pdfrwt>
<pdfrwt beam="2">  1       21 0.17358370E-01 0.43224608E+03</pdfrwt>
<totfact> 0.77350926E+04</totfact>
</mgrwt>
</event>
<event>
 7    0  0.4784406E-002  0.4498757E+03  0.7546771E-02  0.1027759E+00
         21   -1    0    0  502  501  0.00000000000E+00  0.00000000000E+00  0.73709212038E+03  0.73709212038E+03  0.00000000000E+00 0. -1.
         21   -1    0    0  501  502 -0.00000000000E+00 -0.00000000000E+00 -0.68644100138E+02  0.68644100138E+02  0.00000000000E+00 0. -1.
      99926    2    1    2    0    0  0.00000000000E+00  0.00000000000E+00  0.66844802024E+03  0.80573622052E+03  0.44987565092E+03 0.  0.
      99925    2    3    3    0    0 -0.35385025937E+02 -0.53896749442E+02  0.26652942058E+03  0.37989231893E+03  0.26291306983E+03 0.  0.
         25    1    3    3    0    0  0.35385025937E+02  0.53896749442E+02  0.40191859966E+03  0.42584390158E+03  0.12509000000E+03 0.  0.
         25    1    4    4    0    0 -0.54204223435E+02 -0.43128250212E+02  0.15533113154E+03  0.21112416330E+03  0.12509000000E+03 0.  0.
         25    1    4    4    0    0  0.18819197498E+02 -0.10768499230E+02  0.11119828903E+03  0.16876815563E+03  0.12509000000E+03 0.  0.
<mgrwt>
<rscale>  2 0.44987565E+03</rscale>
<asrwt>0</asrwt>
<pdfrwt beam="1">  1       21 0.10839590E+00 0.44987565E+03</pdfrwt>
<pdfrwt beam="2">  1       21 0.10094721E-01 0.44987565E+03</pdfrwt>
<totfact> 0.49447258E+04</totfact>
</mgrwt>
</event>
<event>
 7    0  0.4784406E-002  0.4595719E+03  0.7546771E-02  0.1024905E+00
         21   -1    0    0  502  501  0.00000000000E+00  0.00000000000E+00  0.11804774294E+03  0.11804774294E+03  0.00000000000E+00 0.  1.
         21   -1    0    0  501  502 -0.00000000000E+00 -0.00000000000E+00 -0.44729011313E+03  0.44729011313E+03  0.00000000000E+00 0.  1.
      99926    2    1    2    0    0  0.00000000000E+00  0.00000000000E+00 -0.32924237019E+03  0.56533785607E+03  0.45957192383E+03 0.  0.
      99925    2    3    3    0    0  0.86265131101E+02  0.52623308312E+02 -0.13281362353E+03  0.31148229470E+03  0.26300356631E+03 0.  0.
         25    1    4    4    0    0  0.22250337126E+02  0.12040686953E+02 -0.98594820375E+02  0.16127151748E+03  0.12509000000E+03 0.  0.
         25    1    4    4    0    0  0.64014793976E+02  0.40582621359E+02 -0.34218803154E+02  0.15021077722E+03  0.12509000000E+03 0.  0.
         25    1    3    3    0    0 -0.86265131101E+02 -0.52623308312E+02 -0.19642874666E+03  0.25385556137E+03  0.12509000000E+03 0.  0.
<mgrwt>
<rscale>  2 0.45957192E+03</rscale>
<asrwt>0</asrwt>
<pdfrwt beam="1">  1       21 0.17359962E-01 0.45957192E+03</pdfrwt>
<pdfrwt beam="2">  1       21 0.65777959E-01 0.45957192E+03</pdfrwt>
<totfact> 0.58712267E+04</totfact>
</mgrwt>
</event>
<event>
 7    0  0.4784406E-002  0.4491257E+03  0.7546771E-02  0.1027983E+00
         21   -1    0    0  502  501  0.00000000000E+00  0.00000000000E+00  0.24168916686E+03  0.24168916686E+03  0.00000000000E+00 0. -1.
         21   -1    0    0  501  502 -0.00000000000E+00 -0.00000000000E+00 -0.20865007726E+03  0.20865007726E+03  0.00000000000E+00 0. -1.
      99926    2    1    2    0    0  0.00000000000E+00  0.17763568394E-14  0.33039089600E+02  0.45033924413E+03  0.44912565431E+03 0.  0.
      99925    2    3    3    0    0  0.95790134897E+02 -0.12076925893E+02 -0.25946789424E+02  0.28167257846E+03  0.26333363532E+03 0.  0.
         25    1    4    4    0    0  0.69786262966E+02  0.11108713915E+02 -0.44725787385E+02  0.15047069542E+03  0.12509000000E+03 0.  0.
         25    1    4    4    0    0  0.26003871930E+02 -0.23185639807E+02  0.18778997961E+02  0.13120188304E+03  0.12509000000E+03 0.  0.
         25    1    3    3    0    0 -0.95790134897E+02  0.12076925893E+02  0.58985879024E+02  0.16866666567E+03  0.12509000000E+03 0.  0.
<mgrwt>
<rscale>  2 0.44912565E+03</rscale>
<asrwt>0</asrwt>
<pdfrwt beam="1">  1       21 0.35542525E-01 0.44912565E+03</pdfrwt>
<pdfrwt beam="2">  1       21 0.30683835E-01 0.44912565E+03</pdfrwt>
<totfact> 0.72214419E+04</totfact>
</mgrwt>
</event>
<event>
 7    0  0.4784406E-002  0.4528577E+03  0.7546771E-02  0.1026873E+00
         21   -1    0    0  502  501  0.00000000000E+00  0.00000000000E+00  0.31989520707E+03  0.31989520707E+03  0.00000000000E+00 0.  1.
         21   -1    0    0  501  502 -0.00000000000E+00 -0.00000000000E+00 -0.16027129535E+03  0.16027129535E+03  0.00000000000E+00 0.  1.
      99926    2    1    2    0    0  0.00000000000E+00  0.00000000000E+00  0.15962391172E+03  0.48016650242E+03  0.45285767837E+03 0.  0.
      99925    2    3    3    0    0  0.80790290357E+02 -0.31856276659E+02  0.17415186224E+03  0.32719440423E+03  0.26303120283E+03 0.  0.
         25    1    4    4    0    0  0.55366591640E+02 -0.53612212900E+02  0.81960411696E+02  0.16824014392E+03  0.12509000000E+03 0.  0.
         25    1    4    4    0    0  0.25423698717E+02  0.21755936241E+02  0.92191450542E+02  0.15895426031E+03  0.12509000000E+03 0.  0.
         25    1    3    3    0    0 -0.80790290357E+02  0.31856276659E+02 -0.14527950514E+02  0.15297209819E+03  0.12509000000E+03 0.  0.
<mgrwt>
<rscale>  2 0.45285768E+03</rscale>
<asrwt>0</asrwt>
<pdfrwt beam="1">  1       21 0.47043413E-01 0.45285768E+03</pdfrwt>
<pdfrwt beam="2">  1       21 0.23569308E-01 0.45285768E+03</pdfrwt>
<totfact> 0.67834200E+04</totfact>
</mgrwt>
</event>
<event>
 7    0  0.4784406E-002  0.4188767E+03  0.7546771E-02  0.1037433E+00
         21   -1    0    0  502  501  0.00000000000E+00  0.00000000000E+00  0.81074887158E+02  0.81074887158E+02  0.00000000000E+00 0.  1.
         21   -1    0    0  501  502 -0.00000000000E+00 -0.00000000000E+00 -0.54103585899E+03  0.54103585899E+03  0.00000000000E+00 0.  1.
      99926    2    1    2    0    0  0.00000000000E+00  0.00000000000E+00 -0.45996097183E+03  0.62211074615E+03  0.41887669410E+03 0.  0.
      99925    2    3    3    0    0  0.52194117352E+02 -0.15444219385E+02 -0.22465693546E+03  0.35012132093E+03  0.26296663461E+03 0.  0.
         25    1    3    3    0    0 -0.52194117352E+02  0.15444219385E+02 -0.23530403637E+03  0.27198942522E+03  0.12509000000E+03 0.  0.
         25    1    4    4    0    0 -0.21480779113E+01  0.20730578972E+02 -0.11830158797E+03  0.17342763609E+03  0.12509000000E+03 0.  0.
         25    1    4    4    0    0  0.54342195263E+02 -0.36174798357E+02 -0.10635534749E+03  0.17669368484E+03  0.12509000000E+03 0.  0.
<mgrwt>
<rscale>  2 0.41887669E+03</rscale>
<asrwt>0</asrwt>
<pdfrwt beam="1">  1       21 0.11922777E-01 0.41887669E+03</pdfrwt>
<pdfrwt beam="2">  1       21 0.79564099E-01 0.41887669E+03</pdfrwt>
<totfact> 0.77068385E+04</totfact>
</mgrwt>
</event>
<event>
 7    0  0.4784406E-002  0.4618625E+03  0.7546771E-02  0.1024242E+00
         21   -1    0    0  502  501  0.00000000000E+00  0.00000000000E+00  0.19308123191E+03  0.19308123191E+03  0.00000000000E+00 0.  1.
         21   -1    0    0  501  502 -0.00000000000E+00 -0.00000000000E+00 -0.27620109929E+03  0.27620109929E+03  0.00000000000E+00 0.  1.
      99926    2    1    2    0    0  0.00000000000E+00  0.00000000000E+00 -0.83119867379E+02  0.46928233120E+03  0.46186252719E+03 0.  0.
      99925    2    3    3    0    0  0.11468299022E+03  0.33280282761E+02 -0.57517619090E+02  0.29446028257E+03  0.26294260979E+03 0.  0.
         25    1    3    3    0    0 -0.11468299022E+03 -0.33280282761E+02 -0.25602248289E+02  0.17482204862E+03  0.12509000000E+03 0.  0.
         25    1    4    4    0    0  0.22113599211E+02  0.19597152671E+02 -0.16170692756E+01  0.12854253256E+03  0.12509000000E+03 0.  0.
         25    1    4    4    0    0  0.92569391013E+02  0.13683130090E+02 -0.55900549815E+02  0.16591775002E+03  0.12509000000E+03 0.  0.
<mgrwt>
<rscale>  2 0.46186253E+03</rscale>
<asrwt>0</asrwt>
<pdfrwt beam="1">  1       21 0.28394299E-01 0.46186253E+03</pdfrwt>
<pdfrwt beam="2">  1       21 0.40617809E-01 0.46186253E+03</pdfrwt>
<totfact> 0.63933859E+04</totfact>
</mgrwt>
</event>
<event>
 7    0  0.4784406E-002  0.4600001E+03  0.7546771E-02  0.1024781E+00
         21   -1    0    0  502  501  0.00000000000E+00  0.00000000000E+00  0.16800483215E+03  0.16800483215E+03  0.00000000000E+00 0.  1.
         21   -1    0    0  501  502 -0.00000000000E+00 -0.00000000000E+00 -0.31487200053E+03  0.31487200053E+03  0.00000000000E+00 0.  1.
      99926    2    1    2    0    0  0.00000000000E+00  0.00000000000E+00 -0.14686716838E+03  0.48287683268E+03  0.46000007651E+03 0.  0.
      99925    2    3    3    0    0  0.11075832327E+03  0.39602474799E+02 -0.89552724323E+02  0.30185690068E+03  0.26317700483E+03 0.  0.
         25    1    4    4    0    0  0.49575768585E+02  0.59611374144E+02 -0.37672035037E+02  0.15191432810E+03  0.12509000000E+03 0.  0.
         25    1    4    4    0    0  0.61182554689E+02 -0.20008899345E+02 -0.51880689286E+02  0.14994257258E+03  0.12509000000E+03 0.  0.
         25    1    3    3    0    0 -0.11075832327E+03 -0.39602474799E+02 -0.57314444061E+02  0.18101993200E+03  0.12509000000E+03 0.  0.
<mgrwt>
<rscale>  2 0.46000008E+03</rscale>
<asrwt>0</asrwt>
<pdfrwt beam="1">  1       21 0.24706593E-01 0.46000008E+03</pdfrwt>
<pdfrwt beam="2">  1       21 0.46304706E-01 0.46000008E+03</pdfrwt>
<totfact> 0.63916654E+04</totfact>
</mgrwt>
</event>
<event>
 7    0  0.4784406E-002  0.4547651E+03  0.7546771E-02  0.1026311E+00
         21   -1    0    0  502  501  0.00000000000E+00  0.00000000000E+00  0.40240617809E+03  0.40240617809E+03  0.00000000000E+00 0. -1.
         21   -1    0    0  501  502 -0.00000000000E+00 -0.00000000000E+00 -0.12848416118E+03  0.12848416118E+03  0.00000000000E+00 0. -1.
      99926    2    1    2    0    0  0.00000000000E+00  0.00000000000E+00  0.27392201690E+03  0.53089033927E+03  0.45476508330E+03 0.  0.
      99925    2    3    3    0    0 -0.69135547411E+02 -0.80790567651E+02  0.21668433866E+03  0.35702113657E+03  0.26306871650E+03 0.  0.
         25    1    3    3    0    0  0.69135547411E+02  0.80790567651E+02  0.57237678240E+02  0.17386920270E+03  0.12509000000E+03 0.  0.
         25    1    4    4    0    0 -0.60279336290E+02 -0.90705359981E+01  0.11172714560E+03  0.17845541788E+03  0.12509000000E+03 0.  0.
         25    1    4    4    0    0 -0.88562111210E+01 -0.71720031653E+02  0.10495719307E+03  0.17856571869E+03  0.12509000000E+03 0.  0.
<mgrwt>
<rscale>  2 0.45476508E+03</rscale>
<asrwt>0</asrwt>
<pdfrwt beam="1">  1       21 0.59177379E-01 0.45476508E+03</pdfrwt>
<pdfrwt beam="2">  1       21 0.18894730E-01 0.45476508E+03</pdfrwt>
<totfact> 0.63263994E+04</totfact>
</mgrwt>
</event>
<event>
 7    0  0.4784406E-002  0.4579038E+03  0.7546771E-02  0.1025391E+00
         21   -1    0    0  502  501  0.00000000000E+00  0.00000000000E+00  0.12362469421E+03  0.12362469421E+03  0.00000000000E+00 0.  1.
         21   -1    0    0  501  502 -0.00000000000E+00 -0.00000000000E+00 -0.42401691684E+03  0.42401691684E+03  0.00000000000E+00 0.  1.
      99926    2    1    2    0    0 -0.35527136788E-14  0.00000000000E+00 -0.30039222263E+03  0.54764161105E+03  0.45790375270E+03 0.  0.
      99925    2    3    3    0    0  0.98041073355E+01  0.62230830496E+02 -0.30471353271E+03  0.40751674315E+03  0.26315539543E+03 0.  0.
         25    1    4    4    0    0  0.28877427453E+02 -0.21927323795E+00 -0.16358271158E+03  0.20794414039E+03  0.12509000000E+03 0.  0.
         25    1    4    4    0    0 -0.19073320117E+02  0.62450103734E+02 -0.14113082113E+03  0.19957260275E+03  0.12509000000E+03 0.  0.
         25    1    3    3    0    0 -0.98041073355E+01 -0.62230830496E+02  0.43213100796E+01  0.14012486791E+03  0.12509000000E+03 0.  0.
<mgrwt>
<rscale>  2 0.45790375E+03</rscale>
<asrwt>0</asrwt>
<pdfrwt beam="1">  1       21 0.18180102E-01 0.45790375E+03</pdfrwt>
<pdfrwt beam="2">  1       21 0.62355430E-01 0.45790375E+03</pdfrwt>
<totfact> 0.60617834E+04</totfact>
</mgrwt>
</event>
<event>
 7    0  0.4784406E-002  0.4511695E+03  0.7546771E-02  0.1027374E+00
         21   -1    0    0  502  501  0.00000000000E+00  0.00000000000E+00  0.87865552325E+03  0.87865552325E+03  0.00000000000E+00 0.  1.
         21   -1    0    0  501  502 -0.00000000000E+00 -0.00000000000E+00 -0.57916303426E+02  0.57916303426E+02  0.00000000000E+00 0.  1.
      99926    2    1    2    0    0  0.17763568394E-14  0.00000000000E+00  0.82073921983E+03  0.93657182668E+03  0.45116950203E+03 0.  0.
      99925    2    3    3    0    0  0.10848154269E+02  0.10293119934E+03  0.59266351113E+03  0.65661013064E+03  0.26301009865E+03 0.  0.
         25    1    3    3    0    0 -0.10848154269E+02 -0.10293119934E+03  0.22807570870E+03  0.27996169604E+03  0.12509000000E+03 0.  0.
         25    1    4    4    0    0 -0.29594033850E+02  0.34658005512E+02  0.31295514556E+03  0.34009618554E+03  0.12509000000E+03 0.  0.
         25    1    4    4    0    0  0.40442188120E+02  0.68273193831E+02  0.27970836557E+03  0.31651394510E+03  0.12509000000E+03 0.  0.
<mgrwt>
<rscale>  2 0.45116950E+03</rscale>
<asrwt>0</asrwt>
<pdfrwt beam="1">  1       21 0.12921404E+00 0.45116950E+03</pdfrwt>
<pdfrwt beam="2">  1       21 0.85171040E-02 0.45116950E+03</pdfrwt>
<totfact> 0.42962076E+04</totfact>
</mgrwt>
</event>
<event>
 7    0  0.4784406E-002  0.4526594E+03  0.7546771E-02  0.1026932E+00
         21   -1    0    0  502  501  0.00000000000E+00  0.00000000000E+00  0.10114761248E+03  0.10114761248E+03  0.00000000000E+00 0.  1.
         21   -1    0    0  501  502 -0.00000000000E+00 -0.00000000000E+00 -0.50643929139E+03  0.50643929139E+03  0.00000000000E+00 0.  1.
      99926    2    1    2    0    0  0.00000000000E+00 -0.71054273576E-14 -0.40529167891E+03  0.60758690387E+03  0.45265936504E+03 0.  0.
      99925    2    3    3    0    0  0.10355456616E+03  0.39652492682E+02 -0.26060232719E+03  0.38650233871E+03  0.26301067762E+03 0.  0.
         25    1    4    4    0    0  0.80854055336E+02 -0.91864264447E+01 -0.13788014553E+03  0.20317532165E+03  0.12509000000E+03 0.  0.
         25    1    4    4    0    0  0.22700510828E+02  0.48838919127E+02 -0.12272218166E+03  0.18332701706E+03  0.12509000000E+03 0.  0.
         25    1    3    3    0    0 -0.10355456616E+03 -0.39652492682E+02 -0.14468935172E+03  0.22108456516E+03  0.12509000000E+03 0.  0.
<mgrwt>
<rscale>  2 0.45265937E+03</rscale>
<asrwt>0</asrwt>
<pdfrwt beam="1">  1       21 0.14874649E-01 0.45265937E+03</pdfrwt>
<pdfrwt beam="2">  1       21 0.74476366E-01 0.45265937E+03</pdfrwt>
<totfact> 0.59302588E+04</totfact>
</mgrwt>
</event>
<event>
 7    0  0.4784406E-002  0.4359589E+03  0.7546771E-02  0.1031994E+00
         21   -1    0    0  502  501  0.00000000000E+00  0.00000000000E+00  0.38717612223E+02  0.38717612223E+02  0.00000000000E+00 0.  1.
         21   -1    0    0  501  502 -0.00000000000E+00 -0.00000000000E+00 -0.12272206009E+04  0.12272206009E+04  0.00000000000E+00 0.  1.
      99926    2    1    2    0    0  0.35527136788E-14  0.35527136788E-14 -0.11885029887E+04  0.12659382131E+04  0.43595894916E+03 0.  0.
      99925    2    3    3    0    0 -0.22661478770E+02 -0.25805548274E+02 -0.50740208252E+03  0.57259455994E+03  0.26311250024E+03 0.  0.
         25    1    4    4    0    0 -0.40271441327E+01  0.10791823909E+02 -0.31813767280E+03  0.34204059453E+03  0.12509000000E+03 0.  0.
         25    1    4    4    0    0 -0.18634334638E+02 -0.36597372184E+02 -0.18926440972E+03  0.23055396540E+03  0.12509000000E+03 0.  0.
         25    1    3    3    0    0  0.22661478770E+02  0.25805548274E+02 -0.68110090615E+03  0.69334365318E+03  0.12509000000E+03 0.  0.
<mgrwt>
<rscale>  2 0.43595895E+03</rscale>
<asrwt>0</asrwt>
<pdfrwt beam="1">  1       21 0.56937667E-02 0.43595895E+03</pdfrwt>
<pdfrwt beam="2">  1       21 0.18047361E+00 0.43595895E+03</pdfrwt>
<totfact> 0.35028744E+04</totfact>
</mgrwt>
</event>
<event>
 7    0  0.4784406E-002  0.4549667E+03  0.7546771E-02  0.1026251E+00
         21   -1    0    0  502  501  0.00000000000E+00  0.00000000000E+00  0.75446414360E+02  0.75446414360E+02  0.00000000000E+00 0. -1.
         21   -1    0    0  501  502 -0.00000000000E+00 -0.00000000000E+00 -0.68589957249E+03  0.68589957249E+03  0.00000000000E+00 0. -1.
      99926    2    1    2    0    0  0.17763568394E-14  0.00000000000E+00 -0.61045315813E+03  0.76134598685E+03  0.45496665089E+03 0.  0.
      99925    2    3    3    0    0  0.55953283190E+01 -0.10670464469E+03 -0.44662599495E+03  0.52917355870E+03  0.26293095475E+03 0.  0.
         25    1    4    4    0    0  0.28130174835E+02 -0.23925518355E+02 -0.23554897239E+03  0.26924814513E+03  0.12509000000E+03 0.  0.
         25    1    4    4    0    0 -0.22534846516E+02 -0.82779126338E+02 -0.21107702256E+03  0.25992541356E+03  0.12509000000E+03 0.  0.
         25    1    3    3    0    0 -0.55953283190E+01  0.10670464469E+03 -0.16382716319E+03  0.23217242816E+03  0.12509000000E+03 0.  0.
<mgrwt>
<rscale>  2 0.45496665E+03</rscale>
<asrwt>0</asrwt>
<pdfrwt beam="1">  1       21 0.11095061E-01 0.45496665E+03</pdfrwt>
<pdfrwt beam="2">  1       21 0.10086759E+00 0.45496665E+03</pdfrwt>
<totfact> 0.49703922E+04</totfact>
</mgrwt>
</event>
<event>
 7    0  0.4784406E-002  0.4674488E+03  0.7546771E-02  0.1022643E+00
         21   -1    0    0  502  501  0.00000000000E+00  0.00000000000E+00  0.12959615295E+04  0.12959615295E+04  0.00000000000E+00 0.  1.
         21   -1    0    0  501  502 -0.00000000000E+00 -0.00000000000E+00 -0.42151793705E+02  0.42151793705E+02  0.00000000000E+00 0.  1.
      99926    2    1    2    0    0  0.00000000000E+00  0.00000000000E+00  0.12538097358E+04  0.13381133232E+04  0.46744883374E+03 0.  0.
      99925    2    3    3    0    0  0.60031851200E+02  0.10797403763E+03  0.74176790375E+03  0.79672939121E+03  0.26324111347E+03 0.  0.
         25    1    3    3    0    0 -0.60031851200E+02 -0.10797403763E+03  0.51204183203E+03  0.54138393198E+03  0.12509000000E+03 0.  0.
         25    1    4    4    0    0  0.75846621835E+01  0.46586088390E+02  0.44589904496E+03  0.46551182276E+03  0.12509000000E+03 0.  0.
         25    1    4    4    0    0  0.52447189016E+02  0.61387949237E+02  0.29586885878E+03  0.33121756844E+03  0.12509000000E+03 0.  0.
<mgrwt>
<rscale>  2 0.46744883E+03</rscale>
<asrwt>0</asrwt>
<pdfrwt beam="1">  1       21 0.19058255E+00 0.46744883E+03</pdfrwt>
<pdfrwt beam="2">  1       21 0.61987941E-02 0.46744883E+03</pdfrwt>
<totfact> 0.25471303E+04</totfact>
</mgrwt>
</event>
<event>
 7    0  0.4784406E-002  0.4484957E+03  0.7546771E-02  0.1028172E+00
         21   -1    0    0  502  501  0.00000000000E+00  0.00000000000E+00  0.26102981275E+03  0.26102981275E+03  0.00000000000E+00 0. -1.
         21   -1    0    0  501  502 -0.00000000000E+00 -0.00000000000E+00 -0.19264884866E+03  0.19264884866E+03  0.00000000000E+00 0. -1.
      99926    2    1    2    0    0  0.00000000000E+00  0.00000000000E+00  0.68380964096E+02  0.45367866141E+03  0.44849567620E+03 0.  0.
      99925    2    3    3    0    0 -0.63653079175E+02 -0.80662273171E+02  0.12398845367E+02  0.28239053421E+03  0.26274049106E+03 0.  0.
         25    1    4    4    0    0  0.62137089576E+00 -0.62949078266E+02  0.13018663521E+02  0.14064126797E+03  0.12509000000E+03 0.  0.
         25    1    3    3    0    0  0.63653079175E+02  0.80662273171E+02  0.55982118729E+02  0.17128812720E+03  0.12509000000E+03 0.  0.
         25    1    4    4    0    0 -0.64274450071E+02 -0.17713194906E+02 -0.61981815392E+00  0.14174926624E+03  0.12509000000E+03 0.  0.
<mgrwt>
<rscale>  2 0.44849568E+03</rscale>
<asrwt>0</asrwt>
<pdfrwt beam="1">  1       21 0.38386737E-01 0.44849568E+03</pdfrwt>
<pdfrwt beam="2">  1       21 0.28330713E-01 0.44849568E+03</pdfrwt>
<totfact> 0.72322895E+04</totfact>
</mgrwt>
</event>
<event>
 7    0  0.4784406E-002  0.4422099E+03  0.7546771E-02  0.1030071E+00
         21   -1    0    0  502  501  0.00000000000E+00  0.00000000000E+00  0.16043628571E+03  0.16043628571E+03  0.00000000000E+00 0.  1.
         21   -1    0    0  501  502 -0.00000000000E+00 -0.00000000000E+00 -0.30471530258E+03  0.30471530258E+03  0.00000000000E+00 0.  1.
      99926    2    1    2    0    0  0.00000000000E+00 -0.88817841970E-15 -0.14427901688E+03  0.46515158829E+03  0.44220986576E+03 0.  0.
      99925    2    3    3    0    0 -0.31420590735E+02  0.33880581916E+01  0.74163702358E+01  0.26600909902E+03  0.26402103279E+03 0.  0.
         25    1    4    4    0    0 -0.27577908733E+02  0.37353668811E+02  0.23009736645E+02  0.13539864735E+03  0.12509000000E+03 0.  0.
         25    1    4    4    0    0 -0.38426820022E+01 -0.33965610619E+02 -0.15593366409E+02  0.13061045167E+03  0.12509000000E+03 0.  0.
         25    1    3    3    0    0  0.31420590735E+02 -0.33880581916E+01 -0.15169538711E+03  0.19914248927E+03  0.12509000000E+03 0.  0.
<mgrwt>
<rscale>  2 0.44220987E+03</rscale>
<asrwt>0</asrwt>
<pdfrwt beam="1">  1       21 0.23593572E-01 0.44220987E+03</pdfrwt>
<pdfrwt beam="2">  1       21 0.44811073E-01 0.44220987E+03</pdfrwt>
<totfact> 0.75138831E+04</totfact>
</mgrwt>
</event>
<event>
 7    0  0.4784406E-002  0.4390262E+03  0.7546771E-02  0.1031046E+00
         21   -1    0    0  502  501  0.00000000000E+00  0.00000000000E+00  0.32114070829E+03  0.32114070829E+03  0.00000000000E+00 0.  1.
         21   -1    0    0  501  502 -0.00000000000E+00 -0.00000000000E+00 -0.15004636797E+03  0.15004636797E+03  0.00000000000E+00 0.  1.
      99926    2    1    2    0    0  0.00000000000E+00  0.00000000000E+00  0.17109434031E+03  0.47118707626E+03  0.43902618094E+03 0.  0.
      99925    2    3    3    0    0  0.74563778518E+02 -0.41491564445E+02  0.59074753267E+02  0.28283314620E+03  0.26310350649E+03 0.  0.
         25    1    4    4    0    0  0.59315360340E+02 -0.49957462319E+02  0.52849561703E+02  0.15637980779E+03  0.12509000000E+03 0.  0.
         25    1    3    3    0    0 -0.74563778518E+02  0.41491564445E+02  0.11201958705E+03  0.18835393006E+03  0.12509000000E+03 0.  0.
         25    1    4    4    0    0  0.15248418178E+02  0.84658978747E+01  0.62251915639E+01  0.12645333840E+03  0.12509000000E+03 0.  0.
<mgrwt>
<rscale>  2 0.43902618E+03</rscale>
<asrwt>0</asrwt>
<pdfrwt beam="1">  1       21 0.47226575E-01 0.43902618E+03</pdfrwt>
<pdfrwt beam="2">  1       21 0.22065642E-01 0.43902618E+03</pdfrwt>
<totfact> 0.76609627E+04</totfact>
</mgrwt>
</event>
<event>
 7    0  0.4784406E-002  0.4525006E+03  0.7546771E-02  0.1026979E+00
         21   -1    0    0  502  501  0.00000000000E+00  0.00000000000E+00  0.68372311050E+03  0.68372311050E+03  0.00000000000E+00 0. -1.
         21   -1    0    0  501  502 -0.00000000000E+00 -0.00000000000E+00 -0.74868310906E+02  0.74868310906E+02  0.00000000000E+00 0. -1.
      99926    2    1    2    0    0  0.00000000000E+00  0.00000000000E+00  0.60885479959E+03  0.75859142141E+03  0.45250058303E+03 0.  0.
      99925    2    3    3    0    0 -0.76919791852E+02 -0.67206598571E+02  0.31189770990E+03  0.42056124155E+03  0.26297945773E+03 0.  0.
         25    1    3    3    0    0  0.76919791852E+02  0.67206598571E+02  0.29695708970E+03  0.33803017985E+03  0.12509000000E+03 0.  0.
         25    1    4    4    0    0 -0.27351890272E+02 -0.60269927790E+02  0.20227466529E+03  0.24686664095E+03  0.12509000000E+03 0.  0.
         25    1    4    4    0    0 -0.49567901581E+02 -0.69366707805E+01  0.10962304460E+03  0.17369460060E+03  0.12509000000E+03 0.  0.
<mgrwt>
<rscale>  2 0.45250058E+03</rscale>
<asrwt>0</asrwt>
<pdfrwt beam="1">  1       21 0.10054751E+00 0.45250058E+03</pdfrwt>
<pdfrwt beam="2">  1       21 0.11010046E-01 0.45250058E+03</pdfrwt>
<totfact> 0.50822393E+04</totfact>
</mgrwt>
</event>
<event>
 7    0  0.4784406E-002  0.4546550E+03  0.7546771E-02  0.1026343E+00
         21   -1    0    0  502  501  0.00000000000E+00  0.00000000000E+00  0.18880451444E+03  0.18880451444E+03  0.00000000000E+00 0.  1.
         21   -1    0    0  501  502 -0.00000000000E+00 -0.00000000000E+00 -0.27371059422E+03  0.27371059422E+03  0.00000000000E+00 0.  1.
      99926    2    1    2    0    0  0.00000000000E+00  0.00000000000E+00 -0.84906079775E+02  0.46251510866E+03  0.45465501577E+03 0.  0.
      99925    2    3    3    0    0  0.20534144788E+02 -0.10849531647E+03 -0.29866569656E+02  0.28681724137E+03  0.26301945397E+03 0.  0.
         25    1    4    4    0    0  0.43328332467E+02 -0.33621901108E+02 -0.16947541633E+01  0.13659486418E+03  0.12509000000E+03 0.  0.
         25    1    3    3    0    0 -0.20534144788E+02  0.10849531647E+03 -0.55039510119E+02  0.17569786730E+03  0.12509000000E+03 0.  0.
         25    1    4    4    0    0 -0.22794187679E+02 -0.74873415364E+02 -0.28171815493E+02  0.15022237719E+03  0.12509000000E+03 0.  0.
<mgrwt>
<rscale>  2 0.45465502E+03</rscale>
<asrwt>0</asrwt>
<pdfrwt beam="1">  1       21 0.27765370E-01 0.45465502E+03</pdfrwt>
<pdfrwt beam="2">  1       21 0.40251558E-01 0.45465502E+03</pdfrwt>
<totfact> 0.68181799E+04</totfact>
</mgrwt>
</event>
<event>
 7    0  0.4784406E-002  0.4548733E+03  0.7546771E-02  0.1026279E+00
         21   -1    0    0  502  501  0.00000000000E+00  0.00000000000E+00  0.12026442327E+04  0.12026442327E+04  0.00000000000E+00 0.  1.
         21   -1    0    0  501  502 -0.00000000000E+00 -0.00000000000E+00 -0.43011418787E+02  0.43011418787E+02  0.00000000000E+00 0.  1.
      99926    2    1    2    0    0  0.00000000000E+00  0.00000000000E+00  0.11596328140E+04  0.12456556515E+04  0.45487332191E+03 0.  0.
      99925    2    3    3    0    0  0.49940436693E+02 -0.38934212895E+02  0.47255850526E+03  0.54442207139E+03  0.26281919787E+03 0.  0.
         25    1    4    4    0    0  0.31016060879E+02 -0.21183872791E+02  0.15853070490E+03  0.20540264116E+03  0.12509000000E+03 0.  0.
         25    1    3    3    0    0 -0.49940436693E+02  0.38934212895E+02  0.68707430869E+03  0.70123358014E+03  0.12509000000E+03 0.  0.
         25    1    4    4    0    0  0.18924375814E+02 -0.17750340104E+02  0.31402780036E+03  0.33901943023E+03  0.12509000000E+03 0.  0.
<mgrwt>
<rscale>  2 0.45487332E+03</rscale>
<asrwt>0</asrwt>
<pdfrwt beam="1">  1       21 0.17685942E+00 0.45487332E+03</pdfrwt>
<pdfrwt beam="2">  1       21 0.63252094E-02 0.45487332E+03</pdfrwt>
<totfact> 0.30765033E+04</totfact>
</mgrwt>
</event>
<event>
 7    0  0.4784406E-002  0.4406574E+03  0.7546771E-02  0.1030545E+00
         21   -1    0    0  502  501  0.00000000000E+00  0.00000000000E+00  0.18254453584E+04  0.18254453584E+04  0.00000000000E+00 0.  1.
         21   -1    0    0  501  502 -0.00000000000E+00 -0.00000000000E+00 -0.26593366072E+02  0.26593366072E+02  0.00000000000E+00 0.  1.
      99926    2    1    2    0    0  0.00000000000E+00 -0.71054273576E-14  0.17988519923E+04  0.18520387244E+04  0.44065740279E+03 0.  0.
      99925    2    3    3    0    0 -0.81991779411E+02 -0.50328564796E+02  0.10520707126E+04  0.10887659003E+04  0.26325422111E+03 0.  0.
         25    1    4    4    0    0 -0.16933517361E+02 -0.57937276819E+02  0.50172376712E+03  0.52059362140E+03  0.12509000000E+03 0.  0.
         25    1    4    4    0    0 -0.65058262050E+02  0.76087120233E+01  0.55034694548E+03  0.56817227885E+03  0.12509000000E+03 0.  0.
         25    1    3    3    0    0  0.81991779411E+02  0.50328564796E+02  0.74678127970E+03  0.76327282418E+03  0.12509000000E+03 0.  0.
<mgrwt>
<rscale>  2 0.44065740E+03</rscale>
<asrwt>0</asrwt>
<pdfrwt beam="1">  1       21 0.26844776E+00 0.44065740E+03</pdfrwt>
<pdfrwt beam="2">  1       21 0.39107904E-02 0.44065740E+03</pdfrwt>
<totfact> 0.18225470E+04</totfact>
</mgrwt>
</event>
<event>
 7    0  0.4784406E-002  0.4555023E+03  0.7546771E-02  0.1026094E+00
         21   -1    0    0  502  501  0.00000000000E+00  0.00000000000E+00  0.89110848735E+02  0.89110848735E+02  0.00000000000E+00 0. -1.
         21   -1    0    0  501  502 -0.00000000000E+00 -0.00000000000E+00 -0.58209058951E+03  0.58209058951E+03  0.00000000000E+00 0. -1.
      99926    2    1    2    0    0  0.00000000000E+00  0.00000000000E+00 -0.49297974078E+03  0.67120143825E+03  0.45550230064E+03 0.  0.
      99925    2    3    3    0    0 -0.10157233984E+03 -0.26020625871E+02 -0.37458301293E+03  0.46955990866E+03  0.26302102777E+03 0.  0.
         25    1    4    4    0    0 -0.78879970440E+02  0.15981908751E+02 -0.18296339564E+03  0.23579775951E+03  0.12509000000E+03 0.  0.
         25    1    3    3    0    0  0.10157233984E+03  0.26020625871E+02 -0.11839672784E+03  0.20164152959E+03  0.12509000000E+03 0.  0.
         25    1    4    4    0    0 -0.22692369402E+02 -0.42002534622E+02 -0.19161961729E+03  0.23376214915E+03  0.12509000000E+03 0.  0.
<mgrwt>
<rscale>  2 0.45550230E+03</rscale>
<asrwt>0</asrwt>
<pdfrwt beam="1">  1       21 0.13104537E-01 0.45550230E+03</pdfrwt>
<pdfrwt beam="2">  1       21 0.85601555E-01 0.45550230E+03</pdfrwt>
<totfact> 0.54279504E+04</totfact>
</mgrwt>
</event>
<event>
 7    0  0.4784406E-002  0.4506360E+03  0.7546771E-02  0.1027533E+00
         21   -1    0    0  502  501  0.00000000000E+00  0.00000000000E+00  0.10048706071E+03  0.10048706071E+03  0.00000000000E+00 0. -1.
         21   -1    0    0  501  502 -0.00000000000E+00 -0.00000000000E+00 -0.50522122493E+03  0.50522122493E+03  0.00000000000E+00 0. -1.
      99926    2    1    2    0    0  0.00000000000E+00  0.00000000000E+00 -0.40473416421E+03  0.60570828564E+03  0.45063597683E+03 0.  0.
      99925    2    3    3    0    0 -0.16507399581E+02  0.10379565087E+03 -0.29446548491E+03  0.40859734958E+03  0.26305102338E+03 0.  0.
         25    1    4    4    0    0 -0.52703859719E+01  0.35739746964E+02 -0.86569011707E+02  0.15635475167E+03  0.12509000000E+03 0.  0.
         25    1    4    4    0    0 -0.11237013609E+02  0.68055903901E+02 -0.20789647320E+03  0.25224259791E+03  0.12509000000E+03 0.  0.
         25    1    3    3    0    0  0.16507399581E+02 -0.10379565087E+03 -0.11026867930E+03  0.19711093606E+03  0.12509000000E+03 0.  0.
<mgrwt>
<rscale>  2 0.45063598E+03</rscale>
<asrwt>0</asrwt>
<pdfrwt beam="1">  1       21 0.14777509E-01 0.45063598E+03</pdfrwt>
<pdfrwt beam="2">  1       21 0.74297238E-01 0.45063598E+03</pdfrwt>
<totfact> 0.60383201E+04</totfact>
</mgrwt>
</event>
<event>
 7    0  0.4784406E-002  0.4397587E+03  0.7546771E-02  0.1030821E+00
         21   -1    0    0  502  501  0.00000000000E+00  0.00000000000E+00  0.33913016449E+03  0.33913016449E+03  0.00000000000E+00 0.  1.
         21   -1    0    0  501  502 -0.00000000000E+00 -0.00000000000E+00 -0.14256153888E+03  0.14256153888E+03  0.00000000000E+00 0.  1.
      99926    2    1    2    0    0 -0.71054273576E-14  0.00000000000E+00  0.19656862562E+03  0.48169170337E+03  0.43975865258E+03 0.  0.
      99925    2    3    3    0    0 -0.32355168896E+02 -0.32817888330E+02  0.30667392605E+02  0.26886642770E+03  0.26310605509E+03 0.  0.
         25    1    4    4    0    0  0.13624235660E+02 -0.40959566149E+02  0.22126438537E+01  0.13234692950E+03  0.12509000000E+03 0.  0.
         25    1    3    3    0    0  0.32355168896E+02  0.32817888330E+02  0.16590123301E+03  0.21282527567E+03  0.12509000000E+03 0.  0.
         25    1    4    4    0    0 -0.45979404555E+02  0.81416778189E+01  0.28454748752E+02  0.13651949820E+03  0.12509000000E+03 0.  0.
<mgrwt>
<rscale>  2 0.43975865E+03</rscale>
<asrwt>0</asrwt>
<pdfrwt beam="1">  1       21 0.49872083E-01 0.43975865E+03</pdfrwt>
<pdfrwt beam="2">  1       21 0.20964932E-01 0.43975865E+03</pdfrwt>
<totfact> 0.75281752E+04</totfact>
</mgrwt>
</event>
<event>
 7    0  0.4784406E-002  0.4656598E+03  0.7546771E-02  0.1023152E+00
         21   -1    0    0  502  501  0.00000000000E+00  0.00000000000E+00  0.45954272720E+02  0.45954272720E+02  0.00000000000E+00 0.  1.
         21   -1    0    0  501  502 -0.00000000000E+00 -0.00000000000E+00 -0.11796457925E+04  0.11796457925E+04  0.00000000000E+00 0.  1.
      99926    2    1    2    0    0  0.00000000000E+00  0.00000000000E+00 -0.11336915197E+04  0.12256000652E+04  0.46565980913E+03 0.  0.
      99925    2    3    3    0    0  0.70461178276E+02  0.28237915596E+02 -0.45274612575E+03  0.52911151881E+03  0.26309273543E+03 0.  0.
         25    1    3    3    0    0 -0.70461178276E+02 -0.28237915596E+02 -0.68094539399E+03  0.69648854637E+03  0.12509000000E+03 0.  0.
         25    1    4    4    0    0 -0.68891599014E+00  0.15655288058E+02 -0.25220129573E+03  0.28195489766E+03  0.12509000000E+03 0.  0.
         25    1    4    4    0    0  0.71150094266E+02  0.12582627538E+02 -0.20054483002E+03  0.24715662115E+03  0.12509000000E+03 0.  0.
<mgrwt>
<rscale>  2 0.46565981E+03</rscale>
<asrwt>0</asrwt>
<pdfrwt beam="1">  1       21 0.67579814E-02 0.46565981E+03</pdfrwt>
<pdfrwt beam="2">  1       21 0.17347732E+00 0.46565981E+03</pdfrwt>
<totfact> 0.28881590E+04</totfact>
</mgrwt>
</event>
<event>
 7    0  0.4784406E-002  0.4462371E+03  0.7546771E-02  0.1028850E+00
         21   -1    0    0  502  501  0.00000000000E+00  0.00000000000E+00  0.17211497610E+04  0.17211497610E+04  0.00000000000E+00 0.  1.
         21   -1    0    0  501  502 -0.00000000000E+00 -0.00000000000E+00 -0.28923629219E+02  0.28923629219E+02  0.00000000000E+00 0.  1.
      99926    2    1    2    0    0  0.00000000000E+00  0.00000000000E+00  0.16922261318E+04  0.17500733902E+04  0.44623714555E+03 0.  0.
      99925    2    3    3    0    0 -0.60743251650E+02  0.82133783063E+02  0.11618462408E+04  0.11956493307E+04  0.26316332143E+03 0.  0.
         25    1    4    4    0    0 -0.21850644414E+02  0.37840460185E+02  0.40057792852E+03  0.42192361395E+03  0.12509000000E+03 0.  0.
         25    1    3    3    0    0  0.60743251650E+02 -0.82133783063E+02  0.53037989097E+03  0.55442405953E+03  0.12509000000E+03 0.  0.
         25    1    4    4    0    0 -0.38892607236E+02  0.44293322878E+02  0.76126831226E+03  0.77372571671E+03  0.12509000000E+03 0.  0.
<mgrwt>
<rscale>  2 0.44623715E+03</rscale>
<asrwt>0</asrwt>
<pdfrwt beam="1">  1       21 0.25311019E+00 0.44623715E+03</pdfrwt>
<pdfrwt beam="2">  1       21 0.42534760E-02 0.44623715E+03</pdfrwt>
<totfact> 0.19534363E+04</totfact>
</mgrwt>
</event>
<event>
 7    0  0.4784406E-002  0.4518186E+03  0.7546771E-02  0.1027181E+00
         21   -1    0    0  502  501  0.00000000000E+00  0.00000000000E+00  0.18545126012E+03  0.18545126012E+03  0.00000000000E+00 0. -1.
         21   -1    0    0  501  502 -0.00000000000E+00 -0.00000000000E+00 -0.27519362455E+03  0.27519362455E+03  0.00000000000E+00 0. -1.
      99926    2    1    2    0    0 -0.17763568394E-14  0.00000000000E+00 -0.89742364427E+02  0.46064488467E+03  0.45181856735E+03 0.  0.
      99925    2    3    3    0    0 -0.64131533666E+01  0.29280674870E+02 -0.16473161139E+03  0.31175102410E+03  0.26297093143E+03 0.  0.
         25    1    4    4    0    0  0.24603929234E+02  0.43387579776E+02 -0.92032886852E+02  0.16311160527E+03  0.12509000000E+03 0.  0.
         25    1    4    4    0    0 -0.31017082601E+02 -0.14106904906E+02 -0.72698724534E+02  0.14863941882E+03  0.12509000000E+03 0.  0.
         25    1    3    3    0    0  0.64131533666E+01 -0.29280674870E+02  0.74989246960E+02  0.14889386057E+03  0.12509000000E+03 0.  0.
<mgrwt>
<rscale>  2 0.45181857E+03</rscale>
<asrwt>0</asrwt>
<pdfrwt beam="1">  1       21 0.27272245E-01 0.45181857E+03</pdfrwt>
<pdfrwt beam="2">  1       21 0.40469650E-01 0.45181857E+03</pdfrwt>
<totfact> 0.69885490E+04</totfact>
</mgrwt>
</event>
<event>
 7    0  0.4784406E-002  0.4600352E+03  0.7546771E-02  0.1024771E+00
         21   -1    0    0  502  501  0.00000000000E+00  0.00000000000E+00  0.19840258732E+03  0.19840258732E+03  0.00000000000E+00 0.  1.
         21   -1    0    0  501  502 -0.00000000000E+00 -0.00000000000E+00 -0.26667044931E+03  0.26667044931E+03  0.00000000000E+00 0.  1.
      99926    2    1    2    0    0 -0.71054273576E-14 -0.71054273576E-14 -0.68267861998E+02  0.46507303663E+03  0.46003524693E+03 0.  0.
      99925    2    3    3    0    0  0.60158504634E+02 -0.56405346604E+02  0.42224998195E+02  0.27890969690E+03  0.26307234698E+03 0.  0.
         25    1    4    4    0    0  0.49914663887E+02 -0.64376201360E+02  0.13318885497E+02  0.14986884194E+03  0.12509000000E+03 0.  0.
         25    1    4    4    0    0  0.10243840747E+02  0.79708547558E+01  0.28906112697E+02  0.12904085496E+03  0.12509000000E+03 0.  0.
         25    1    3    3    0    0 -0.60158504634E+02  0.56405346604E+02 -0.11049286019E+03  0.18616333973E+03  0.12509000000E+03 0.  0.
<mgrwt>
<rscale>  2 0.46003525E+03</rscale>
<asrwt>0</asrwt>
<pdfrwt beam="1">  1       21 0.29176851E-01 0.46003525E+03</pdfrwt>
<pdfrwt beam="2">  1       21 0.39216242E-01 0.46003525E+03</pdfrwt>
<totfact> 0.65156533E+04</totfact>
</mgrwt>
</event>
<event>
 7    0  0.4784406E-002  0.4573759E+03  0.7546771E-02  0.1025545E+00
         21   -1    0    0  502  501  0.00000000000E+00  0.00000000000E+00  0.49349786951E+03  0.49349786951E+03  0.00000000000E+00 0. -1.
         21   -1    0    0  501  502 -0.00000000000E+00 -0.00000000000E+00 -0.10597448050E+03  0.10597448050E+03  0.00000000000E+00 0. -1.
      99926    2    1    2    0    0  0.14210854715E-13  0.00000000000E+00  0.38752338901E+03  0.59947235001E+03  0.45737590819E+03 0.  0.
      99925    2    3    3    0    0  0.83978248507E+02 -0.65734541336E+02  0.29816962657E+03  0.41237617391E+03  0.26415072678E+03 0.  0.
         25    1    4    4    0    0  0.24191407408E+02  0.25729453820E+01  0.16412435930E+03  0.20778873322E+03  0.12509000000E+03 0.  0.
         25    1    4    4    0    0  0.59786841099E+02 -0.68307486718E+02  0.13404526727E+03  0.20458744069E+03  0.12509000000E+03 0.  0.
         25    1    3    3    0    0 -0.83978248507E+02  0.65734541336E+02  0.89353762444E+02  0.18709617610E+03  0.12509000000E+03 0.  0.
<mgrwt>
<rscale>  2 0.45737591E+03</rscale>
<asrwt>0</asrwt>
<pdfrwt beam="1">  1       21 0.72573215E-01 0.45737591E+03</pdfrwt>
<pdfrwt beam="2">  1       21 0.15584483E-01 0.45737591E+03</pdfrwt>
<totfact> 0.57621379E+04</totfact>
</mgrwt>
</event>
<event>
 7    0  0.4784406E-002  0.4507186E+03  0.7546771E-02  0.1027508E+00
         21   -1    0    0  502  501  0.00000000000E+00  0.00000000000E+00  0.86556079129E+02  0.86556079129E+02  0.00000000000E+00 0. -1.
         21   -1    0    0  501  502 -0.00000000000E+00 -0.00000000000E+00 -0.58675030883E+03  0.58675030883E+03  0.00000000000E+00 0. -1.
      99926    2    1    2    0    0  0.00000000000E+00  0.00000000000E+00 -0.50019422970E+03  0.67330638796E+03  0.45071856478E+03 0.  0.
      99925    2    3    3    0    0  0.70307110259E+02 -0.76743436832E+02 -0.36480435969E+03  0.46162131562E+03  0.26301972043E+03 0.  0.
         25    1    3    3    0    0 -0.70307110259E+02  0.76743436832E+02 -0.13538987001E+03  0.21168507234E+03  0.12509000000E+03 0.  0.
         25    1    4    4    0    0  0.56046590761E+02 -0.26994431416E+02 -0.13134304723E+03  0.19175094216E+03  0.12509000000E+03 0.  0.
         25    1    4    4    0    0  0.14260519497E+02 -0.49749005416E+02 -0.23346131246E+03  0.26987037346E+03  0.12509000000E+03 0.  0.
<mgrwt>
<rscale>  2 0.45071856E+03</rscale>
<asrwt>0</asrwt>
<pdfrwt beam="1">  1       21 0.12728836E-01 0.45071856E+03</pdfrwt>
<pdfrwt beam="2">  1       21 0.86286808E-01 0.45071856E+03</pdfrwt>
<totfact> 0.56249969E+04</totfact>
</mgrwt>
</event>
<event>
 7    0  0.4784406E-002  0.4632416E+03  0.7546771E-02  0.1023845E+00
         21   -1    0    0  502  501  0.00000000000E+00  0.00000000000E+00  0.16196454015E+03  0.16196454015E+03  0.00000000000E+00 0.  1.
         21   -1    0    0  501  502 -0.00000000000E+00 -0.00000000000E+00 -0.33123416150E+03  0.33123416150E+03  0.00000000000E+00 0.  1.
      99926    2    1    2    0    0  0.00000000000E+00  0.88817841970E-15 -0.16926962135E+03  0.49319870165E+03  0.46324157261E+03 0.  0.
      99925    2    3    3    0    0 -0.53899229523E+02 -0.66385256251E+01  0.90471174237E+01  0.26871359214E+03  0.26301320746E+03 0.  0.
         25    1    3    3    0    0  0.53899229523E+02  0.66385256251E+01 -0.17831673878E+03  0.22448510951E+03  0.12509000000E+03 0.  0.
         25    1    4    4    0    0 -0.53528427841E+01 -0.25234032179E+02 -0.22343615390E+02  0.12966169270E+03  0.12509000000E+03 0.  0.
         25    1    4    4    0    0 -0.48546386739E+02  0.18595506554E+02  0.31390732814E+02  0.13905189943E+03  0.12509000000E+03 0.  0.
<mgrwt>
<rscale>  2 0.46324157E+03</rscale>
<asrwt>0</asrwt>
<pdfrwt beam="1">  1       21 0.23818315E-01 0.46324157E+03</pdfrwt>
<pdfrwt beam="2">  1       21 0.48710906E-01 0.46324157E+03</pdfrwt>
<totfact> 0.61619837E+04</totfact>
</mgrwt>
</event>
<event>
 7    0  0.4784406E-002  0.4582756E+03  0.7546771E-02  0.1025283E+00
         21   -1    0    0  502  501  0.00000000000E+00  0.00000000000E+00  0.17314436647E+03  0.17314436647E+03  0.00000000000E+00 0.  1.
         21   -1    0    0  501  502 -0.00000000000E+00 -0.00000000000E+00 -0.30323903137E+03  0.30323903137E+03  0.00000000000E+00 0.  1.
      99926    2    1    2    0    0 -0.26645352591E-14  0.00000000000E+00 -0.13009466490E+03  0.47638339785E+03  0.45827559384E+03 0.  0.
      99925    2    3    3    0    0 -0.74199242793E+01  0.41297555468E+02  0.31089937129E+02  0.26808426824E+03  0.26294875418E+03 0.  0.
         25    1    4    4    0    0 -0.39712663088E+02  0.29429758597E+02 -0.73129288981E+00  0.13450371441E+03  0.12509000000E+03 0.  0.
         25    1    4    4    0    0  0.32292738809E+02  0.11867796871E+02  0.31821230019E+02  0.13358055383E+03  0.12509000000E+03 0.  0.
         25    1    3    3    0    0  0.74199242793E+01 -0.41297555468E+02 -0.16118460203E+03  0.20829912961E+03  0.12509000000E+03 0.  0.
<mgrwt>
<rscale>  2 0.45827559E+03</rscale>
<asrwt>0</asrwt>
<pdfrwt beam="1">  1       21 0.25462407E-01 0.45827559E+03</pdfrwt>
<pdfrwt beam="2">  1       21 0.44593975E-01 0.45827559E+03</pdfrwt>
<totfact> 0.65251630E+04</totfact>
</mgrwt>
</event>
<event>
 7    0  0.4784406E-002  0.4515436E+03  0.7546771E-02  0.1027263E+00
         21   -1    0    0  502  501  0.00000000000E+00  0.00000000000E+00  0.22817191991E+03  0.22817191991E+03  0.00000000000E+00 0. -1.
         21   -1    0    0  501  502 -0.00000000000E+00 -0.00000000000E+00 -0.22339693331E+03  0.22339693331E+03  0.00000000000E+00 0. -1.
      99926    2    1    2    0    0  0.00000000000E+00 -0.14210854715E-13  0.47749865940E+01  0.45156885322E+03  0.45154360664E+03 0.  0.
      99925    2    3    3    0    0 -0.52058671107E+02  0.80519026253E+02 -0.50603067058E+02  0.28451300701E+03  0.26304669155E+03 0.  0.
         25    1    3    3    0    0  0.52058671107E+02 -0.80519026253E+02  0.55378053652E+02  0.16705584621E+03  0.12509000000E+03 0.  0.
         25    1    4    4    0    0 -0.37428221296E+02  0.18990902241E+02 -0.58045500740E+02  0.14414685003E+03  0.12509000000E+03 0.  0.
         25    1    4    4    0    0 -0.14630449811E+02  0.61528124013E+02  0.74424336827E+01  0.14036615698E+03  0.12509000000E+03 0.  0.
<mgrwt>
<rscale>  2 0.45154361E+03</rscale>
<asrwt>0</asrwt>
<pdfrwt beam="1">  1       21 0.33554694E-01 0.45154361E+03</pdfrwt>
<pdfrwt beam="2">  1       21 0.32852490E-01 0.45154361E+03</pdfrwt>
<totfact> 0.70728433E+04</totfact>
</mgrwt>
</event>
<event>
 7    0  0.4784406E-002  0.4494207E+03  0.7546771E-02  0.1027895E+00
         21   -1    0    0  502  501  0.00000000000E+00  0.00000000000E+00  0.46931982511E+03  0.46931982511E+03  0.00000000000E+00 0.  1.
         21   -1    0    0  501  502 -0.00000000000E+00 -0.00000000000E+00 -0.10759131162E+03  0.10759131162E+03  0.00000000000E+00 0.  1.
      99926    2    1    2    0    0 -0.14210854715E-13 -0.17763568394E-14  0.36172851349E+03  0.57691113673E+03  0.44942067400E+03 0.  0.
      99925    2    3    3    0    0 -0.10622919980E+03 -0.10985807132E+02  0.21019914329E+03  0.35327306086E+03  0.26308334201E+03 0.  0.
         25    1    3    3    0    0  0.10622919980E+03  0.10985807132E+02  0.15152937020E+03  0.22363807588E+03  0.12509000000E+03 0.  0.
         25    1    4    4    0    0 -0.87215274214E+02  0.15839049658E+02  0.97232043643E+02  0.18154602161E+03  0.12509000000E+03 0.  0.
         25    1    4    4    0    0 -0.19013925584E+02 -0.26824856790E+02  0.11296709964E+03  0.17172703925E+03  0.12509000000E+03 0.  0.
<mgrwt>
<rscale>  2 0.44942067E+03</rscale>
<asrwt>0</asrwt>
<pdfrwt beam="1">  1       21 0.69017621E-01 0.44942067E+03</pdfrwt>
<pdfrwt beam="2">  1       21 0.15822252E-01 0.44942067E+03</pdfrwt>
<totfact> 0.62849271E+04</totfact>
</mgrwt>
</event>
<event>
 7    0  0.4784406E-002  0.4355843E+03  0.7546771E-02  0.1032110E+00
         21   -1    0    0  502  501  0.00000000000E+00  0.00000000000E+00  0.44203981332E+03  0.44203981332E+03  0.00000000000E+00 0. -1.
         21   -1    0    0  501  502 -0.00000000000E+00 -0.00000000000E+00 -0.10730577018E+03  0.10730577018E+03  0.00000000000E+00 0. -1.
      99926    2    1    2    0    0  0.71054273576E-14  0.00000000000E+00  0.33473404315E+03  0.54934558350E+03  0.43558430925E+03 0.  0.
      99925    2    3    3    0    0 -0.59235474549E+02  0.34701137973E+02  0.13348682573E+03  0.30264543952E+03  0.26279748666E+03 0.  0.
         25    1    3    3    0    0  0.59235474549E+02 -0.34701137973E+02  0.20124721742E+03  0.24670014398E+03  0.12509000000E+03 0.  0.
         25    1    4    4    0    0 -0.12411132880E+02  0.47918906988E+02  0.44880359330E+02  0.14181682770E+03  0.12509000000E+03 0.  0.
         25    1    4    4    0    0 -0.46824341669E+02 -0.13217769015E+02  0.88606466398E+02  0.16082861181E+03  0.12509000000E+03 0.  0.
<mgrwt>
<rscale>  2 0.43558431E+03</rscale>
<asrwt>0</asrwt>
<pdfrwt beam="1">  1       21 0.65005854E-01 0.43558431E+03</pdfrwt>
<pdfrwt beam="2">  1       21 0.15780261E-01 0.43558431E+03</pdfrwt>
<totfact> 0.72408003E+04</totfact>
</mgrwt>
</event>
<event>
 7    0  0.4784406E-002  0.4533386E+03  0.7546771E-02  0.1026731E+00
         21   -1    0    0  502  501  0.00000000000E+00  0.00000000000E+00  0.45537719398E+02  0.45537719398E+02  0.00000000000E+00 0. -1.
         21   -1    0    0  501  502 -0.00000000000E+00 -0.00000000000E+00 -0.11282729769E+04  0.11282729769E+04  0.00000000000E+00 0. -1.
      99926    2    1    2    0    0  0.00000000000E+00  0.00000000000E+00 -0.10827352575E+04  0.11738106963E+04  0.45333862940E+03 0.  0.
      99925    2    3    3    0    0  0.99011457021E+02  0.39281639103E+02 -0.59719085475E+03  0.66122198111E+03  0.26311836788E+03 0.  0.
         25    1    4    4    0    0  0.77351210800E+02 -0.70791068507E+01 -0.34477705302E+03  0.37490271799E+03  0.12509000000E+03 0.  0.
         25    1    4    4    0    0  0.21660246220E+02  0.46360745954E+02 -0.25241380173E+03  0.28631926312E+03  0.12509000000E+03 0.  0.
         25    1    3    3    0    0 -0.99011457021E+02 -0.39281639103E+02 -0.48554440275E+03  0.51258871518E+03  0.12509000000E+03 0.  0.
<mgrwt>
<rscale>  2 0.45333863E+03</rscale>
<asrwt>0</asrwt>
<pdfrwt beam="1">  1       21 0.66967241E-02 0.45333863E+03</pdfrwt>
<pdfrwt beam="2">  1       21 0.16592248E+00 0.45333863E+03</pdfrwt>
<totfact> 0.33427890E+04</totfact>
</mgrwt>
</event>
<event>
 7    0  0.4784406E-002  0.4407703E+03  0.7546771E-02  0.1030511E+00
         21   -1    0    0  502  501  0.00000000000E+00  0.00000000000E+00  0.12351030942E+03  0.12351030942E+03  0.00000000000E+00 0. -1.
         21   -1    0    0  501  502 -0.00000000000E+00 -0.00000000000E+00 -0.39324334291E+03  0.39324334291E+03  0.00000000000E+00 0. -1.
      99926    2    1    2    0    0  0.00000000000E+00  0.00000000000E+00 -0.26973303348E+03  0.51675365233E+03  0.44077026651E+03 0.  0.
      99925    2    3    3    0    0 -0.95567151961E+02 -0.23689751427E+02 -0.18407477076E+03  0.33597995145E+03  0.26325789957E+03 0.  0.
         25    1    4    4    0    0 -0.69896491971E+02 -0.89614148576E+01 -0.54805630029E+02  0.15367820837E+03  0.12509000000E+03 0.  0.
         25    1    4    4    0    0 -0.25670659990E+02 -0.14728336569E+02 -0.12926914073E+03  0.18230174307E+03  0.12509000000E+03 0.  0.
         25    1    3    3    0    0  0.95567151961E+02  0.23689751427E+02 -0.85658262726E+02  0.18077370088E+03  0.12509000000E+03 0.  0.
<mgrwt>
<rscale>  2 0.44077027E+03</rscale>
<asrwt>0</asrwt>
<pdfrwt beam="1">  1       21 0.18163281E-01 0.44077027E+03</pdfrwt>
<pdfrwt beam="2">  1       21 0.57829903E-01 0.44077027E+03</pdfrwt>
<totfact> 0.71881869E+04</totfact>
</mgrwt>
</event>
<event>
 7    0  0.4784406E-002  0.4557448E+03  0.7546771E-02  0.1026023E+00
         21   -1    0    0  502  501  0.00000000000E+00  0.00000000000E+00  0.52646922275E+03  0.52646922275E+03  0.00000000000E+00 0. -1.
         21   -1    0    0  501  502 -0.00000000000E+00 -0.00000000000E+00 -0.98630332023E+02  0.98630332023E+02  0.00000000000E+00 0. -1.
      99926    2    1    2    0    0  0.14210854715E-13  0.14210854715E-13  0.42783889073E+03  0.62509955478E+03  0.45574481562E+03 0.  0.
      99925    2    3    3    0    0 -0.72838301427E+02 -0.73667724675E+02  0.33361338539E+03  0.43732760328E+03  0.26310680315E+03 0.  0.
         25    1    4    4    0    0 -0.24780397939E+02 -0.17437008077E+02  0.21114858874E+03  0.24728395015E+03  0.12509000000E+03 0.  0.
         25    1    3    3    0    0  0.72838301427E+02  0.73667724675E+02  0.94225505340E+02  0.18777195150E+03  0.12509000000E+03 0.  0.
         25    1    4    4    0    0 -0.48057903488E+02 -0.56230716598E+02  0.12246479665E+03  0.19004365313E+03  0.12509000000E+03 0.  0.
<mgrwt>
<rscale>  2 0.45574482E+03</rscale>
<asrwt>0</asrwt>
<pdfrwt beam="1">  1       21 0.77421943E-01 0.45574482E+03</pdfrwt>
<pdfrwt beam="2">  1       21 0.14504461E-01 0.45574482E+03</pdfrwt>
<totfact> 0.56824425E+04</totfact>
</mgrwt>
</event>
<event>
 7    0  0.4784406E-002  0.4530466E+03  0.7546771E-02  0.1026817E+00
         21   -1    0    0  502  501  0.00000000000E+00  0.00000000000E+00  0.23435007900E+04  0.23435007900E+04  0.00000000000E+00 0.  1.
         21   -1    0    0  501  502 -0.00000000000E+00 -0.00000000000E+00 -0.21895791865E+02  0.21895791865E+02  0.00000000000E+00 0.  1.
      99926    2    1    2    0    0  0.00000000000E+00  0.00000000000E+00  0.23216049981E+04  0.23653965819E+04  0.45304660040E+03 0.  0.
      99925    2    3    3    0    0 -0.82440537883E+02 -0.64246856448E+02  0.12631370803E+04  0.12944502984E+04  0.26298705403E+03 0.  0.
         25    1    4    4    0    0 -0.35152664938E+02 -0.53806594701E+02  0.49080415225E+03  0.51055566147E+03  0.12509000000E+03 0.  0.
         25    1    4    4    0    0 -0.47287872945E+02 -0.10440261748E+02  0.77233292808E+03  0.78389463698E+03  0.12509000000E+03 0.  0.
         25    1    3    3    0    0  0.82440537883E+02  0.64246856448E+02  0.10584679178E+04  0.10709462834E+04  0.12509000000E+03 0.  0.
<mgrwt>
<rscale>  2 0.45304660E+03</rscale>
<asrwt>0</asrwt>
<pdfrwt beam="1">  1       21 0.34463230E+00 0.45304660E+03</pdfrwt>
<pdfrwt beam="2">  1       21 0.32199710E-02 0.45304660E+03</pdfrwt>
<totfact> 0.87408366E+03</totfact>
</mgrwt>
</event>
<event>
 7    0  0.4784406E-002  0.4553989E+03  0.7546771E-02  0.1026124E+00
         21   -1    0    0  502  501  0.00000000000E+00  0.00000000000E+00  0.40131432782E+03  0.40131432782E+03  0.00000000000E+00 0.  1.
         21   -1    0    0  501  502 -0.00000000000E+00 -0.00000000000E+00 -0.12919306767E+03  0.12919306767E+03  0.00000000000E+00 0.  1.
      99926    2    1    2    0    0  0.00000000000E+00  0.00000000000E+00  0.27212126014E+03  0.53050739549E+03  0.45539885424E+03 0.  0.
      99925    2    3    3    0    0  0.70222661626E+02 -0.80253363568E+02  0.21647086620E+03  0.35696691313E+03  0.26304736568E+03 0.  0.
         25    1    4    4    0    0  0.66872330378E+02 -0.56163475459E+02  0.14687269045E+03  0.21176718312E+03  0.12509000000E+03 0.  0.
         25    1    3    3    0    0 -0.70222661626E+02  0.80253363568E+02  0.55650393946E+02  0.17354048236E+03  0.12509000000E+03 0.  0.
         25    1    4    4    0    0  0.33503312479E+01 -0.24089888109E+02  0.69598175746E+02  0.14519973001E+03  0.12509000000E+03 0.  0.
<mgrwt>
<rscale>  2 0.45539885E+03</rscale>
<asrwt>0</asrwt>
<pdfrwt beam="1">  1       21 0.59016813E-01 0.45539885E+03</pdfrwt>
<pdfrwt beam="2">  1       21 0.18998981E-01 0.45539885E+03</pdfrwt>
<totfact> 0.62972881E+04</totfact>
</mgrwt>
</event>
<event>
 7    0  0.4784406E-002  0.4539114E+03  0.7546771E-02  0.1026562E+00
         21   -1    0    0  502  501  0.00000000000E+00  0.00000000000E+00  0.49419765999E+03  0.49419765999E+03  0.00000000000E+00 0. -1.
         21   -1    0    0  501  502 -0.00000000000E+00 -0.00000000000E+00 -0.10422731899E+03  0.10422731899E+03  0.00000000000E+00 0. -1.
      99926    2    1    2    0    0  0.17763568394E-14  0.14210854715E-13  0.38997034100E+03  0.59842497898E+03  0.45391143256E+03 0.  0.
      99925    2    3    3    0    0  0.85810778706E+01  0.91803354353E+02  0.16141651415E+03  0.32204507625E+03  0.26297575806E+03 0.  0.
         25    1    4    4    0    0  0.31723263205E+01  0.70430031696E+02  0.46981175388E+02  0.15108008459E+03  0.12509000000E+03 0.  0.
         25    1    3    3    0    0 -0.85810778706E+01 -0.91803354353E+02  0.22855382685E+03  0.27637990274E+03  0.12509000000E+03 0.  0.
         25    1    4    4    0    0  0.54087515500E+01  0.21373322657E+02  0.11443533876E+03  0.17096499166E+03  0.12509000000E+03 0.  0.
<mgrwt>
<rscale>  2 0.45391143E+03</rscale>
<asrwt>0</asrwt>
<pdfrwt beam="1">  1       21 0.72676125E-01 0.45391143E+03</pdfrwt>
<pdfrwt beam="2">  1       21 0.15327547E-01 0.45391143E+03</pdfrwt>
<totfact> 0.59283597E+04</totfact>
</mgrwt>
</event>
<event>
 7    0  0.4784406E-002  0.4565987E+03  0.7546771E-02  0.1025772E+00
         21   -1    0    0  502  501  0.00000000000E+00  0.00000000000E+00  0.21400017041E+03  0.21400017041E+03  0.00000000000E+00 0.  1.
         21   -1    0    0  501  502 -0.00000000000E+00 -0.00000000000E+00 -0.24355396021E+03  0.24355396021E+03  0.00000000000E+00 0.  1.
      99926    2    1    2    0    0 -0.17763568394E-14  0.00000000000E+00 -0.29553789800E+02  0.45755413062E+03  0.45659868151E+03 0.  0.
      99925    2    3    3    0    0  0.11159234484E+02  0.10641496928E+03 -0.59759254366E+02  0.29019657211E+03  0.26304791917E+03 0.  0.
         25    1    4    4    0    0 -0.29876634358E+02  0.64598297193E+02 -0.47351141208E+02  0.15150970911E+03  0.12509000000E+03 0.  0.
         25    1    3    3    0    0 -0.11159234484E+02 -0.10641496928E+03  0.30205464565E+02  0.16735755851E+03  0.12509000000E+03 0.  0.
         25    1    4    4    0    0  0.41035868842E+02  0.41816672086E+02 -0.12408113158E+02  0.13868686300E+03  0.12509000000E+03 0.  0.
<mgrwt>
<rscale>  2 0.45659868E+03</rscale>
<asrwt>0</asrwt>
<pdfrwt beam="1">  1       21 0.31470613E-01 0.45659868E+03</pdfrwt>
<pdfrwt beam="2">  1       21 0.35816759E-01 0.45659868E+03</pdfrwt>
<totfact> 0.67494077E+04</totfact>
</mgrwt>
</event>
<event>
 7    0  0.4784406E-002  0.4490495E+03  0.7546771E-02  0.1028006E+00
         21   -1    0    0  502  501  0.00000000000E+00  0.00000000000E+00  0.64054525248E+03  0.64054525248E+03  0.00000000000E+00 0. -1.
         21   -1    0    0  501  502 -0.00000000000E+00 -0.00000000000E+00 -0.78700705677E+02  0.78700705677E+02  0.00000000000E+00 0. -1.
      99926    2    1    2    0    0  0.00000000000E+00  0.00000000000E+00  0.56184454680E+03  0.71924595816E+03  0.44904950011E+03 0.  0.
      99925    2    3    3    0    0  0.60832817985E+01  0.10570326087E+03  0.31957280625E+03  0.42675101795E+03  0.26225839767E+03 0.  0.
         25    1    3    3    0    0 -0.60832817985E+01 -0.10570326087E+03  0.24227174056E+03  0.29249494021E+03  0.12509000000E+03 0.  0.
         25    1    4    4    0    0  0.22396481087E+02  0.89819237052E+02  0.17141445654E+03  0.23151570512E+03  0.12509000000E+03 0.  0.
         25    1    4    4    0    0 -0.16313199289E+02  0.15884023822E+02  0.14815834971E+03  0.19523531282E+03  0.12509000000E+03 0.  0.
<mgrwt>
<rscale>  2 0.44904950E+03</rscale>
<asrwt>0</asrwt>
<pdfrwt beam="1">  1       21 0.94197829E-01 0.44904950E+03</pdfrwt>
<pdfrwt beam="2">  1       21 0.11573634E-01 0.44904950E+03</pdfrwt>
<totfact> 0.54370964E+04</totfact>
</mgrwt>
</event>
<event>
 7    0  0.4784406E-002  0.4547487E+03  0.7546771E-02  0.1026315E+00
         21   -1    0    0  502  501  0.00000000000E+00  0.00000000000E+00  0.34055704009E+03  0.34055704009E+03  0.00000000000E+00 0.  1.
         21   -1    0    0  501  502 -0.00000000000E+00 -0.00000000000E+00 -0.15180744706E+03  0.15180744706E+03  0.00000000000E+00 0.  1.
      99926    2    1    2    0    0  0.00000000000E+00  0.00000000000E+00  0.18874959303E+03  0.49236448716E+03  0.45474869911E+03 0.  0.
      99925    2    3    3    0    0 -0.72727995786E+02 -0.83506614974E+02  0.94383957412E+02  0.30049187994E+03  0.26291504783E+03 0.  0.
         25    1    4    4    0    0 -0.15939021832E+02 -0.58776563037E+02  0.79181542152E+02  0.16008110912E+03  0.12509000000E+03 0.  0.
         25    1    3    3    0    0  0.72727995786E+02  0.83506614974E+02  0.94365635618E+02  0.19187260722E+03  0.12509000000E+03 0.  0.
         25    1    4    4    0    0 -0.56788973954E+02 -0.24730051937E+02  0.15202415261E+02  0.14041077082E+03  0.12509000000E+03 0.  0.
<mgrwt>
<rscale>  2 0.45474870E+03</rscale>
<asrwt>0</asrwt>
<pdfrwt beam="1">  1       21 0.50081918E-01 0.45474870E+03</pdfrwt>
<pdfrwt beam="2">  1       21 0.22324625E-01 0.45474870E+03</pdfrwt>
<totfact> 0.65941928E+04</totfact>
</mgrwt>
</event>
<event>
 7    0  0.4784406E-002  0.4521620E+03  0.7546771E-02  0.1027079E+00
         21   -1    0    0  502  501  0.00000000000E+00  0.00000000000E+00  0.15946491265E+03  0.15946491265E+03  0.00000000000E+00 0. -1.
         21   -1    0    0  501  502 -0.00000000000E+00 -0.00000000000E+00 -0.32052577699E+03  0.32052577699E+03  0.00000000000E+00 0. -1.
      99926    2    1    2    0    0 -0.17763568394E-14 -0.14210854715E-13 -0.16106086434E+03  0.47999068963E+03  0.45216198437E+03 0.  0.
      99925    2    3    3    0    0  0.11564605247E+02  0.10569935059E+03 -0.13020585751E+03  0.31294089958E+03  0.26395520168E+03 0.  0.
         25    1    3    3    0    0 -0.11564605247E+02 -0.10569935059E+03 -0.30855006828E+02  0.16704979005E+03  0.12509000000E+03 0.  0.
         25    1    4    4    0    0  0.24067527022E+02  0.87130401122E+02 -0.48131492413E+02  0.16166354357E+03  0.12509000000E+03 0.  0.
         25    1    4    4    0    0 -0.12502921775E+02  0.18568949467E+02 -0.82074365099E+02  0.15127735602E+03  0.12509000000E+03 0.  0.
<mgrwt>
<rscale>  2 0.45216198E+03</rscale>
<asrwt>0</asrwt>
<pdfrwt beam="1">  1       21 0.23450723E-01 0.45216198E+03</pdfrwt>
<pdfrwt beam="2">  1       21 0.47136143E-01 0.45216198E+03</pdfrwt>
<totfact> 0.68224815E+04</totfact>
</mgrwt>
</event>
<event>
 7    0  0.4784406E-002  0.4541107E+03  0.7546771E-02  0.1026503E+00
         21   -1    0    0  502  501  0.00000000000E+00  0.00000000000E+00  0.20088095006E+03  0.20088095006E+03  0.00000000000E+00 0. -1.
         21   -1    0    0  501  502 -0.00000000000E+00 -0.00000000000E+00 -0.25664019390E+03  0.25664019390E+03  0.00000000000E+00 0. -1.
      99926    2    1    2    0    0 -0.35527136788E-14  0.00000000000E+00 -0.55759243840E+02  0.45752114397E+03  0.45411067363E+03 0.  0.
      99925    2    3    3    0    0 -0.16502200194E+02  0.10916739650E+03 -0.14530971375E+02  0.28565747236E+03  0.26305740688E+03 0.  0.
         25    1    3    3    0    0  0.16502200194E+02 -0.10916739650E+03 -0.41228272465E+02  0.17186367161E+03  0.12509000000E+03 0.  0.
         25    1    4    4    0    0  0.32164107887E+02  0.57636809554E+02 -0.38927171792E+01  0.14148919746E+03  0.12509000000E+03 0.  0.
         25    1    4    4    0    0 -0.48666308082E+02  0.51530586945E+02 -0.10638254196E+02  0.14416827489E+03  0.12509000000E+03 0.  0.
<mgrwt>
<rscale>  2 0.45411067E+03</rscale>
<asrwt>0</asrwt>
<pdfrwt beam="1">  1       21 0.29541316E-01 0.45411067E+03</pdfrwt>
<pdfrwt beam="2">  1       21 0.37741205E-01 0.45411067E+03</pdfrwt>
<totfact> 0.68848558E+04</totfact>
</mgrwt>
</event>
<event>
 7    0  0.4784406E-002  0.4606683E+03  0.7546771E-02  0.1024588E+00
         21   -1    0    0  502  501  0.00000000000E+00  0.00000000000E+00  0.43121873267E+03  0.43121873267E+03  0.00000000000E+00 0.  1.
         21   -1    0    0  501  502 -0.00000000000E+00 -0.00000000000E+00 -0.12303229380E+03  0.12303229380E+03  0.00000000000E+00 0.  1.
      99926    2    1    2    0    0  0.17763568394E-14  0.14210854715E-13  0.30818643887E+03  0.55425102648E+03  0.46066833975E+03 0.  0.
      99925    2    3    3    0    0  0.12520913964E+02  0.10564568679E+03  0.13033028718E+03  0.31218057553E+03  0.26296947268E+03 0.  0.
         25    1    4    4    0    0  0.25775840980E+02  0.14945497530E+02  0.59940526373E+02  0.14187366449E+03  0.12509000000E+03 0.  0.
         25    1    3    3    0    0 -0.12520913964E+02 -0.10564568679E+03  0.17785615169E+03  0.24207045094E+03  0.12509000000E+03 0.  0.
         25    1    4    4    0    0 -0.13254927016E+02  0.90700189261E+02  0.70389760806E+02  0.17030691104E+03  0.12509000000E+03 0.  0.
<mgrwt>
<rscale>  2 0.46066834E+03</rscale>
<asrwt>0</asrwt>
<pdfrwt beam="1">  1       21 0.63414519E-01 0.46066834E+03</pdfrwt>
<pdfrwt beam="2">  1       21 0.18092984E-01 0.46066834E+03</pdfrwt>
<totfact> 0.58900419E+04</totfact>
</mgrwt>
</event>
<event>
 7    0  0.4784406E-002  0.4556458E+03  0.7546771E-02  0.1026052E+00
         21   -1    0    0  502  501  0.00000000000E+00  0.00000000000E+00  0.32385437104E+03  0.32385437104E+03  0.00000000000E+00 0.  1.
         21   -1    0    0  501  502 -0.00000000000E+00 -0.00000000000E+00 -0.16026732685E+03  0.16026732685E+03  0.00000000000E+00 0.  1.
      99926    2    1    2    0    0  0.00000000000E+00  0.00000000000E+00  0.16358704420E+03  0.48412169789E+03  0.45564580250E+03 0.  0.
      99925    2    3    3    0    0  0.73799498144E+02  0.77436894228E+02  0.62006286436E+02  0.29070764214E+03  0.26310324044E+03 0.  0.
         25    1    3    3    0    0 -0.73799498144E+02 -0.77436894228E+02  0.10158075776E+03  0.19341405575E+03  0.12509000000E+03 0.  0.
         25    1    4    4    0    0  0.66405032352E+02  0.54946246597E+02  0.60149032602E+02  0.16338339132E+03  0.12509000000E+03 0.  0.
         25    1    4    4    0    0  0.73944657918E+01  0.22490647630E+02  0.18572538334E+01  0.12732425082E+03  0.12509000000E+03 0.  0.
<mgrwt>
<rscale>  2 0.45564580E+03</rscale>
<asrwt>0</asrwt>
<pdfrwt beam="1">  1       21 0.47625643E-01 0.45564580E+03</pdfrwt>
<pdfrwt beam="2">  1       21 0.23568725E-01 0.45564580E+03</pdfrwt>
<totfact> 0.66061960E+04</totfact>
</mgrwt>
</event>
<event>
 7    0  0.4784406E-002  0.4545622E+03  0.7546771E-02  0.1026370E+00
         21   -1    0    0  502  501  0.00000000000E+00  0.00000000000E+00  0.22659738045E+03  0.22659738045E+03  0.00000000000E+00 0. -1.
         21   -1    0    0  501  502 -0.00000000000E+00 -0.00000000000E+00 -0.22796691036E+03  0.22796691036E+03  0.00000000000E+00 0. -1.
      99926    2    1    2    0    0  0.00000000000E+00  0.14210854715E-13 -0.13695299090E+01  0.45456429080E+03  0.45456222771E+03 0.  0.
      99925    2    3    3    0    0 -0.68767299285E+02  0.66338352499E+02 -0.60690523743E+02  0.28634952667E+03  0.26302660186E+03 0.  0.
         25    1    3    3    0    0  0.68767299285E+02 -0.66338352499E+02  0.59320993834E+02  0.16821476413E+03  0.12509000000E+03 0.  0.
         25    1    4    4    0    0  0.49405365497E+01  0.16200458525E+02 -0.28504056047E+02  0.12940963283E+03  0.12509000000E+03 0.  0.
         25    1    4    4    0    0 -0.73707835834E+02  0.50137893974E+02 -0.32186467696E+02  0.15693989384E+03  0.12509000000E+03 0.  0.
<mgrwt>
<rscale>  2 0.45456223E+03</rscale>
<asrwt>0</asrwt>
<pdfrwt beam="1">  1       21 0.33323144E-01 0.45456223E+03</pdfrwt>
<pdfrwt beam="2">  1       21 0.33524546E-01 0.45456223E+03</pdfrwt>
<totfact> 0.68817785E+04</totfact>
</mgrwt>
</event>
<event>
 7    0  0.4784406E-002  0.4483992E+03  0.7546771E-02  0.1028200E+00
         21   -1    0    0  502  501  0.00000000000E+00  0.00000000000E+00  0.20761236511E+03  0.20761236511E+03  0.00000000000E+00 0. -1.
         21   -1    0    0  501  502 -0.00000000000E+00 -0.00000000000E+00 -0.24211204699E+03  0.24211204699E+03  0.00000000000E+00 0. -1.
      99926    2    1    2    0    0  0.14210854715E-13 -0.71054273576E-14 -0.34499681884E+02  0.44972441210E+03  0.44839917349E+03 0.  0.
      99925    2    3    3    0    0 -0.10050079314E+03  0.34577050338E+02 -0.32473513523E+02  0.28556718475E+03  0.26305532896E+03 0.  0.
         25    1    4    4    0    0 -0.15839510892E+02  0.15933521198E+02  0.10213582872E+02  0.12750134344E+03  0.12509000000E+03 0.  0.
         25    1    4    4    0    0 -0.84661282250E+02  0.18643529140E+02 -0.42687096395E+02  0.15806584131E+03  0.12509000000E+03 0.  0.
         25    1    3    3    0    0  0.10050079314E+03 -0.34577050338E+02 -0.20261683610E+01  0.16415722735E+03  0.12509000000E+03 0.  0.
<mgrwt>
<rscale>  2 0.44839917E+03</rscale>
<asrwt>0</asrwt>
<pdfrwt beam="1">  1       21 0.30531230E-01 0.44839917E+03</pdfrwt>
<pdfrwt beam="2">  1       21 0.35604713E-01 0.44839917E+03</pdfrwt>
<totfact> 0.72687448E+04</totfact>
</mgrwt>
</event>
<event>
 7    0  0.4784406E-002  0.4538511E+03  0.7546771E-02  0.1026580E+00
         21   -1    0    0  502  501  0.00000000000E+00  0.00000000000E+00  0.26173155768E+03  0.26173155768E+03  0.00000000000E+00 0. -1.
         21   -1    0    0  501  502 -0.00000000000E+00 -0.00000000000E+00 -0.19674819367E+03  0.19674819367E+03  0.00000000000E+00 0. -1.
      99926    2    1    2    0    0  0.00000000000E+00  0.00000000000E+00  0.64983364014E+02  0.45847975135E+03  0.45385112625E+03 0.  0.
      99925    2    3    3    0    0 -0.16005936850E+02  0.10422453855E+03  0.25460539283E+01  0.28336587343E+03  0.26300340565E+03 0.  0.
         25    1    3    3    0    0  0.16005936850E+02 -0.10422453855E+03  0.62437310086E+02  0.17511387792E+03  0.12509000000E+03 0.  0.
         25    1    4    4    0    0 -0.24965269862E+02  0.85992003123E+02  0.21135944190E+02  0.15528079578E+03  0.12509000000E+03 0.  0.
         25    1    4    4    0    0  0.89593330125E+01  0.18232535426E+02 -0.18589890262E+02  0.12808507765E+03  0.12509000000E+03 0.  0.
<mgrwt>
<rscale>  2 0.45385113E+03</rscale>
<asrwt>0</asrwt>
<pdfrwt beam="1">  1       21 0.38489935E-01 0.45385113E+03</pdfrwt>
<pdfrwt beam="2">  1       21 0.28933558E-01 0.45385113E+03</pdfrwt>
<totfact> 0.68920797E+04</totfact>
</mgrwt>
</event>
<event>
 7    0  0.4784406E-002  0.4588000E+03  0.7546771E-02  0.1025130E+00
         21   -1    0    0  502  501  0.00000000000E+00  0.00000000000E+00  0.13682781570E+03  0.13682781570E+03  0.00000000000E+00 0.  1.
         21   -1    0    0  501  502 -0.00000000000E+00 -0.00000000000E+00 -0.38460280404E+03  0.38460280404E+03  0.00000000000E+00 0.  1.
      99926    2    1    2    0    0  0.35527136788E-14  0.00000000000E+00 -0.24777498834E+03  0.52143061973E+03  0.45880000692E+03 0.  0.
      99925    2    3    3    0    0 -0.26876590701E+02  0.10042986799E+03 -0.94829865957E+02  0.29816345226E+03  0.26286922846E+03 0.  0.
         25    1    4    4    0    0  0.12490611402E+02  0.16628014573E+02 -0.48776636046E+02  0.13586454492E+03  0.12509000000E+03 0.  0.
         25    1    4    4    0    0 -0.39367202103E+02  0.83801853417E+02 -0.46053229911E+02  0.16229890734E+03  0.12509000000E+03 0.  0.
         25    1    3    3    0    0  0.26876590701E+02 -0.10042986799E+03 -0.15294512238E+03  0.22326716748E+03  0.12509000000E+03 0.  0.
<mgrwt>
<rscale>  2 0.45880001E+03</rscale>
<asrwt>0</asrwt>
<pdfrwt beam="1">  1       21 0.20121738E-01 0.45880001E+03</pdfrwt>
<pdfrwt beam="2">  1       21 0.56559236E-01 0.45880001E+03</pdfrwt>
<totfact> 0.61902426E+04</totfact>
</mgrwt>
</event>
<event>
 7    0  0.4784406E-002  0.4541003E+03  0.7546771E-02  0.1026506E+00
         21   -1    0    0  502  501  0.00000000000E+00  0.00000000000E+00  0.32686760859E+02  0.32686760859E+02  0.00000000000E+00 0. -1.
         21   -1    0    0  501  502 -0.00000000000E+00 -0.00000000000E+00 -0.15771449404E+04  0.15771449404E+04  0.00000000000E+00 0. -1.
      99926    2    1    2    0    0  0.00000000000E+00  0.71054273576E-14 -0.15444581795E+04  0.16098317012E+04  0.45410025107E+03 0.  0.
      99925    2    3    3    0    0  0.95102731827E+02  0.59702956354E+02 -0.98169286035E+03  0.10224976522E+04  0.26300495071E+03 0.  0.
         25    1    4    4    0    0  0.58605827257E+02  0.62452945657E+02 -0.44145055933E+03  0.46675595105E+03  0.12509000000E+03 0.  0.
         25    1    3    3    0    0 -0.95102731827E+02 -0.59702956354E+02 -0.56276531918E+03  0.58733404905E+03  0.12509000000E+03 0.  0.
         25    1    4    4    0    0  0.36496904570E+02 -0.27499893030E+01 -0.54024230102E+03  0.55574170115E+03  0.12509000000E+03 0.  0.
<mgrwt>
<rscale>  2 0.45410025E+03</rscale>
<asrwt>0</asrwt>
<pdfrwt beam="1">  1       21 0.48068769E-02 0.45410025E+03</pdfrwt>
<pdfrwt beam="2">  1       21 0.23193306E+00 0.45410025E+03</pdfrwt>
<totfact> 0.21357347E+04</totfact>
</mgrwt>
</event>
<event>
 7    0  0.4784406E-002  0.4532526E+03  0.7546771E-02  0.1026757E+00
         21   -1    0    0  502  501  0.00000000000E+00  0.00000000000E+00  0.41669210889E+02  0.41669210889E+02  0.00000000000E+00 0. -1.
         21   -1    0    0  501  502 -0.00000000000E+00 -0.00000000000E+00 -0.12325520585E+04  0.12325520585E+04  0.00000000000E+00 0. -1.
      99926    2    1    2    0    0  0.00000000000E+00  0.00000000000E+00 -0.11908828476E+04  0.12742212694E+04  0.45325256384E+03 0.  0.
      99925    2    3    3    0    0 -0.40299913480E+02 -0.77754835444E+02 -0.55620031044E+03  0.62142778861E+03  0.26295211286E+03 0.  0.
         25    1    3    3    0    0  0.40299913480E+02  0.77754835444E+02 -0.63468253717E+03  0.65279348078E+03  0.12509000000E+03 0.  0.
         25    1    4    4    0    0 -0.39800879807E+01 -0.63962847551E+02 -0.22530058808E+03  0.26554651204E+03  0.12509000000E+03 0.  0.
         25    1    4    4    0    0 -0.36319825499E+02 -0.13791987893E+02 -0.33089972236E+03  0.35588127657E+03  0.12509000000E+03 0.  0.
<mgrwt>
<rscale>  2 0.45325256E+03</rscale>
<asrwt>0</asrwt>
<pdfrwt beam="1">  1       21 0.61278254E-02 0.45325256E+03</pdfrwt>
<pdfrwt beam="2">  1       21 0.18125765E+00 0.45325256E+03</pdfrwt>
<totfact> 0.30282402E+04</totfact>
</mgrwt>
</event>
<event>
 7    0  0.4784406E-002  0.4717728E+03  0.7546771E-02  0.1021421E+00
         21   -1    0    0  502  501  0.00000000000E+00  0.00000000000E+00  0.15112641947E+04  0.15112641947E+04  0.00000000000E+00 0. -1.
         21   -1    0    0  501  502 -0.00000000000E+00 -0.00000000000E+00 -0.36818437881E+02  0.36818437881E+02  0.00000000000E+00 0. -1.
      99926    2    1    2    0    0  0.00000000000E+00  0.00000000000E+00  0.14744457569E+04  0.15480826326E+04  0.47177277105E+03 0.  0.
      99925    2    3    3    0    0  0.10816051080E+03 -0.68972619946E+02  0.91257403303E+03  0.95833416036E+03  0.26297733505E+03 0.  0.
         25    1    4    4    0    0  0.33340508059E+02  0.28128617837E+01  0.37365905885E+03  0.39545935573E+03  0.12509000000E+03 0.  0.
         25    1    3    3    0    0 -0.10816051080E+03  0.68972619946E+02  0.56187172382E+03  0.58974847226E+03  0.12509000000E+03 0.  0.
         25    1    4    4    0    0  0.74820002736E+02 -0.71785481730E+02  0.53891497418E+03  0.56287480463E+03  0.12509000000E+03 0.  0.
<mgrwt>
<rscale>  2 0.47177277E+03</rscale>
<asrwt>0</asrwt>
<pdfrwt beam="1">  1       21 0.22224469E+00 0.47177277E+03</pdfrwt>
<pdfrwt beam="2">  1       21 0.54144772E-02 0.47177277E+03</pdfrwt>
<totfact> 0.19903331E+04</totfact>
</mgrwt>
</event>
<event>
 7    0  0.4784406E-002  0.4531239E+03  0.7546771E-02  0.1026795E+00
         21   -1    0    0  502  501  0.00000000000E+00  0.00000000000E+00  0.16823672283E+03  0.16823672283E+03  0.00000000000E+00 0.  1.
         21   -1    0    0  501  502 -0.00000000000E+00 -0.00000000000E+00 -0.30510764463E+03  0.30510764463E+03  0.00000000000E+00 0.  1.
      99926    2    1    2    0    0 -0.17763568394E-14  0.00000000000E+00 -0.13687092181E+03  0.47334436746E+03  0.45312386935E+03 0.  0.
      99925    2    3    3    0    0 -0.16573351274E+01  0.10363779564E+03 -0.43329307738E+02  0.28588482221E+03  0.26288621724E+03 0.  0.
         25    1    3    3    0    0  0.16573351274E+01 -0.10363779564E+03 -0.93541614070E+02  0.18745954525E+03  0.12509000000E+03 0.  0.
         25    1    4    4    0    0 -0.31961699285E+02  0.78305130630E+02 -0.15548263139E+02  0.15179756352E+03  0.12509000000E+03 0.  0.
         25    1    4    4    0    0  0.30304364157E+02  0.25332665005E+02 -0.27781044599E+02  0.13408725869E+03  0.12509000000E+03 0.  0.
<mgrwt>
<rscale>  2 0.45312387E+03</rscale>
<asrwt>0</asrwt>
<pdfrwt beam="1">  1       21 0.24740694E-01 0.45312387E+03</pdfrwt>
<pdfrwt beam="2">  1       21 0.44868772E-01 0.45312387E+03</pdfrwt>
<totfact> 0.68197577E+04</totfact>
</mgrwt>
</event>
<event>
 7    0  0.4784406E-002  0.4628149E+03  0.7546771E-02  0.1023968E+00
         21   -1    0    0  502  501  0.00000000000E+00  0.00000000000E+00  0.42146888517E+02  0.42146888517E+02  0.00000000000E+00 0.  1.
         21   -1    0    0  501  502 -0.00000000000E+00 -0.00000000000E+00 -0.12705423497E+04  0.12705423497E+04  0.00000000000E+00 0.  1.
      99926    2    1    2    0    0  0.00000000000E+00  0.00000000000E+00 -0.12283954612E+04  0.13126892382E+04  0.46281489505E+03 0.  0.
      99925    2    3    3    0    0  0.42345732215E+02 -0.10633387082E+03 -0.86638339653E+03  0.91293894594E+03  0.26407816289E+03 0.  0.
         25    1    4    4    0    0  0.23711368151E+02 -0.78896855812E+02 -0.57353863268E+03  0.59277399919E+03  0.12509000000E+03 0.  0.
         25    1    4    4    0    0  0.18634364064E+02 -0.27437015012E+02 -0.29284476385E+03  0.32016494676E+03  0.12509000000E+03 0.  0.
         25    1    3    3    0    0 -0.42345732215E+02  0.10633387082E+03 -0.36201206468E+03  0.39975029230E+03  0.12509000000E+03 0.  0.
<mgrwt>
<rscale>  2 0.46281490E+03</rscale>
<asrwt>0</asrwt>
<pdfrwt beam="1">  1       21 0.61980720E-02 0.46281490E+03</pdfrwt>
<pdfrwt beam="2">  1       21 0.18684446E+00 0.46281490E+03</pdfrwt>
<totfact> 0.27065531E+04</totfact>
</mgrwt>
</event>
<event>
 7    0  0.4784406E-002  0.4551353E+03  0.7546771E-02  0.1026202E+00
         21   -1    0    0  502  501  0.00000000000E+00  0.00000000000E+00  0.16679002694E+03  0.16679002694E+03  0.00000000000E+00 0. -1.
         21   -1    0    0  501  502 -0.00000000000E+00 -0.00000000000E+00 -0.31049233112E+03  0.31049233112E+03  0.00000000000E+00 0. -1.
      99926    2    1    2    0    0  0.14210854715E-13 -0.71054273576E-14 -0.14370230418E+03  0.47728235807E+03  0.45513525143E+03 0.  0.
      99925    2    3    3    0    0 -0.74997112286E+02  0.37471189766E+02 -0.10344157117E+02  0.27613425243E+03  0.26289630440E+03 0.  0.
         25    1    4    4    0    0 -0.41495976532E+02  0.36631651088E+02  0.30877085072E+02  0.14023086826E+03  0.12509000000E+03 0.  0.
         25    1    3    3    0    0  0.74997112286E+02 -0.37471189766E+02 -0.13335814706E+03  0.20114810564E+03  0.12509000000E+03 0.  0.
         25    1    4    4    0    0 -0.33501135754E+02  0.83953867730E+00 -0.41221242189E+02  0.13590338417E+03  0.12509000000E+03 0.  0.
<mgrwt>
<rscale>  2 0.45513525E+03</rscale>
<asrwt>0</asrwt>
<pdfrwt beam="1">  1       21 0.24527945E-01 0.45513525E+03</pdfrwt>
<pdfrwt beam="2">  1       21 0.45660636E-01 0.45513525E+03</pdfrwt>
<totfact> 0.66826694E+04</totfact>
</mgrwt>
</event>
<event>
 7    0  0.4784406E-002  0.4579658E+03  0.7546771E-02  0.1025373E+00
         21   -1    0    0  502  501  0.00000000000E+00  0.00000000000E+00  0.10680377658E+03  0.10680377658E+03  0.00000000000E+00 0. -1.
         21   -1    0    0  501  502 -0.00000000000E+00 -0.00000000000E+00 -0.49092996699E+03  0.49092996699E+03  0.00000000000E+00 0. -1.
      99926    2    1    2    0    0  0.00000000000E+00 -0.11102230246E-15 -0.38412619041E+03  0.59773374357E+03  0.45796582628E+03 0.  0.
      99925    2    3    3    0    0 -0.10713820585E+03  0.15638218545E+00 -0.29871473836E+03  0.41220411291E+03  0.26306485166E+03 0.  0.
         25    1    4    4    0    0 -0.17013038875E+02  0.21183546525E+02 -0.12350786310E+03  0.17787604247E+03  0.12509000000E+03 0.  0.
         25    1    4    4    0    0 -0.90125166976E+02 -0.21027164339E+02 -0.17520687526E+03  0.23432807045E+03  0.12509000000E+03 0.  0.
         25    1    3    3    0    0  0.10713820585E+03 -0.15638218545E+00 -0.85411452052E+02  0.18552963065E+03  0.12509000000E+03 0.  0.
<mgrwt>
<rscale>  2 0.45796583E+03</rscale>
<asrwt>0</asrwt>
<pdfrwt beam="1">  1       21 0.15706438E-01 0.45796583E+03</pdfrwt>
<pdfrwt beam="2">  1       21 0.72195584E-01 0.45796583E+03</pdfrwt>
<totfact> 0.57459492E+04</totfact>
</mgrwt>
</event>
<event>
 7    0  0.4784406E-002  0.4579228E+03  0.7546771E-02  0.1025385E+00
         21   -1    0    0  502  501  0.00000000000E+00  0.00000000000E+00  0.73551381067E+03  0.73551381067E+03  0.00000000000E+00 0. -1.
         21   -1    0    0  501  502 -0.00000000000E+00 -0.00000000000E+00 -0.71274423096E+02  0.71274423096E+02  0.00000000000E+00 0. -1.
      99926    2    1    2    0    0  0.00000000000E+00  0.35527136788E-14  0.66423938758E+03  0.80678823377E+03  0.45792279932E+03 0.  0.
      99925    2    3    3    0    0  0.92380820815E+02 -0.23313529333E+02  0.53314316221E+03  0.60206533542E+03  0.26298916326E+03 0.  0.
         25    1    4    4    0    0  0.23091578039E+02  0.22852423762E+02  0.23491145891E+03  0.26811631035E+03  0.12509000000E+03 0.  0.
         25    1    4    4    0    0  0.69289242777E+02 -0.46165953094E+02  0.29823170330E+03  0.33394902506E+03  0.12509000000E+03 0.  0.
         25    1    3    3    0    0 -0.92380820815E+02  0.23313529333E+02  0.13109622536E+03  0.20472289835E+03  0.12509000000E+03 0.  0.
<mgrwt>
<rscale>  2 0.45792280E+03</rscale>
<asrwt>0</asrwt>
<pdfrwt beam="1">  1       21 0.10816379E+00 0.45792280E+03</pdfrwt>
<pdfrwt beam="2">  1       21 0.10481533E-01 0.45792280E+03</pdfrwt>
<totfact> 0.46365581E+04</totfact>
</mgrwt>
</event>
<event>
 7    0  0.4784406E-002  0.4600856E+03  0.7546771E-02  0.1024756E+00
         21   -1    0    0  502  501  0.00000000000E+00  0.00000000000E+00  0.36673738351E+02  0.36673738351E+02  0.00000000000E+00 0.  1.
         21   -1    0    0  501  502 -0.00000000000E+00 -0.00000000000E+00 -0.14429861953E+04  0.14429861953E+04  0.00000000000E+00 0.  1.
      99926    2    1    2    0    0 -0.17763568394E-14  0.14210854715E-13 -0.14063124570E+04  0.14796599337E+04  0.46008563625E+03 0.  0.
      99925    2    3    3    0    0  0.83150625837E+01 -0.10109584994E+03 -0.10744877137E+04  0.11108175832E+04  0.26287324924E+03 0.  0.
         25    1    3    3    0    0 -0.83150625837E+01  0.10109584994E+03 -0.33182474329E+03  0.36884235047E+03  0.12509000000E+03 0.  0.
         25    1    4    4    0    0  0.87309900620E+01 -0.14334678479E+02 -0.57286491931E+03  0.58660330469E+03  0.12509000000E+03 0.  0.
         25    1    4    4    0    0 -0.41592747824E+00 -0.86761171457E+02 -0.50162279440E+03  0.52421427855E+03  0.12509000000E+03 0.  0.
<mgrwt>
<rscale>  2 0.46008564E+03</rscale>
<asrwt>0</asrwt>
<pdfrwt beam="1">  1       21 0.53931963E-02 0.46008564E+03</pdfrwt>
<pdfrwt beam="2">  1       21 0.21220387E+00 0.46008564E+03</pdfrwt>
<totfact> 0.23346079E+04</totfact>
</mgrwt>
</event>
<event>
 7    0  0.4784406E-002  0.4657767E+03  0.7546771E-02  0.1023119E+00
         21   -1    0    0  502  501  0.00000000000E+00  0.00000000000E+00  0.91611191195E+03  0.91611191195E+03  0.00000000000E+00 0. -1.
         21   -1    0    0  501  502 -0.00000000000E+00 -0.00000000000E+00 -0.59203444251E+02  0.59203444251E+02  0.00000000000E+00 0. -1.
      99926    2    1    2    0    0 -0.14210854715E-13  0.00000000000E+00  0.85690846770E+03  0.97531535620E+03  0.46577668687E+03 0.  0.
      99925    2    3    3    0    0  0.11453350125E+03 -0.24187952590E+02  0.45438570575E+03  0.53785100115E+03  0.26289608191E+03 0.  0.
         25    1    4    4    0    0  0.32613929093E+02 -0.11569486860E+02  0.14907893007E+03  0.19766020563E+03  0.12509000000E+03 0.  0.
         25    1    4    4    0    0  0.81919572156E+02 -0.12618465730E+02  0.30530677568E+03  0.34019079552E+03  0.12509000000E+03 0.  0.
         25    1    3    3    0    0 -0.11453350125E+03  0.24187952590E+02  0.40252276194E+03  0.43746435505E+03  0.12509000000E+03 0.  0.
<mgrwt>
<rscale>  2 0.46577669E+03</rscale>
<asrwt>0</asrwt>
<pdfrwt beam="1">  1       21 0.13472233E+00 0.46577669E+03</pdfrwt>
<pdfrwt beam="2">  1       21 0.87063894E-02 0.46577669E+03</pdfrwt>
<totfact> 0.36922150E+04</totfact>
</mgrwt>
</event>
<event>
 7    0  0.4784406E-002  0.4360439E+03  0.7546771E-02  0.1031968E+00
         21   -1    0    0  502  501  0.00000000000E+00  0.00000000000E+00  0.11448710946E+03  0.11448710946E+03  0.00000000000E+00 0.  1.
         21   -1    0    0  501  502 -0.00000000000E+00 -0.00000000000E+00 -0.41518708440E+03  0.41518708440E+03  0.00000000000E+00 0.  1.
      99926    2    1    2    0    0  0.00000000000E+00  0.00000000000E+00 -0.30069997494E+03  0.52967419386E+03  0.43604389310E+03 0.  0.
      99925    2    3    3    0    0 -0.73157182381E+02 -0.38920512416E+02 -0.24755582258E+03  0.37049320049E+03  0.26289645621E+03 0.  0.
         25    1    4    4    0    0 -0.15671637077E+02 -0.43266677177E+02 -0.15560503808E+03  0.20488543515E+03  0.12509000000E+03 0.  0.
         25    1    3    3    0    0  0.73157182381E+02  0.38920512416E+02 -0.53144152354E+02  0.15918099337E+03  0.12509000000E+03 0.  0.
         25    1    4    4    0    0 -0.57485545305E+02  0.43461647614E+01 -0.91950784507E+02  0.16560776533E+03  0.12509000000E+03 0.  0.
<mgrwt>
<rscale>  2 0.43604389E+03</rscale>
<asrwt>0</asrwt>
<pdfrwt beam="1">  1       21 0.16836340E-01 0.43604389E+03</pdfrwt>
<pdfrwt beam="2">  1       21 0.61056924E-01 0.43604389E+03</pdfrwt>
<totfact> 0.73678894E+04</totfact>
</mgrwt>
</event>
<event>
 7    0  0.4784406E-002  0.4393095E+03  0.7546771E-02  0.1030959E+00
         21   -1    0    0  502  501  0.00000000000E+00  0.00000000000E+00  0.62160844291E+03  0.62160844291E+03  0.00000000000E+00 0. -1.
         21   -1    0    0  501  502 -0.00000000000E+00 -0.00000000000E+00 -0.77618328631E+02  0.77618328631E+02  0.00000000000E+00 0. -1.
      99926    2    1    2    0    0  0.00000000000E+00  0.17763568394E-14  0.54399011428E+03  0.69922677154E+03  0.43930949638E+03 0.  0.
      99925    2    3    3    0    0  0.84849847612E+02  0.72653946073E+01  0.42375272850E+03  0.50594764789E+03  0.26299118787E+03 0.  0.
         25    1    3    3    0    0 -0.84849847612E+02 -0.72653946073E+01  0.12023738578E+03  0.19327912365E+03  0.12509000000E+03 0.  0.
         25    1    4    4    0    0  0.24497524942E+02  0.32960673809E+02  0.16433839841E+03  0.21057338872E+03  0.12509000000E+03 0.  0.
         25    1    4    4    0    0  0.60352322671E+02 -0.25695279202E+02  0.25941433009E+03  0.29537425917E+03  0.12509000000E+03 0.  0.
<mgrwt>
<rscale>  2 0.43930950E+03</rscale>
<asrwt>0</asrwt>
<pdfrwt beam="1">  1       21 0.91413004E-01 0.43930950E+03</pdfrwt>
<pdfrwt beam="2">  1       21 0.11414460E-01 0.43930950E+03</pdfrwt>
<totfact> 0.60019956E+04</totfact>
</mgrwt>
</event>
<event>
 7    0  0.4784406E-002  0.4639282E+03  0.7546771E-02  0.1023648E+00
         21   -1    0    0  502  501  0.00000000000E+00  0.00000000000E+00  0.18013685349E+03  0.18013685349E+03  0.00000000000E+00 0. -1.
         21   -1    0    0  501  502 -0.00000000000E+00 -0.00000000000E+00 -0.29870257711E+03  0.29870257711E+03  0.00000000000E+00 0. -1.
      99926    2    1    2    0    0  0.00000000000E+00  0.71054273576E-14 -0.11856572362E+03  0.47883943060E+03  0.46392819431E+03 0.  0.
      99925    2    3    3    0    0  0.94053511142E+02 -0.17611231619E+02 -0.15105489608E+03  0.31803124404E+03  0.26300203824E+03 0.  0.
         25    1    3    3    0    0 -0.94053511142E+02  0.17611231619E+02  0.32489172459E+02  0.16080818656E+03  0.12509000000E+03 0.  0.
         25    1    4    4    0    0  0.11193239530E+02  0.13229492754E+02 -0.59793929081E+02  0.13972519510E+03  0.12509000000E+03 0.  0.
         25    1    4    4    0    0  0.82860271612E+02 -0.30840724373E+02 -0.91260966997E+02  0.17830604894E+03  0.12509000000E+03 0.  0.
<mgrwt>
<rscale>  2 0.46392819E+03</rscale>
<asrwt>0</asrwt>
<pdfrwt beam="1">  1       21 0.26490714E-01 0.46392819E+03</pdfrwt>
<pdfrwt beam="2">  1       21 0.43926849E-01 0.46392819E+03</pdfrwt>
<totfact> 0.62255824E+04</totfact>
</mgrwt>
</event>
<event>
 7    0  0.4784406E-002  0.4225756E+03  0.7546771E-02  0.1036231E+00
         21   -1    0    0  502  501  0.00000000000E+00  0.00000000000E+00  0.23806869397E+02  0.23806869397E+02  0.00000000000E+00 0. -1.
         21   -1    0    0  501  502 -0.00000000000E+00 -0.00000000000E+00 -0.18751956750E+04  0.18751956750E+04  0.00000000000E+00 0. -1.
      99926    2    1    2    0    0  0.00000000000E+00  0.71054273576E-14 -0.18513888056E+04  0.18990025444E+04  0.42257561940E+03 0.  0.
      99925    2    3    3    0    0  0.24084602073E+02  0.62526254171E+02 -0.10150748622E+04  0.10507348269E+04  0.26301539892E+03 0.  0.
         25    1    3    3    0    0 -0.24084602073E+02 -0.62526254171E+02 -0.83631394337E+03  0.84826771747E+03  0.12509000000E+03 0.  0.
         25    1    4    4    0    0 -0.12389867657E+02  0.61049778147E+02 -0.47249038027E+03  0.49272228667E+03  0.12509000000E+03 0.  0.
         25    1    4    4    0    0  0.36474469729E+02  0.14764760240E+01 -0.54258448192E+03  0.55801254022E+03  0.12509000000E+03 0.  0.
<mgrwt>
<rscale>  2 0.42257562E+03</rscale>
<asrwt>0</asrwt>
<pdfrwt beam="1">  1       21 0.35010108E-02 0.42257562E+03</pdfrwt>
<pdfrwt beam="2">  1       21 0.27576403E+00 0.42257562E+03</pdfrwt>
<totfact> 0.20011834E+04</totfact>
</mgrwt>
</event>
<event>
 7    0  0.4784406E-002  0.4554848E+03  0.7546771E-02  0.1026099E+00
         21   -1    0    0  502  501  0.00000000000E+00  0.00000000000E+00  0.17488975134E+03  0.17488975134E+03  0.00000000000E+00 0.  1.
         21   -1    0    0  501  502 -0.00000000000E+00 -0.00000000000E+00 -0.29656741579E+03  0.29656741579E+03  0.00000000000E+00 0.  1.
      99926    2    1    2    0    0  0.00000000000E+00  0.00000000000E+00 -0.12167766446E+03  0.47145716713E+03  0.45548480371E+03 0.  0.
      99925    2    3    3    0    0 -0.75442696271E+02  0.65769230408E+02 -0.13212351155E+03  0.31091491129E+03  0.26304803301E+03 0.  0.
         25    1    4    4    0    0 -0.57585488234E+02  0.66194034138E+02 -0.91939782412E+02  0.17832041470E+03  0.12509000000E+03 0.  0.
         25    1    4    4    0    0 -0.17857208037E+02 -0.42480372996E+00 -0.40183729135E+02  0.13259449658E+03  0.12509000000E+03 0.  0.
         25    1    3    3    0    0  0.75442696271E+02 -0.65769230408E+02  0.10445847088E+02  0.16054225584E+03  0.12509000000E+03 0.  0.
<mgrwt>
<rscale>  2 0.45548480E+03</rscale>
<asrwt>0</asrwt>
<pdfrwt beam="1">  1       21 0.25719081E-01 0.45548480E+03</pdfrwt>
<pdfrwt beam="2">  1       21 0.43612855E-01 0.45548480E+03</pdfrwt>
<totfact> 0.67069164E+04</totfact>
</mgrwt>
</event>
<event>
 7    0  0.4784406E-002  0.4547624E+03  0.7546771E-02  0.1026311E+00
         21   -1    0    0  502  501  0.00000000000E+00  0.00000000000E+00  0.83728628536E+03  0.83728628536E+03  0.00000000000E+00 0. -1.
         21   -1    0    0  501  502 -0.00000000000E+00 -0.00000000000E+00 -0.61749748863E+02  0.61749748863E+02  0.00000000000E+00 0. -1.
      99926    2    1    2    0    0  0.00000000000E+00  0.17763568394E-14  0.77553653649E+03  0.89903603422E+03  0.45476243401E+03 0.  0.
      99925    2    3    3    0    0 -0.82230086625E+02  0.79456097144E+01  0.64045703892E+03  0.69724679114E+03  0.26295046907E+03 0.  0.
         25    1    3    3    0    0  0.82230086625E+02 -0.79456097144E+01  0.13507949757E+03  0.20178924308E+03  0.12509000000E+03 0.  0.
         25    1    4    4    0    0 -0.78810445348E+02  0.22167387628E+02  0.33498394842E+03  0.36682997856E+03  0.12509000000E+03 0.  0.
         25    1    4    4    0    0 -0.34196412773E+01 -0.14221777913E+02  0.30547309050E+03  0.33041681258E+03  0.12509000000E+03 0.  0.
<mgrwt>
<rscale>  2 0.45476243E+03</rscale>
<asrwt>0</asrwt>
<pdfrwt beam="1">  1       21 0.12313033E+00 0.45476243E+03</pdfrwt>
<pdfrwt beam="2">  1       21 0.90808459E-02 0.45476243E+03</pdfrwt>
<totfact> 0.43355979E+04</totfact>
</mgrwt>
</event>
<event>
 7    0  0.4784406E-002  0.4523686E+03  0.7546771E-02  0.1027018E+00
         21   -1    0    0  502  501  0.00000000000E+00  0.00000000000E+00  0.42094163641E+03  0.42094163641E+03  0.00000000000E+00 0. -1.
         21   -1    0    0  501  502 -0.00000000000E+00 -0.00000000000E+00 -0.12153548564E+03  0.12153548564E+03  0.00000000000E+00 0. -1.
      99926    2    1    2    0    0  0.00000000000E+00  0.00000000000E+00  0.29940615076E+03  0.54247712205E+03  0.45236863821E+03 0.  0.
      99925    2    3    3    0    0 -0.63447240875E+02 -0.32255090290E+02  0.29047985239E+03  0.39827889000E+03  0.26302392733E+03 0.  0.
         25    1    3    3    0    0  0.63447240875E+02  0.32255090290E+02  0.89262983718E+01  0.14419823205E+03  0.12509000000E+03 0.  0.
         25    1    4    4    0    0 -0.58065401639E+02  0.14648202265E+02  0.15317626864E+03  0.20663164828E+03  0.12509000000E+03 0.  0.
         25    1    4    4    0    0 -0.53818392370E+01 -0.46903292555E+02  0.13730358375E+03  0.19164724172E+03  0.12509000000E+03 0.  0.
<mgrwt>
<rscale>  2 0.45236864E+03</rscale>
<asrwt>0</asrwt>
<pdfrwt beam="1">  1       21 0.61903181E-01 0.45236864E+03</pdfrwt>
<pdfrwt beam="2">  1       21 0.17872866E-01 0.45236864E+03</pdfrwt>
<totfact> 0.63682111E+04</totfact>
</mgrwt>
</event>
<event>
 7    0  0.4784406E-002  0.4456424E+03  0.7546771E-02  0.1029030E+00
         21   -1    0    0  502  501  0.00000000000E+00  0.00000000000E+00  0.14220174133E+03  0.14220174133E+03  0.00000000000E+00 0.  1.
         21   -1    0    0  501  502 -0.00000000000E+00 -0.00000000000E+00 -0.34914686353E+03  0.34914686353E+03  0.00000000000E+00 0.  1.
      99926    2    1    2    0    0  0.00000000000E+00  0.00000000000E+00 -0.20694512221E+03  0.49134860486E+03  0.44564242156E+03 0.  0.
      99925    2    3    3    0    0  0.92413885598E+02 -0.43750559075E+02 -0.15336114876E+03  0.32113348221E+03  0.26296888366E+03 0.  0.
         25    1    3    3    0    0 -0.92413885598E+02  0.43750559075E+02 -0.53583973443E+02  0.17021512266E+03  0.12509000000E+03 0.  0.
         25    1    4    4    0    0  0.64770140514E+02 -0.18032163393E+02 -0.38444978717E+02  0.14712530206E+03  0.12509000000E+03 0.  0.
         25    1    4    4    0    0  0.27643745084E+02 -0.25718395682E+02 -0.11491617005E+03  0.17400818014E+03  0.12509000000E+03 0.  0.
<mgrwt>
<rscale>  2 0.44564242E+03</rscale>
<asrwt>0</asrwt>
<pdfrwt beam="1">  1       21 0.20912021E-01 0.44564242E+03</pdfrwt>
<pdfrwt beam="2">  1       21 0.51345127E-01 0.44564242E+03</pdfrwt>
<totfact> 0.71013161E+04</totfact>
</mgrwt>
</event>
<event>
 7    0  0.4784406E-002  0.4626890E+03  0.7546771E-02  0.1024004E+00
         21   -1    0    0  502  501  0.00000000000E+00  0.00000000000E+00  0.12516037940E+03  0.12516037940E+03  0.00000000000E+00 0.  1.
         21   -1    0    0  501  502 -0.00000000000E+00 -0.00000000000E+00 -0.42761363192E+03  0.42761363192E+03  0.00000000000E+00 0.  1.
      99926    2    1    2    0    0  0.00000000000E+00  0.14210854715E-13 -0.30245325252E+03  0.55277401132E+03  0.46268902907E+03 0.  0.
      99925    2    3    3    0    0  0.82436718879E+02 -0.85713680225E+02 -0.16778668879E+03  0.33385567247E+03  0.26299161490E+03 0.  0.
         25    1    4    4    0    0  0.37704933955E+02 -0.44459928950E+02 -0.13027185537E+03  0.18978043031E+03  0.12509000000E+03 0.  0.
         25    1    3    3    0    0 -0.82436718879E+02  0.85713680225E+02 -0.13466656373E+03  0.21891833885E+03  0.12509000000E+03 0.  0.
         25    1    4    4    0    0  0.44731784924E+02 -0.41253751275E+02 -0.37514833427E+02  0.14407524216E+03  0.12509000000E+03 0.  0.
<mgrwt>
<rscale>  2 0.46268903E+03</rscale>
<asrwt>0</asrwt>
<pdfrwt beam="1">  1       21 0.18405938E-01 0.46268903E+03</pdfrwt>
<pdfrwt beam="2">  1       21 0.62884357E-01 0.46268903E+03</pdfrwt>
<totfact> 0.58069644E+04</totfact>
</mgrwt>
</event>
<event>
 7    0  0.4784406E-002  0.4543030E+03  0.7546771E-02  0.1026447E+00
         21   -1    0    0  502  501  0.00000000000E+00  0.00000000000E+00  0.96726038466E+02  0.96726038466E+02  0.00000000000E+00 0. -1.
         21   -1    0    0  501  502 -0.00000000000E+00 -0.00000000000E+00 -0.53344273351E+03  0.53344273351E+03  0.00000000000E+00 0. -1.
      99926    2    1    2    0    0  0.00000000000E+00  0.00000000000E+00 -0.43671669504E+03  0.63016877197E+03  0.45430299299E+03 0.  0.
      99925    2    3    3    0    0 -0.84728573722E+02  0.55841563492E+02 -0.34220733841E+03  0.44341562472E+03  0.26308618809E+03 0.  0.
         25    1    4    4    0    0 -0.84165063608E+02  0.27198342994E+02 -0.19859879324E+03  0.25082363638E+03  0.12509000000E+03 0.  0.
         25    1    3    3    0    0  0.84728573722E+02 -0.55841563492E+02 -0.94509356630E+02  0.18675314725E+03  0.12509000000E+03 0.  0.
         25    1    4    4    0    0 -0.56351011404E+00  0.28643220498E+02 -0.14360854517E+03  0.19259198834E+03  0.12509000000E+03 0.  0.
<mgrwt>
<rscale>  2 0.45430299E+03</rscale>
<asrwt>0</asrwt>
<pdfrwt beam="1">  1       21 0.14224417E-01 0.45430299E+03</pdfrwt>
<pdfrwt beam="2">  1       21 0.78447461E-01 0.45430299E+03</pdfrwt>
<totfact> 0.57172609E+04</totfact>
</mgrwt>
</event>
<event>
 7    0  0.4784406E-002  0.4540033E+03  0.7546771E-02  0.1026535E+00
         21   -1    0    0  502  501  0.00000000000E+00  0.00000000000E+00  0.26139137052E+04  0.26139137052E+04  0.00000000000E+00 0. -1.
         21   -1    0    0  501  502 -0.00000000000E+00 -0.00000000000E+00 -0.19713635417E+02  0.19713635417E+02  0.00000000000E+00 0. -1.
      99926    2    1    2    0    0  0.00000000000E+00  0.00000000000E+00  0.25942000698E+04  0.26336273406E+04  0.45400326781E+03 0.  0.
      99925    2    3    3    0    0  0.19275583355E+02  0.39054864852E+02  0.10345703897E+04  0.10683832453E+04  0.26307800588E+03 0.  0.
         25    1    4    4    0    0 -0.13598489700E+02  0.51355017232E+02  0.57106040985E+03  0.58700916221E+03  0.12509000000E+03 0.  0.
         25    1    3    3    0    0 -0.19275583355E+02 -0.39054864852E+02  0.15596296801E+04  0.15652440953E+04  0.12509000000E+03 0.  0.
         25    1    4    4    0    0  0.32874073055E+02 -0.12300152381E+02  0.46350997981E+03  0.48137408313E+03  0.12509000000E+03 0.  0.
<mgrwt>
<rscale>  2 0.45400327E+03</rscale>
<asrwt>0</asrwt>
<pdfrwt beam="1">  1       21 0.38439884E+00 0.45400327E+03</pdfrwt>
<pdfrwt beam="2">  1       21 0.28990658E-02 0.45400327E+03</pdfrwt>
<totfact> 0.59046227E+03</totfact>
</mgrwt>
</event>
<event>
 7    0  0.4784406E-002  0.4545926E+03  0.7546771E-02  0.1026361E+00
         21   -1    0    0  502  501  0.00000000000E+00  0.00000000000E+00  0.32684735602E+03  0.32684735602E+03  0.00000000000E+00 0. -1.
         21   -1    0    0  501  502 -0.00000000000E+00 -0.00000000000E+00 -0.15806647627E+03  0.15806647627E+03  0.00000000000E+00 0. -1.
      99926    2    1    2    0    0  0.14210854715E-13  0.35527136788E-14  0.16878087975E+03  0.48491383229E+03  0.45459260814E+03 0.  0.
      99925    2    3    3    0    0 -0.97263679585E+02 -0.31699579328E+02  0.15667886533E+03  0.32286737738E+03  0.26311592471E+03 0.  0.
         25    1    4    4    0    0 -0.72384155605E+02 -0.51032767015E+02  0.87685408813E+02  0.17657873120E+03  0.12509000000E+03 0.  0.
         25    1    3    3    0    0  0.97263679585E+02  0.31699579328E+02  0.12102014424E+02  0.16204645491E+03  0.12509000000E+03 0.  0.
         25    1    4    4    0    0 -0.24879523979E+02  0.19333187688E+02  0.68993456513E+02  0.14628864618E+03  0.12509000000E+03 0.  0.
<mgrwt>
<rscale>  2 0.45459261E+03</rscale>
<asrwt>0</asrwt>
<pdfrwt beam="1">  1       21 0.48065788E-01 0.45459261E+03</pdfrwt>
<pdfrwt beam="2">  1       21 0.23245070E-01 0.45459261E+03</pdfrwt>
<totfact> 0.66559110E+04</totfact>
</mgrwt>
</event>
<event>
 7    0  0.4784406E-002  0.4578053E+03  0.7546771E-02  0.1025420E+00
         21   -1    0    0  502  501  0.00000000000E+00  0.00000000000E+00  0.20481298127E+03  0.20481298127E+03  0.00000000000E+00 0. -1.
         21   -1    0    0  501  502 -0.00000000000E+00 -0.00000000000E+00 -0.25582570046E+03  0.25582570046E+03  0.00000000000E+00 0. -1.
      99926    2    1    2    0    0 -0.71054273576E-14  0.14210854715E-13 -0.51012719191E+02  0.46063868173E+03  0.45780530533E+03 0.  0.
      99925    2    3    3    0    0 -0.50754137587E+02  0.85183939342E+02 -0.92119989549E+02  0.29580664061E+03  0.26302697608E+03 0.  0.
         25    1    4    4    0    0 -0.33557762996E+02  0.51196264049E+02 -0.88480083973E+02  0.16499519469E+03  0.12509000000E+03 0.  0.
         25    1    3    3    0    0  0.50754137587E+02 -0.85183939342E+02  0.41107270358E+02  0.16483204112E+03  0.12509000000E+03 0.  0.
         25    1    4    4    0    0 -0.17196374591E+02  0.33987675294E+02 -0.36399055759E+01  0.13081144592E+03  0.12509000000E+03 0.  0.
<mgrwt>
<rscale>  2 0.45780531E+03</rscale>
<asrwt>0</asrwt>
<pdfrwt beam="1">  1       21 0.30119556E-01 0.45780531E+03</pdfrwt>
<pdfrwt beam="2">  1       21 0.37621427E-01 0.45780531E+03</pdfrwt>
<totfact> 0.66630736E+04</totfact>
</mgrwt>
</event>
<event>
 7    0  0.4784406E-002  0.4564784E+03  0.7546771E-02  0.1025808E+00
         21   -1    0    0  502  501  0.00000000000E+00  0.00000000000E+00  0.15192995210E+03  0.15192995210E+03  0.00000000000E+00 0. -1.
         21   -1    0    0  501  502 -0.00000000000E+00 -0.00000000000E+00 -0.34287593362E+03  0.34287593362E+03  0.00000000000E+00 0. -1.
      99926    2    1    2    0    0  0.00000000000E+00  0.17763568394E-14 -0.19094598152E+03  0.49480588573E+03  0.45647836388E+03 0.  0.
      99925    2    3    3    0    0 -0.48922285301E+02 -0.98593787032E+01 -0.88722321065E+01  0.26833523493E+03  0.26350423992E+03 0.  0.
         25    1    4    4    0    0 -0.12363311225E+02  0.31352302266E+02 -0.20480498150E+02  0.13115935813E+03  0.12509000000E+03 0.  0.
         25    1    3    3    0    0  0.48922285301E+02  0.98593787032E+01 -0.18207374941E+03  0.22647065080E+03  0.12509000000E+03 0.  0.
         25    1    4    4    0    0 -0.36558974076E+02 -0.41211680970E+02  0.11608266043E+02  0.13717587679E+03  0.12509000000E+03 0.  0.
<mgrwt>
<rscale>  2 0.45647836E+03</rscale>
<asrwt>0</asrwt>
<pdfrwt beam="1">  1       21 0.22342640E-01 0.45647836E+03</pdfrwt>
<pdfrwt beam="2">  1       21 0.50422930E-01 0.45647836E+03</pdfrwt>
<totfact> 0.64872420E+04</totfact>
</mgrwt>
</event>
<event>
 7    0  0.4784406E-002  0.4565543E+03  0.7546771E-02  0.1025785E+00
         21   -1    0    0  502  501  0.00000000000E+00  0.00000000000E+00  0.32730690565E+03  0.32730690565E+03  0.00000000000E+00 0.  1.
         21   -1    0    0  501  502 -0.00000000000E+00 -0.00000000000E+00 -0.15920974608E+03  0.15920974608E+03  0.00000000000E+00 0.  1.
      99926    2    1    2    0    0 -0.35527136788E-14  0.00000000000E+00  0.16809715957E+03  0.48651665173E+03  0.45655426551E+03 0.  0.
      99925    2    3    3    0    0 -0.24546270973E+02 -0.39773373480E+02  0.21707516544E+03  0.34428165668E+03  0.26310414482E+03 0.  0.
         25    1    3    3    0    0  0.24546270973E+02  0.39773373480E+02 -0.48978005872E+02  0.14223499505E+03  0.12509000000E+03 0.  0.
         25    1    4    4    0    0  0.16007176628E+02 -0.28105649954E+02  0.71140293850E+02  0.14749442963E+03  0.12509000000E+03 0.  0.
         25    1    4    4    0    0 -0.40553447601E+02 -0.11667723526E+02  0.14593487159E+03  0.19678722705E+03  0.12509000000E+03 0.  0.
<mgrwt>
<rscale>  2 0.45655427E+03</rscale>
<asrwt>0</asrwt>
<pdfrwt beam="1">  1       21 0.48133368E-01 0.45655427E+03</pdfrwt>
<pdfrwt beam="2">  1       21 0.23413198E-01 0.45655427E+03</pdfrwt>
<totfact> 0.65417825E+04</totfact>
</mgrwt>
</event>
<event>
 7    0  0.4784406E-002  0.4587602E+03  0.7546771E-02  0.1025141E+00
         21   -1    0    0  502  501  0.00000000000E+00  0.00000000000E+00  0.13406967220E+03  0.13406967220E+03  0.00000000000E+00 0. -1.
         21   -1    0    0  501  502 -0.00000000000E+00 -0.00000000000E+00 -0.39244691570E+03  0.39244691570E+03  0.00000000000E+00 0. -1.
      99926    2    1    2    0    0  0.00000000000E+00 -0.35527136788E-14 -0.25837724350E+03  0.52651658791E+03  0.45876019594E+03 0.  0.
      99925    2    3    3    0    0 -0.10943907180E+03  0.18330082277E+02 -0.12086604422E+03  0.31002238387E+03  0.26304443637E+03 0.  0.
         25    1    4    4    0    0 -0.16352501813E+02  0.21398683085E+02 -0.38332963785E+02  0.13357481861E+03  0.12509000000E+03 0.  0.
         25    1    3    3    0    0  0.10943907180E+03 -0.18330082277E+02 -0.13751119928E+03  0.21649420403E+03  0.12509000000E+03 0.  0.
         25    1    4    4    0    0 -0.93086569984E+02 -0.30686008079E+01 -0.82533080437E+02  0.17644756527E+03  0.12509000000E+03 0.  0.
<mgrwt>
<rscale>  2 0.45876020E+03</rscale>
<asrwt>0</asrwt>
<pdfrwt beam="1">  1       21 0.19716128E-01 0.45876020E+03</pdfrwt>
<pdfrwt beam="2">  1       21 0.57712783E-01 0.45876020E+03</pdfrwt>
<totfact> 0.61586546E+04</totfact>
</mgrwt>
</event>
<event>
 7    0  0.4784406E-002  0.4654529E+03  0.7546771E-02  0.1023211E+00
         21   -1    0    0  502  501  0.00000000000E+00  0.00000000000E+00  0.12171167484E+04  0.12171167484E+04  0.00000000000E+00 0.  1.
         21   -1    0    0  501  502 -0.00000000000E+00 -0.00000000000E+00 -0.44499924825E+02  0.44499924825E+02  0.00000000000E+00 0.  1.
      99926    2    1    2    0    0  0.00000000000E+00  0.35527136788E-14  0.11726168236E+04  0.12616166733E+04  0.46545291409E+03 0.  0.
      99925    2    3    3    0    0 -0.76896523451E+02 -0.23535995172E+02  0.98266951053E+03  0.10203812939E+04  0.26281476313E+03 0.  0.
         25    1    4    4    0    0 -0.47540110972E+02 -0.14667820239E+01  0.35666783857E+03  0.38094838072E+03  0.12509000000E+03 0.  0.
         25    1    3    3    0    0  0.76896523451E+02  0.23535995172E+02  0.18994731308E+03  0.24123537932E+03  0.12509000000E+03 0.  0.
         25    1    4    4    0    0 -0.29356412479E+02 -0.22069213148E+02  0.62600167196E+03  0.63943291323E+03  0.12509000000E+03 0.  0.
<mgrwt>
<rscale>  2 0.46545291E+03</rscale>
<asrwt>0</asrwt>
<pdfrwt beam="1">  1       21 0.17898774E+00 0.46545291E+03</pdfrwt>
<pdfrwt beam="2">  1       21 0.65441074E-02 0.46545291E+03</pdfrwt>
<totfact> 0.27909282E+04</totfact>
</mgrwt>
</event>
<event>
 7    0  0.4784406E-002  0.4519236E+03  0.7546771E-02  0.1027150E+00
         21   -1    0    0  502  501  0.00000000000E+00  0.00000000000E+00  0.15998267409E+04  0.15998267409E+04  0.00000000000E+00 0.  1.
         21   -1    0    0  501  502 -0.00000000000E+00 -0.00000000000E+00 -0.31915170478E+02  0.31915170478E+02  0.00000000000E+00 0.  1.
      99926    2    1    2    0    0  0.00000000000E+00  0.00000000000E+00  0.15679115704E+04  0.16317419113E+04  0.45192363589E+03 0.  0.
      99925    2    3    3    0    0 -0.24427495800E+02 -0.68262575195E+02  0.12893399061E+04  0.13178849981E+04  0.26299618463E+03 0.  0.
         25    1    4    4    0    0 -0.15852158600E+02  0.39350115703E+01  0.52231693985E+03  0.53733534129E+03  0.12509000000E+03 0.  0.
         25    1    4    4    0    0 -0.85753372002E+01 -0.72197586765E+02  0.76702296626E+03  0.78054965686E+03  0.12509000000E+03 0.  0.
         25    1    3    3    0    0  0.24427495800E+02  0.68262575195E+02  0.27857166427E+03  0.31385691319E+03  0.12509000000E+03 0.  0.
<mgrwt>
<rscale>  2 0.45192364E+03</rscale>
<asrwt>0</asrwt>
<pdfrwt beam="1">  1       21 0.23526858E+00 0.45192364E+03</pdfrwt>
<pdfrwt beam="2">  1       21 0.46934085E-02 0.45192364E+03</pdfrwt>
<totfact> 0.21224374E+04</totfact>
</mgrwt>
</event>
<event>
 7    0  0.4784406E-002  0.4641879E+03  0.7546771E-02  0.1023574E+00
         21   -1    0    0  502  501  0.00000000000E+00  0.00000000000E+00  0.24314291617E+03  0.24314291617E+03  0.00000000000E+00 0.  1.
         21   -1    0    0  501  502 -0.00000000000E+00 -0.00000000000E+00 -0.22154703631E+03  0.22154703631E+03  0.00000000000E+00 0.  1.
      99926    2    1    2    0    0  0.00000000000E+00  0.00000000000E+00  0.21595879854E+02  0.46468995248E+03  0.46418786058E+03 0.  0.
      99925    2    3    3    0    0 -0.77260382759E+02 -0.79820260058E+02 -0.35973772859E+02  0.28776563625E+03  0.26301047206E+03 0.  0.
         25    1    4    4    0    0 -0.72251714234E+02 -0.17155293524E+02 -0.15985528187E+02  0.14634773492E+03  0.12509000000E+03 0.  0.
         25    1    3    3    0    0  0.77260382759E+02  0.79820260058E+02  0.57569652713E+02  0.17692431623E+03  0.12509000000E+03 0.  0.
         25    1    4    4    0    0 -0.50086685252E+01 -0.62664966534E+02 -0.19988244673E+02  0.14141790133E+03  0.12509000000E+03 0.  0.
<mgrwt>
<rscale>  2 0.46418786E+03</rscale>
<asrwt>0</asrwt>
<pdfrwt beam="1">  1       21 0.35756311E-01 0.46418786E+03</pdfrwt>
<pdfrwt beam="2">  1       21 0.32580446E-01 0.46418786E+03</pdfrwt>
<totfact> 0.63088353E+04</totfact>
</mgrwt>
</event>
<event>
 7    0  0.4784406E-002  0.4554144E+03  0.7546771E-02  0.1026120E+00
         21   -1    0    0  502  501  0.00000000000E+00  0.00000000000E+00  0.37091831341E+04  0.37091831341E+04  0.00000000000E+00 0. -1.
         21   -1    0    0  501  502 -0.00000000000E+00 -0.00000000000E+00 -0.13978970663E+02  0.13978970663E+02  0.00000000000E+00 0. -1.
      99926    2    1    2    0    0  0.00000000000E+00  0.00000000000E+00  0.36952041635E+04  0.37231621048E+04  0.45541437050E+03 0.  0.
      99925    2    3    3    0    0  0.90853235012E+02  0.63658468844E+02  0.25211795697E+04  0.25372919746E+04  0.26305404463E+03 0.  0.
         25    1    3    3    0    0 -0.90853235012E+02 -0.63658468844E+02  0.11740245937E+04  0.11858701302E+04  0.12509000000E+03 0.  0.
         25    1    4    4    0    0  0.55313405612E+02  0.24734910422E+01  0.14663646712E+04  0.14727316619E+04  0.12509000000E+03 0.  0.
         25    1    4    4    0    0  0.35539829400E+02  0.61184977802E+02  0.10548148985E+04  0.10645603126E+04  0.12509000000E+03 0.  0.
<mgrwt>
<rscale>  2 0.45541437E+03</rscale>
<asrwt>0</asrwt>
<pdfrwt beam="1">  1       21 0.54546743E+00 0.45541437E+03</pdfrwt>
<pdfrwt beam="2">  1       21 0.20557335E-02 0.45541437E+03</pdfrwt>
<totfact> 0.81560318E+02</totfact>
</mgrwt>
</event>
<event>
 7    0  0.4784406E-002  0.4532804E+03  0.7546771E-02  0.1026748E+00
         21   -1    0    0  502  501  0.00000000000E+00  0.00000000000E+00  0.50060730975E+03  0.50060730975E+03  0.00000000000E+00 0.  1.
         21   -1    0    0  501  502 -0.00000000000E+00 -0.00000000000E+00 -0.10260694708E+03  0.10260694708E+03  0.00000000000E+00 0.  1.
      99926    2    1    2    0    0  0.00000000000E+00  0.00000000000E+00  0.39800036266E+03  0.60321425683E+03  0.45328043302E+03 0.  0.
      99925    2    3    3    0    0 -0.71250439101E+02 -0.73888360379E+02  0.19236311531E+03  0.34154595445E+03  0.26289533278E+03 0.  0.
         25    1    3    3    0    0  0.71250439101E+02  0.73888360379E+02  0.20563724735E+03  0.26166830238E+03  0.12509000000E+03 0.  0.
         25    1    4    4    0    0 -0.41071983755E+02  0.37671055538E+01  0.83215823142E+02  0.15579948734E+03  0.12509000000E+03 0.  0.
         25    1    4    4    0    0 -0.30178455345E+02 -0.77655465933E+02  0.10914729217E+03  0.18574646711E+03  0.12509000000E+03 0.  0.
<mgrwt>
<rscale>  2 0.45328043E+03</rscale>
<asrwt>0</asrwt>
<pdfrwt beam="1">  1       21 0.73618721E-01 0.45328043E+03</pdfrwt>
<pdfrwt beam="2">  1       21 0.15089257E-01 0.45328043E+03</pdfrwt>
<totfact> 0.59282130E+04</totfact>
</mgrwt>
</event>
<event>
 7    0  0.4784406E-002  0.4555219E+03  0.7546771E-02  0.1026088E+00
         21   -1    0    0  502  501  0.00000000000E+00  0.00000000000E+00  0.20851912116E+03  0.20851912116E+03  0.00000000000E+00 0. -1.
         21   -1    0    0  501  502 -0.00000000000E+00 -0.00000000000E+00 -0.24877835706E+03  0.24877835706E+03  0.00000000000E+00 0. -1.
      99926    2    1    2    0    0  0.00000000000E+00 -0.35527136788E-14 -0.40259235899E+02  0.45729747822E+03  0.45552187380E+03 0.  0.
      99925    2    3    3    0    0 -0.94060534866E+02  0.30550701532E+02 -0.81752214211E+02  0.29252519617E+03  0.26288179146E+03 0.  0.
         25    1    3    3    0    0  0.94060534866E+02 -0.30550701532E+02  0.41492978312E+02  0.16477228205E+03  0.12509000000E+03 0.  0.
         25    1    4    4    0    0 -0.85606565115E+02  0.13856679049E+01 -0.34981255632E+02  0.15556863569E+03  0.12509000000E+03 0.  0.
         25    1    4    4    0    0 -0.84539697506E+01  0.29165033627E+02 -0.46770958579E+02  0.13695656048E+03  0.12509000000E+03 0.  0.
<mgrwt>
<rscale>  2 0.45552187E+03</rscale>
<asrwt>0</asrwt>
<pdfrwt beam="1">  1       21 0.30664577E-01 0.45552187E+03</pdfrwt>
<pdfrwt beam="2">  1       21 0.36585053E-01 0.45552187E+03</pdfrwt>
<totfact> 0.68093855E+04</totfact>
</mgrwt>
</event>
<event>
 7    0  0.4784406E-002  0.4596475E+03  0.7546771E-02  0.1024883E+00
         21   -1    0    0  502  501  0.00000000000E+00  0.00000000000E+00  0.10033644786E+03  0.10033644786E+03  0.00000000000E+00 0. -1.
         21   -1    0    0  501  502 -0.00000000000E+00 -0.00000000000E+00 -0.52641850173E+03  0.52641850173E+03  0.00000000000E+00 0. -1.
      99926    2    1    2    0    0  0.17763568394E-14  0.00000000000E+00 -0.42608205388E+03  0.62675494959E+03  0.45964752822E+03 0.  0.
      99925    2    3    3    0    0 -0.13179052177E+02  0.88248523759E+02 -0.37077113424E+03  0.46345064685E+03  0.26335105604E+03 0.  0.
         25    1    4    4    0    0 -0.37261932919E+02  0.27501871098E+02 -0.21712588244E+03  0.25482535487E+03  0.12509000000E+03 0.  0.
         25    1    4    4    0    0  0.24082880741E+02  0.60746652660E+02 -0.15364525180E+03  0.20862529199E+03  0.12509000000E+03 0.  0.
         25    1    3    3    0    0  0.13179052177E+02 -0.88248523759E+02 -0.55310919634E+02  0.16330430274E+03  0.12509000000E+03 0.  0.
<mgrwt>
<rscale>  2 0.45964753E+03</rscale>
<asrwt>0</asrwt>
<pdfrwt beam="1">  1       21 0.14755360E-01 0.45964753E+03</pdfrwt>
<pdfrwt beam="2">  1       21 0.77414485E-01 0.45964753E+03</pdfrwt>
<totfact> 0.55014334E+04</totfact>
</mgrwt>
</event>
<event>
 7    0  0.4784406E-002  0.4541653E+03  0.7546771E-02  0.1026487E+00
         21   -1    0    0  502  501  0.00000000000E+00  0.00000000000E+00  0.23983352501E+03  0.23983352501E+03  0.00000000000E+00 0. -1.
         21   -1    0    0  501  502 -0.00000000000E+00 -0.00000000000E+00 -0.21500967933E+03  0.21500967933E+03  0.00000000000E+00 0. -1.
      99926    2    1    2    0    0  0.71054273576E-14  0.00000000000E+00  0.24823845675E+02  0.45484320434E+03  0.45416529724E+03 0.  0.
      99925    2    3    3    0    0  0.58052958770E+02  0.93420989962E+02 -0.10538776673E+02  0.28456211159E+03  0.26223444120E+03 0.  0.
         25    1    4    4    0    0  0.54716658240E+02  0.24301101037E+02  0.14483062804E+02  0.13943358064E+03  0.12509000000E+03 0.  0.
         25    1    3    3    0    0 -0.58052958770E+02 -0.93420989962E+02  0.35362622348E+02  0.17028109275E+03  0.12509000000E+03 0.  0.
         25    1    4    4    0    0  0.33363005296E+01  0.69119888926E+02 -0.25021839477E+02  0.14512853095E+03  0.12509000000E+03 0.  0.
<mgrwt>
<rscale>  2 0.45416530E+03</rscale>
<asrwt>0</asrwt>
<pdfrwt beam="1">  1       21 0.35269636E-01 0.45416530E+03</pdfrwt>
<pdfrwt beam="2">  1       21 0.31619070E-01 0.45416530E+03</pdfrwt>
<totfact> 0.69015810E+04</totfact>
</mgrwt>
</event>
<event>
 7    0  0.4784406E-002  0.4631085E+03  0.7546771E-02  0.1023884E+00
         21   -1    0    0  502  501  0.00000000000E+00  0.00000000000E+00  0.96968959791E+03  0.96968959791E+03  0.00000000000E+00 0.  1.
         21   -1    0    0  501  502 -0.00000000000E+00 -0.00000000000E+00 -0.55293342289E+02  0.55293342289E+02  0.00000000000E+00 0.  1.
      99926    2    1    2    0    0 -0.14210854715E-13  0.00000000000E+00  0.91439625562E+03  0.10249829402E+04  0.46310853523E+03 0.  0.
      99925    2    3    3    0    0  0.73029899810E+02  0.83958662428E+02  0.46794280469E+03  0.54816996302E+03  0.26293994871E+03 0.  0.
         25    1    3    3    0    0 -0.73029899810E+02 -0.83958662428E+02  0.44645345093E+03  0.47681297718E+03  0.12509000000E+03 0.  0.
         25    1    4    4    0    0  0.54644191550E+02  0.66203603660E+01  0.20620510285E+03  0.24738203124E+03  0.12509000000E+03 0.  0.
         25    1    4    4    0    0  0.18385708260E+02  0.77338302062E+02  0.26173770185E+03  0.30078793178E+03  0.12509000000E+03 0.  0.
<mgrwt>
<rscale>  2 0.46310854E+03</rscale>
<asrwt>0</asrwt>
<pdfrwt beam="1">  1       21 0.14260140E+00 0.46310854E+03</pdfrwt>
<pdfrwt beam="2">  1       21 0.81313745E-02 0.46310854E+03</pdfrwt>
<totfact> 0.35882905E+04</totfact>
</mgrwt>
</event>
<event>
 7    0  0.4784406E-002  0.4530308E+03  0.7546771E-02  0.1026822E+00
         21   -1    0    0  502  501  0.00000000000E+00  0.00000000000E+00  0.10472588144E+04  0.10472588144E+04  0.00000000000E+00 0.  1.
         21   -1    0    0  501  502 -0.00000000000E+00 -0.00000000000E+00 -0.48993845464E+02  0.48993845464E+02  0.00000000000E+00 0.  1.
      99926    2    1    2    0    0  0.00000000000E+00  0.00000000000E+00  0.99826496894E+03  0.10962526599E+04  0.45303084449E+03 0.  0.
      99925    2    3    3    0    0 -0.36437377974E+02  0.99500448757E+02  0.55108043458E+03  0.61996541703E+03  0.26351366402E+03 0.  0.
         25    1    4    4    0    0 -0.55477084681E+02  0.44540071729E+02  0.24310487592E+03  0.28250489148E+03  0.12509000000E+03 0.  0.
         25    1    4    4    0    0  0.19039706706E+02  0.54960377028E+02  0.30797555866E+03  0.33746052555E+03  0.12509000000E+03 0.  0.
         25    1    3    3    0    0  0.36437377974E+02 -0.99500448757E+02  0.44718453436E+03  0.47628724284E+03  0.12509000000E+03 0.  0.
<mgrwt>
<rscale>  2 0.45303084E+03</rscale>
<asrwt>0</asrwt>
<pdfrwt beam="1">  1       21 0.15400863E+00 0.45303084E+03</pdfrwt>
<pdfrwt beam="2">  1       21 0.72049779E-02 0.45303084E+03</pdfrwt>
<totfact> 0.36177036E+04</totfact>
</mgrwt>
</event>
<event>
 7    0  0.4784406E-002  0.4428366E+03  0.7546771E-02  0.1029880E+00
         21   -1    0    0  502  501  0.00000000000E+00  0.00000000000E+00  0.31248487088E+03  0.31248487088E+03  0.00000000000E+00 0. -1.
         21   -1    0    0  501  502 -0.00000000000E+00 -0.00000000000E+00 -0.15689097230E+03  0.15689097230E+03  0.00000000000E+00 0. -1.
      99926    2    1    2    0    0  0.00000000000E+00  0.17763568394E-14  0.15559389858E+03  0.46937584319E+03  0.44283656228E+03 0.  0.
      99925    2    3    3    0    0 -0.96363548485E+02 -0.14614310801E+02  0.70014432113E+02  0.28917910421E+03  0.26310268348E+03 0.  0.
         25    1    3    3    0    0  0.96363548485E+02  0.14614310801E+02  0.85579466468E+02  0.18019673898E+03  0.12509000000E+03 0.  0.
         25    1    4    4    0    0 -0.32348357148E+02  0.15930747001E+01  0.71587777649E+02  0.14772024948E+03  0.12509000000E+03 0.  0.
         25    1    4    4    0    0 -0.64015191337E+02 -0.16207385501E+02 -0.15733455362E+01  0.14145885473E+03  0.12509000000E+03 0.  0.
<mgrwt>
<rscale>  2 0.44283656E+03</rscale>
<asrwt>0</asrwt>
<pdfrwt beam="1">  1       21 0.45953658E-01 0.44283656E+03</pdfrwt>
<pdfrwt beam="2">  1       21 0.23072202E-01 0.44283656E+03</pdfrwt>
<totfact> 0.74409643E+04</totfact>
</mgrwt>
</event>
<event>
 6    0  0.4784406E-002  0.4663324E+03  0.7546771E-02  0.1022960E+00
         21   -1    0    0  502  501  0.00000000000E+00  0.00000000000E+00  0.21514103436E+04  0.21514103436E+04  0.00000000000E+00 0. -1.
         21   -1    0    0  501  502 -0.00000000000E+00 -0.00000000000E+00 -0.25270161382E+02  0.25270161382E+02  0.00000000000E+00 0. -1.
      99926    2    1    2    0    0  0.00000000000E+00 -0.17763568394E-14  0.21261401823E+04  0.21766805050E+04  0.46633244186E+03 0.  0.
         25    1    3    3    0    0 -0.78389973416E+02  0.17115540146E+02  0.65839349667E+03  0.67495735732E+03  0.12509000000E+03 0.  0.
         25    1    3    3    0    0  0.11442942346E+03 -0.10125316713E+02  0.57662388988E+03  0.60111499188E+03  0.12509000000E+03 0.  0.
         25    1    3    3    0    0 -0.36039450044E+02 -0.69902234328E+01  0.89112279571E+03  0.90060815581E+03  0.12509000000E+03 0.  0.
<mgrwt>
<rscale>  2 0.46633244E+03</rscale>
<asrwt>0</asrwt>
<pdfrwt beam="1">  1       21 0.31638375E+00 0.46633244E+03</pdfrwt>
<pdfrwt beam="2">  1       21 0.37162017E-02 0.46633244E+03</pdfrwt>
<totfact> 0.10114018E+04</totfact>
</mgrwt>
</event>
<event>
 7    0  0.4784406E-002  0.4602248E+03  0.7546771E-02  0.1024716E+00
         21   -1    0    0  502  501  0.00000000000E+00  0.00000000000E+00  0.71500984097E+03  0.71500984097E+03  0.00000000000E+00 0.  1.
         21   -1    0    0  501  502 -0.00000000000E+00 -0.00000000000E+00 -0.74057334460E+02  0.74057334460E+02  0.00000000000E+00 0.  1.
      99926    2    1    2    0    0  0.00000000000E+00  0.00000000000E+00  0.64095250651E+03  0.78906717543E+03  0.46022482738E+03 0.  0.
      99925    2    3    3    0    0 -0.52304405443E+02  0.60218920762E+02  0.55049516717E+03  0.61530841281E+03  0.26305407154E+03 0.  0.
         25    1    3    3    0    0  0.52304405443E+02 -0.60218920762E+02  0.90457339343E+02  0.17375876262E+03  0.12509000000E+03 0.  0.
         25    1    4    4    0    0 -0.64282020458E+02  0.48088438037E+02  0.29725724330E+03  0.33234628450E+03  0.12509000000E+03 0.  0.
         25    1    4    4    0    0  0.11977615015E+02  0.12130482724E+02  0.25323792387E+03  0.28296212831E+03  0.12509000000E+03 0.  0.
<mgrwt>
<rscale>  2 0.46022483E+03</rscale>
<asrwt>0</asrwt>
<pdfrwt beam="1">  1       21 0.10514850E+00 0.46022483E+03</pdfrwt>
<pdfrwt beam="2">  1       21 0.10890785E-01 0.46022483E+03</pdfrwt>
<totfact> 0.46367369E+04</totfact>
</mgrwt>
</event>
<event>
 7    0  0.4784406E-002  0.4512478E+03  0.7546771E-02  0.1027351E+00
         21   -1    0    0  502  501  0.00000000000E+00  0.00000000000E+00  0.40332267169E+03  0.40332267169E+03  0.00000000000E+00 0.  1.
         21   -1    0    0  501  502 -0.00000000000E+00 -0.00000000000E+00 -0.12621688949E+03  0.12621688949E+03  0.00000000000E+00 0.  1.
      99926    2    1    2    0    0  0.71054273576E-14  0.14210854715E-13  0.27710578219E+03  0.52953956118E+03  0.45124775049E+03 0.  0.
      99925    2    3    3    0    0 -0.48103064524E+02 -0.98945378939E+02  0.17437474244E+03  0.33382224600E+03  0.26253885102E+03 0.  0.
         25    1    4    4    0    0 -0.56896186038E+02 -0.35093934745E+02  0.67249720345E+02  0.15696749099E+03  0.12509000000E+03 0.  0.
         25    1    4    4    0    0  0.87931215141E+01 -0.63851444193E+02  0.10712502210E+03  0.17685475501E+03  0.12509000000E+03 0.  0.
         25    1    3    3    0    0  0.48103064524E+02  0.98945378939E+02  0.10273103975E+03  0.19571731517E+03  0.12509000000E+03 0.  0.
<mgrwt>
<rscale>  2 0.45124775E+03</rscale>
<asrwt>0</asrwt>
<pdfrwt beam="1">  1       21 0.59312157E-01 0.45124775E+03</pdfrwt>
<pdfrwt beam="2">  1       21 0.18561307E-01 0.45124775E+03</pdfrwt>
<totfact> 0.65152897E+04</totfact>
</mgrwt>
</event>
<event>
 7    0  0.4784406E-002  0.4574476E+03  0.7546771E-02  0.1025524E+00
         21   -1    0    0  502  501  0.00000000000E+00  0.00000000000E+00  0.52736884950E+03  0.52736884950E+03  0.00000000000E+00 0.  1.
         21   -1    0    0  501  502 -0.00000000000E+00 -0.00000000000E+00 -0.99199211318E+02  0.99199211318E+02  0.00000000000E+00 0.  1.
      99926    2    1    2    0    0  0.00000000000E+00  0.00000000000E+00  0.42816963818E+03  0.62656806082E+03  0.45744758801E+03 0.  0.
      99925    2    3    3    0    0 -0.30835195894E+01 -0.97639941910E+02  0.35303192862E+03  0.45096552710E+03  0.26304999080E+03 0.  0.
         25    1    3    3    0    0  0.30835195894E+01  0.97639941910E+02  0.75137709562E+02  0.17560253372E+03  0.12509000000E+03 0.  0.
         25    1    4    4    0    0 -0.88504043864E+01 -0.88688619856E+02  0.21697331742E+03  0.26583628331E+03  0.12509000000E+03 0.  0.
         25    1    4    4    0    0  0.57668847970E+01 -0.89513220539E+01  0.13605861120E+03  0.18512924379E+03  0.12509000000E+03 0.  0.
<mgrwt>
<rscale>  2 0.45744759E+03</rscale>
<asrwt>0</asrwt>
<pdfrwt beam="1">  1       21 0.77554242E-01 0.45744759E+03</pdfrwt>
<pdfrwt beam="2">  1       21 0.14588119E-01 0.45744759E+03</pdfrwt>
<totfact> 0.55982362E+04</totfact>
</mgrwt>
</event>
<event>
 7    0  0.4784406E-002  0.4507599E+03  0.7546771E-02  0.1027496E+00
         21   -1    0    0  502  501  0.00000000000E+00  0.00000000000E+00  0.15164983576E+03  0.15164983576E+03  0.00000000000E+00 0. -1.
         21   -1    0    0  501  502 -0.00000000000E+00 -0.00000000000E+00 -0.33495669685E+03  0.33495669685E+03  0.00000000000E+00 0. -1.
      99926    2    1    2    0    0  0.00000000000E+00  0.00000000000E+00 -0.18330686109E+03  0.48660653261E+03  0.45075992752E+03 0.  0.
      99925    2    3    3    0    0  0.82826478435E+02 -0.54259528253E+02 -0.16542562034E+03  0.32607127541E+03  0.26296866514E+03 0.  0.
         25    1    4    4    0    0  0.46866894311E+02 -0.68362134620E+02 -0.90123945846E+02  0.17504205480E+03  0.12509000000E+03 0.  0.
         25    1    4    4    0    0  0.35959584124E+02  0.14102606367E+02 -0.75301674494E+02  0.15102922061E+03  0.12509000000E+03 0.  0.
         25    1    3    3    0    0 -0.82826478435E+02  0.54259528253E+02 -0.17881240754E+02  0.16053525721E+03  0.12509000000E+03 0.  0.
<mgrwt>
<rscale>  2 0.45075993E+03</rscale>
<asrwt>0</asrwt>
<pdfrwt beam="1">  1       21 0.22301447E-01 0.45075993E+03</pdfrwt>
<pdfrwt beam="2">  1       21 0.49258337E-01 0.45075993E+03</pdfrwt>
<totfact> 0.68499085E+04</totfact>
</mgrwt>
</event>
<event>
 7    0  0.4784406E-002  0.4598311E+03  0.7546771E-02  0.1024830E+00
         21   -1    0    0  502  501  0.00000000000E+00  0.00000000000E+00  0.27263121056E+03  0.27263121056E+03  0.00000000000E+00 0. -1.
         21   -1    0    0  501  502 -0.00000000000E+00 -0.00000000000E+00 -0.19389251616E+03  0.19389251616E+03  0.00000000000E+00 0. -1.
      99926    2    1    2    0    0  0.00000000000E+00  0.00000000000E+00  0.78738694403E+02  0.46652372672E+03  0.45983106202E+03 0.  0.
      99925    2    3    3    0    0 -0.88112469608E+02  0.39381142070E+02 -0.19018026891E+02  0.28073199841E+03  0.26293361887E+03 0.  0.
         25    1    3    3    0    0  0.88112469608E+02 -0.39381142070E+02  0.97756721294E+02  0.18579172831E+03  0.12509000000E+03 0.  0.
         25    1    4    4    0    0 -0.71653608799E+02 -0.16956339361E+01 -0.31138267684E+02  0.14749310032E+03  0.12509000000E+03 0.  0.
         25    1    4    4    0    0 -0.16458860808E+02  0.41076776006E+02  0.12120240794E+02  0.13323889809E+03  0.12509000000E+03 0.  0.
<mgrwt>
<rscale>  2 0.45983106E+03</rscale>
<asrwt>0</asrwt>
<pdfrwt beam="1">  1       21 0.40092825E-01 0.45983106E+03</pdfrwt>
<pdfrwt beam="2">  1       21 0.28513605E-01 0.45983106E+03</pdfrwt>
<totfact> 0.65158624E+04</totfact>
</mgrwt>
</event>
<event>
 7    0  0.4784406E-002  0.4501441E+03  0.7546771E-02  0.1027679E+00
         21   -1    0    0  502  501  0.00000000000E+00  0.00000000000E+00  0.40945133541E+03  0.40945133541E+03  0.00000000000E+00 0.  1.
         21   -1    0    0  501  502 -0.00000000000E+00 -0.00000000000E+00 -0.12372026865E+03  0.12372026865E+03  0.00000000000E+00 0.  1.
      99926    2    1    2    0    0  0.00000000000E+00  0.71054273576E-14  0.28573106676E+03  0.53317160405E+03  0.45014410676E+03 0.  0.
      99925    2    3    3    0    0 -0.95254682167E+02  0.50142136928E+02  0.19984889446E+03  0.34713143637E+03  0.26262704570E+03 0.  0.
         25    1    4    4    0    0 -0.68883954294E+02  0.28165407469E+02  0.63084132278E+02  0.15863607781E+03  0.12509000000E+03 0.  0.
         25    1    4    4    0    0 -0.26370727873E+02  0.21976729459E+02  0.13676476218E+03  0.18849535856E+03  0.12509000000E+03 0.  0.
         25    1    3    3    0    0  0.95254682167E+02 -0.50142136928E+02  0.85882172304E+02  0.18604016768E+03  0.12509000000E+03 0.  0.
<mgrwt>
<rscale>  2 0.45014411E+03</rscale>
<asrwt>0</asrwt>
<pdfrwt beam="1">  1       21 0.60213432E-01 0.45014411E+03</pdfrwt>
<pdfrwt beam="2">  1       21 0.18194157E-01 0.45014411E+03</pdfrwt>
<totfact> 0.65472858E+04</totfact>
</mgrwt>
</event>
<event>
 7    0  0.4784406E-002  0.4554580E+03  0.7546771E-02  0.1026107E+00
         21   -1    0    0  502  501  0.00000000000E+00  0.00000000000E+00  0.25192148574E+03  0.25192148574E+03  0.00000000000E+00 0. -1.
         21   -1    0    0  501  502 -0.00000000000E+00 -0.00000000000E+00 -0.20585977404E+03  0.20585977404E+03  0.00000000000E+00 0. -1.
      99926    2    1    2    0    0 -0.71054273576E-14  0.00000000000E+00  0.46061711697E+02  0.45778125978E+03  0.45545801181E+03 0.  0.
      99925    2    3    3    0    0 -0.55526226560E+02 -0.37166067710E+02  0.12131027534E+03  0.29723739395E+03  0.26300077382E+03 0.  0.
         25    1    4    4    0    0  0.36107319149E+01  0.69713576288E+01  0.44947923101E+02  0.13315202253E+03  0.12509000000E+03 0.  0.
         25    1    4    4    0    0 -0.59136958475E+02 -0.44137425339E+02  0.76362352243E+02  0.16408537142E+03  0.12509000000E+03 0.  0.
         25    1    3    3    0    0  0.55526226560E+02  0.37166067710E+02 -0.75248563647E+02  0.16054386583E+03  0.12509000000E+03 0.  0.
<mgrwt>
<rscale>  2 0.45545801E+03</rscale>
<asrwt>0</asrwt>
<pdfrwt beam="1">  1       21 0.37047278E-01 0.45545801E+03</pdfrwt>
<pdfrwt beam="2">  1       21 0.30273496E-01 0.45545801E+03</pdfrwt>
<totfact> 0.68093333E+04</totfact>
</mgrwt>
</event>
<event>
 7    0  0.4784406E-002  0.4590323E+03  0.7546771E-02  0.1025062E+00
         21   -1    0    0  502  501  0.00000000000E+00  0.00000000000E+00  0.20465032070E+04  0.20465032070E+04  0.00000000000E+00 0.  1.
         21   -1    0    0  501  502 -0.00000000000E+00 -0.00000000000E+00 -0.25740325586E+02  0.25740325586E+02  0.00000000000E+00 0.  1.
      99926    2    1    2    0    0  0.00000000000E+00  0.00000000000E+00  0.20207628814E+04  0.20722435325E+04  0.45903228148E+03 0.  0.
      99925    2    3    3    0    0  0.97748440276E+02  0.64100217211E+02  0.12574042542E+04  0.12899216697E+04  0.26299973359E+03 0.  0.
         25    1    4    4    0    0  0.22229765802E+02  0.41907359910E+02  0.73205911517E+03  0.74418307257E+03  0.12509000000E+03 0.  0.
         25    1    3    3    0    0 -0.97748440276E+02 -0.64100217211E+02  0.76335862714E+03  0.78232186289E+03  0.12509000000E+03 0.  0.
         25    1    4    4    0    0  0.75518674474E+02  0.22192857302E+02  0.52534513906E+03  0.54573859708E+03  0.12509000000E+03 0.  0.
<mgrwt>
<rscale>  2 0.45903228E+03</rscale>
<asrwt>0</asrwt>
<pdfrwt beam="1">  1       21 0.30095624E+00 0.45903228E+03</pdfrwt>
<pdfrwt beam="2">  1       21 0.37853434E-02 0.45903228E+03</pdfrwt>
<totfact> 0.12180253E+04</totfact>
</mgrwt>
</event>
<event>
 7    0  0.4784406E-002  0.4514928E+03  0.7546771E-02  0.1027278E+00
         21   -1    0    0  502  501  0.00000000000E+00  0.00000000000E+00  0.43397096024E+02  0.43397096024E+02  0.00000000000E+00 0.  1.
         21   -1    0    0  501  502 -0.00000000000E+00 -0.00000000000E+00 -0.11743049775E+04  0.11743049775E+04  0.00000000000E+00 0.  1.
      99926    2    1    2    0    0  0.17763568394E-14  0.00000000000E+00 -0.11309078815E+04  0.12177020735E+04  0.45149275020E+03 0.  0.
      99925    2    3    3    0    0  0.11953429359E+02 -0.14925252381E+02 -0.42216128486E+03  0.49774728748E+03  0.26299536902E+03 0.  0.
         25    1    3    3    0    0 -0.11953429359E+02  0.14925252381E+02 -0.70874659663E+03  0.71995478606E+03  0.12509000000E+03 0.  0.
         25    1    4    4    0    0 -0.27469608954E+02 -0.78770976817E+01 -0.25204598675E+03  0.28282736010E+03  0.12509000000E+03 0.  0.
         25    1    4    4    0    0  0.39423038313E+02 -0.70481546995E+01 -0.17011529811E+03  0.21491992738E+03  0.12509000000E+03 0.  0.
<mgrwt>
<rscale>  2 0.45149275E+03</rscale>
<asrwt>0</asrwt>
<pdfrwt beam="1">  1       21 0.63819255E-02 0.45149275E+03</pdfrwt>
<pdfrwt beam="2">  1       21 0.17269192E+00 0.45149275E+03</pdfrwt>
<totfact> 0.32478016E+04</totfact>
</mgrwt>
</event>
<event>
 7    0  0.4784406E-002  0.4517740E+03  0.7546771E-02  0.1027194E+00
         21   -1    0    0  502  501  0.00000000000E+00  0.00000000000E+00  0.44439094096E+03  0.44439094096E+03  0.00000000000E+00 0. -1.
         21   -1    0    0  501  502 -0.00000000000E+00 -0.00000000000E+00 -0.11481991494E+03  0.11481991494E+03  0.00000000000E+00 0. -1.
      99926    2    1    2    0    0  0.00000000000E+00  0.00000000000E+00  0.32957102602E+03  0.55921085590E+03  0.45177397021E+03 0.  0.
      99925    2    3    3    0    0  0.30069596955E+02  0.87787587520E+02  0.28137396582E+03  0.39617311212E+03  0.26300377363E+03 0.  0.
         25    1    4    4    0    0  0.54640472473E+02  0.35116608212E+02  0.14026943766E+03  0.19885115198E+03  0.12509000000E+03 0.  0.
         25    1    3    3    0    0 -0.30069596955E+02 -0.87787587520E+02  0.48197060200E+02  0.16303774378E+03  0.12509000000E+03 0.  0.
         25    1    4    4    0    0 -0.24570875518E+02  0.52670979308E+02  0.14110452816E+03  0.19732196014E+03  0.12509000000E+03 0.  0.
<mgrwt>
<rscale>  2 0.45177397E+03</rscale>
<asrwt>0</asrwt>
<pdfrwt beam="1">  1       21 0.65351608E-01 0.45177397E+03</pdfrwt>
<pdfrwt beam="2">  1       21 0.16885282E-01 0.45177397E+03</pdfrwt>
<totfact> 0.62850444E+04</totfact>
</mgrwt>
</event>
<event>
 7    0  0.4784406E-002  0.4613689E+03  0.7546771E-02  0.1024385E+00
         21   -1    0    0  502  501  0.00000000000E+00  0.00000000000E+00  0.10360607960E+03  0.10360607960E+03  0.00000000000E+00 0.  1.
         21   -1    0    0  501  502 -0.00000000000E+00 -0.00000000000E+00 -0.51363129399E+03  0.51363129399E+03  0.00000000000E+00 0.  1.
      99926    2    1    2    0    0 -0.14210854715E-13  0.00000000000E+00 -0.41002521440E+03  0.61723737359E+03  0.46136894013E+03 0.  0.
      99925    2    3    3    0    0  0.79497078145E+02  0.37763169156E+02 -0.14982822280E+03  0.31541652456E+03  0.26323610170E+03 0.  0.
         25    1    3    3    0    0 -0.79497078145E+02 -0.37763169156E+02 -0.26019699159E+03  0.30182084904E+03  0.12509000000E+03 0.  0.
         25    1    4    4    0    0  0.42239884611E+02 -0.22256450257E+02 -0.71082540639E+02  0.15159087411E+03  0.12509000000E+03 0.  0.
         25    1    4    4    0    0  0.37257193534E+02  0.60019619414E+02 -0.78745682164E+02  0.16382565045E+03  0.12509000000E+03 0.  0.
<mgrwt>
<rscale>  2 0.46136894E+03</rscale>
<asrwt>0</asrwt>
<pdfrwt beam="1">  1       21 0.15236188E-01 0.46136894E+03</pdfrwt>
<pdfrwt beam="2">  1       21 0.75534015E-01 0.46136894E+03</pdfrwt>
<totfact> 0.54819772E+04</totfact>
</mgrwt>
</event>
<event>
 7    0  0.4784406E-002  0.4561132E+03  0.7546771E-02  0.1025915E+00
         21   -1    0    0  502  501  0.00000000000E+00  0.00000000000E+00  0.11355185199E+04  0.11355185199E+04  0.00000000000E+00 0.  1.
         21   -1    0    0  501  502 -0.00000000000E+00 -0.00000000000E+00 -0.45802703871E+02  0.45802703871E+02  0.00000000000E+00 0.  1.
      99926    2    1    2    0    0  0.00000000000E+00  0.00000000000E+00  0.10897158161E+04  0.11813212238E+04  0.45611322501E+03 0.  0.
      99925    2    3    3    0    0 -0.62906101330E+02 -0.93768304810E+02  0.64155673505E+03  0.70252717354E+03  0.26305838269E+03 0.  0.
         25    1    3    3    0    0  0.62906101330E+02  0.93768304810E+02  0.44815908100E+03  0.47879405025E+03  0.12509000000E+03 0.  0.
         25    1    4    4    0    0 -0.66640740723E+01 -0.16243791729E+02  0.24090410433E+03  0.27201207002E+03  0.12509000000E+03 0.  0.
         25    1    4    4    0    0 -0.56242027258E+02 -0.77524513081E+02  0.40065263072E+03  0.43051510352E+03  0.12509000000E+03 0.  0.
<mgrwt>
<rscale>  2 0.45611323E+03</rscale>
<asrwt>0</asrwt>
<pdfrwt beam="1">  1       21 0.16698800E+00 0.45611323E+03</pdfrwt>
<pdfrwt beam="2">  1       21 0.67356924E-02 0.45611323E+03</pdfrwt>
<totfact> 0.32471093E+04</totfact>
</mgrwt>
</event>
<event>
 7    0  0.4784406E-002  0.4651757E+03  0.7546771E-02  0.1023291E+00
         21   -1    0    0  502  501  0.00000000000E+00  0.00000000000E+00  0.28987048561E+02  0.28987048561E+02  0.00000000000E+00 0. -1.
         21   -1    0    0  501  502 -0.00000000000E+00 -0.00000000000E+00 -0.18662513687E+04  0.18662513687E+04  0.00000000000E+00 0. -1.
      99926    2    1    2    0    0  0.00000000000E+00  0.00000000000E+00 -0.18372643201E+04  0.18952384173E+04  0.46517574765E+03 0.  0.
      99925    2    3    3    0    0  0.10966794194E+03 -0.53407977640E+02 -0.11009433414E+04  0.11384719002E+04  0.26298775053E+03 0.  0.
         25    1    4    4    0    0  0.89834682638E+02 -0.17127463194E+02 -0.67810616786E+03  0.69558543918E+03  0.12509000000E+03 0.  0.
         25    1    3    3    0    0 -0.10966794194E+03  0.53407977640E+02 -0.73632097871E+03  0.75676651707E+03  0.12509000000E+03 0.  0.
         25    1    4    4    0    0  0.19833259304E+02 -0.36280514446E+02 -0.42283717356E+03  0.44288646101E+03  0.12509000000E+03 0.  0.
<mgrwt>
<rscale>  2 0.46517575E+03</rscale>
<asrwt>0</asrwt>
<pdfrwt beam="1">  1       21 0.42627988E-02 0.46517575E+03</pdfrwt>
<pdfrwt beam="2">  1       21 0.27444889E+00 0.46517575E+03</pdfrwt>
<totfact> 0.14330879E+04</totfact>
</mgrwt>
</event>
<event>
 7    0  0.4784406E-002  0.4572804E+03  0.7546771E-02  0.1025573E+00
         21   -1    0    0  502  501  0.00000000000E+00  0.00000000000E+00  0.42012141224E+02  0.42012141224E+02  0.00000000000E+00 0. -1.
         21   -1    0    0  501  502 -0.00000000000E+00 -0.00000000000E+00 -0.12443150360E+04  0.12443150360E+04  0.00000000000E+00 0. -1.
      99926    2    1    2    0    0  0.00000000000E+00  0.00000000000E+00 -0.12023028948E+04  0.12863271772E+04  0.45728039109E+03 0.  0.
      99925    2    3    3    0    0 -0.71659171636E+02 -0.89044705609E+02 -0.71406446396E+03  0.76952134338E+03  0.26307991702E+03 0.  0.
         25    1    4    4    0    0 -0.49260379604E+02 -0.51078286840E+01 -0.33619132298E+03  0.36211156936E+03  0.12509000000E+03 0.  0.
         25    1    4    4    0    0 -0.22398792032E+02 -0.83936876925E+02 -0.37787314098E+03  0.40740977402E+03  0.12509000000E+03 0.  0.
         25    1    3    3    0    0  0.71659171636E+02  0.89044705609E+02 -0.48823843080E+03  0.51680583384E+03  0.12509000000E+03 0.  0.
<mgrwt>
<rscale>  2 0.45728039E+03</rscale>
<asrwt>0</asrwt>
<pdfrwt beam="1">  1       21 0.61782561E-02 0.45728039E+03</pdfrwt>
<pdfrwt beam="2">  1       21 0.18298750E+00 0.45728039E+03</pdfrwt>
<totfact> 0.28996548E+04</totfact>
</mgrwt>
</event>
<event>
 7    0  0.4784406E-002  0.4374424E+03  0.7546771E-02  0.1031534E+00
         21   -1    0    0  502  501  0.00000000000E+00  0.00000000000E+00  0.54003092119E+03  0.54003092119E+03  0.00000000000E+00 0. -1.
         21   -1    0    0  501  502 -0.00000000000E+00 -0.00000000000E+00 -0.88585582520E+02  0.88585582520E+02  0.00000000000E+00 0. -1.
      99926    2    1    2    0    0  0.00000000000E+00  0.35527136788E-14  0.45144533867E+03  0.62861650371E+03  0.43744235612E+03 0.  0.
      99925    2    3    3    0    0 -0.92903737687E+02 -0.23093026998E+02  0.28875821254E+03  0.40216783076E+03  0.26304612983E+03 0.  0.
         25    1    3    3    0    0  0.92903737687E+02  0.23093026998E+02  0.16268712612E+03  0.22644867294E+03  0.12509000000E+03 0.  0.
         25    1    4    4    0    0 -0.13522492660E+02  0.15124734665E+02  0.12330350956E+03  0.17681311879E+03  0.12509000000E+03 0.  0.
         25    1    4    4    0    0 -0.79381245028E+02 -0.38217761663E+02  0.16545470298E+03  0.22535471197E+03  0.12509000000E+03 0.  0.
<mgrwt>
<rscale>  2 0.43744236E+03</rscale>
<asrwt>0</asrwt>
<pdfrwt beam="1">  1       21 0.79416310E-01 0.43744236E+03</pdfrwt>
<pdfrwt beam="2">  1       21 0.13027292E-01 0.43744236E+03</pdfrwt>
<totfact> 0.65577160E+04</totfact>
</mgrwt>
</event>
<event>
 7    0  0.4784406E-002  0.4515855E+03  0.7546771E-02  0.1027250E+00
         21   -1    0    0  502  501  0.00000000000E+00  0.00000000000E+00  0.41578422540E+02  0.41578422540E+02  0.00000000000E+00 0.  1.
         21   -1    0    0  501  502 -0.00000000000E+00 -0.00000000000E+00 -0.12261736596E+04  0.12261736596E+04  0.00000000000E+00 0.  1.
      99926    2    1    2    0    0  0.00000000000E+00  0.00000000000E+00 -0.11845952371E+04  0.12677520821E+04  0.45158550254E+03 0.  0.
      99925    2    3    3    0    0  0.24966404720E+02  0.10092487039E+03 -0.64467294479E+03  0.70386136523E+03  0.26269462288E+03 0.  0.
         25    1    3    3    0    0 -0.24966404720E+02 -0.10092487039E+03 -0.53992229228E+03  0.56389071692E+03  0.12509000000E+03 0.  0.
         25    1    4    4    0    0  0.28487294053E+02  0.12887254393E+02 -0.31732773063E+03  0.34252299773E+03  0.12509000000E+03 0.  0.
         25    1    4    4    0    0 -0.35208893331E+01  0.88037616000E+02 -0.32734521416E+03  0.36133836750E+03  0.12509000000E+03 0.  0.
<mgrwt>
<rscale>  2 0.45158550E+03</rscale>
<asrwt>0</asrwt>
<pdfrwt beam="1">  1       21 0.61144743E-02 0.45158550E+03</pdfrwt>
<pdfrwt beam="2">  1       21 0.18031964E+00 0.45158550E+03</pdfrwt>
<totfact> 0.30878203E+04</totfact>
</mgrwt>
</event>
<event>
 7    0  0.4784406E-002  0.4530453E+03  0.7546771E-02  0.1026818E+00
         21   -1    0    0  502  501  0.00000000000E+00  0.00000000000E+00  0.10814365698E+04  0.10814365698E+04  0.00000000000E+00 0.  1.
         21   -1    0    0  501  502 -0.00000000000E+00 -0.00000000000E+00 -0.47448480365E+02  0.47448480365E+02  0.00000000000E+00 0.  1.
      99926    2    1    2    0    0 -0.71054273576E-14  0.00000000000E+00  0.10339880894E+04  0.11288850501E+04  0.45304534805E+03 0.  0.
      99925    2    3    3    0    0  0.37202603592E+02 -0.93393601792E+02  0.77089903417E+03  0.82071341345E+03  0.26301860688E+03 0.  0.
         25    1    4    4    0    0 -0.12186719212E+02 -0.17428341702E+02  0.33114107282E+03  0.35461836026E+03  0.12509000000E+03 0.  0.
         25    1    4    4    0    0  0.49389322804E+02 -0.75965260089E+02  0.43975796134E+03  0.46609505320E+03  0.12509000000E+03 0.  0.
         25    1    3    3    0    0 -0.37202603592E+02  0.93393601792E+02  0.26308905522E+03  0.30817163666E+03  0.12509000000E+03 0.  0.
<mgrwt>
<rscale>  2 0.45304535E+03</rscale>
<asrwt>0</asrwt>
<pdfrwt beam="1">  1       21 0.15903477E+00 0.45304535E+03</pdfrwt>
<pdfrwt beam="2">  1       21 0.69777184E-02 0.45304535E+03</pdfrwt>
<totfact> 0.35025889E+04</totfact>
</mgrwt>
</event>
<event>
 7    0  0.4784406E-002  0.4512839E+03  0.7546771E-02  0.1027340E+00
         21   -1    0    0  502  501  0.00000000000E+00  0.00000000000E+00  0.22728542211E+03  0.22728542211E+03  0.00000000000E+00 0.  1.
         21   -1    0    0  501  502 -0.00000000000E+00 -0.00000000000E+00 -0.22401036291E+03  0.22401036291E+03  0.00000000000E+00 0.  1.
      99926    2    1    2    0    0 -0.14210854715E-13  0.00000000000E+00  0.32750592034E+01  0.45129578502E+03  0.45128390129E+03 0.  0.
      99925    2    3    3    0    0 -0.10840715917E+03  0.16198838711E+02  0.10425950989E+02  0.28482309089E+03  0.26268037254E+03 0.  0.
         25    1    4    4    0    0 -0.41558369363E+02 -0.18907752151E+02  0.32454284429E+02  0.13705980386E+03  0.12509000000E+03 0.  0.
         25    1    3    3    0    0  0.10840715917E+03 -0.16198838711E+02 -0.71508917855E+01  0.16647269412E+03  0.12509000000E+03 0.  0.
         25    1    4    4    0    0 -0.66848789810E+02  0.35106590862E+02 -0.22028333440E+02  0.14776328703E+03  0.12509000000E+03 0.  0.
<mgrwt>
<rscale>  2 0.45128390E+03</rscale>
<asrwt>0</asrwt>
<pdfrwt beam="1">  1       21 0.33424327E-01 0.45128390E+03</pdfrwt>
<pdfrwt beam="2">  1       21 0.32942701E-01 0.45128390E+03</pdfrwt>
<totfact> 0.70896947E+04</totfact>
</mgrwt>
</event>
<event>
 7    0  0.4784406E-002  0.4345545E+03  0.7546771E-02  0.1032431E+00
         21   -1    0    0  502  501  0.00000000000E+00  0.00000000000E+00  0.56863306262E+03  0.56863306262E+03  0.00000000000E+00 0.  1.
         21   -1    0    0  501  502 -0.00000000000E+00 -0.00000000000E+00 -0.83022628094E+02  0.83022628094E+02  0.00000000000E+00 0.  1.
      99926    2    1    2    0    0  0.00000000000E+00  0.00000000000E+00  0.48561043453E+03  0.65165569071E+03  0.43455453642E+03 0.  0.
      99925    2    3    3    0    0 -0.39067497864E+02 -0.80262509604E+02  0.34865015198E+03  0.44580631147E+03  0.26309313758E+03 0.  0.
         25    1    3    3    0    0  0.39067497864E+02  0.80262509604E+02  0.13696028255E+03  0.20584937924E+03  0.12509000000E+03 0.  0.
         25    1    4    4    0    0 -0.53129380952E+02 -0.35838919797E+02  0.21536045529E+03  0.25716685847E+03  0.12509000000E+03 0.  0.
         25    1    4    4    0    0  0.14061883088E+02 -0.44423589807E+02  0.13328969669E+03  0.18863945301E+03  0.12509000000E+03 0.  0.
<mgrwt>
<rscale>  2 0.43455454E+03</rscale>
<asrwt>0</asrwt>
<pdfrwt beam="1">  1       21 0.83622507E-01 0.43455454E+03</pdfrwt>
<pdfrwt beam="2">  1       21 0.12209210E-01 0.43455454E+03</pdfrwt>
<totfact> 0.65550167E+04</totfact>
</mgrwt>
</event>
<event>
 7    0  0.4784406E-002  0.4647098E+03  0.7546771E-02  0.1023424E+00
         21   -1    0    0  502  501  0.00000000000E+00  0.00000000000E+00  0.62100309666E+02  0.62100309666E+02  0.00000000000E+00 0. -1.
         21   -1    0    0  501  502 -0.00000000000E+00 -0.00000000000E+00 -0.86938069267E+03  0.86938069267E+03  0.00000000000E+00 0. -1.
      99926    2    1    2    0    0  0.00000000000E+00  0.35527136788E-14 -0.80728038300E+03  0.93148100234E+03  0.46470984596E+03 0.  0.
      99925    2    3    3    0    0  0.95421281972E+02 -0.17388370248E+02 -0.35532935309E+03  0.45261273443E+03  0.26304326968E+03 0.  0.
         25    1    4    4    0    0  0.74341231823E+02 -0.25042090780E+02 -0.14547792555E+03  0.20728014855E+03  0.12509000000E+03 0.  0.
         25    1    4    4    0    0  0.21080050149E+02  0.76537205326E+01 -0.20985142754E+03  0.24533258588E+03  0.12509000000E+03 0.  0.
         25    1    3    3    0    0 -0.95421281972E+02  0.17388370248E+02 -0.45195102991E+03  0.47886826791E+03  0.12509000000E+03 0.  0.
<mgrwt>
<rscale>  2 0.46470985E+03</rscale>
<asrwt>0</asrwt>
<pdfrwt beam="1">  1       21 0.91323981E-02 0.46470985E+03</pdfrwt>
<pdfrwt beam="2">  1       21 0.12785011E+00 0.46470985E+03</pdfrwt>
<totfact> 0.38862309E+04</totfact>
</mgrwt>
</event>
<event>
 7    0  0.4784406E-002  0.4563095E+03  0.7546771E-02  0.1025857E+00
         21   -1    0    0  502  501  0.00000000000E+00  0.00000000000E+00  0.18991255554E+04  0.18991255554E+04  0.00000000000E+00 0. -1.
         21   -1    0    0  501  502 -0.00000000000E+00 -0.00000000000E+00 -0.27409767979E+02  0.27409767979E+02  0.00000000000E+00 0. -1.
      99926    2    1    2    0    0  0.35527136788E-14  0.00000000000E+00  0.18717157874E+04  0.19265353234E+04  0.45630950389E+03 0.  0.
      99925    2    3    3    0    0 -0.18631288476E+02 -0.22112255472E+02  0.70927788401E+03  0.75702881885E+03  0.26302364736E+03 0.  0.
         25    1    4    4    0    0  0.28977650169E+02 -0.15479167233E+00  0.32008643701E+03  0.34488050601E+03  0.12509000000E+03 0.  0.
         25    1    4    4    0    0 -0.47608938645E+02 -0.21957463800E+02  0.38919144700E+03  0.41214831283E+03  0.12509000000E+03 0.  0.
         25    1    3    3    0    0  0.18631288476E+02  0.22112255472E+02  0.11624379034E+04  0.11695065045E+04  0.12509000000E+03 0.  0.
<mgrwt>
<rscale>  2 0.45630950E+03</rscale>
<asrwt>0</asrwt>
<pdfrwt beam="1">  1       21 0.27928308E+00 0.45630950E+03</pdfrwt>
<pdfrwt beam="2">  1       21 0.40308495E-02 0.45630950E+03</pdfrwt>
<totfact> 0.14795582E+04</totfact>
</mgrwt>
</event>
<event>
 7    0  0.4784406E-002  0.4605653E+03  0.7546771E-02  0.1024617E+00
         21   -1    0    0  502  501  0.00000000000E+00  0.00000000000E+00  0.19081291972E+04  0.19081291972E+04  0.00000000000E+00 0. -1.
         21   -1    0    0  501  502 -0.00000000000E+00 -0.00000000000E+00 -0.27791665222E+02  0.27791665222E+02  0.00000000000E+00 0. -1.
      99926    2    1    2    0    0  0.00000000000E+00 -0.14210854715E-13  0.18803375320E+04  0.19359208624E+04  0.46056525205E+03 0.  0.
      99925    2    3    3    0    0 -0.22775786834E+02 -0.94383932083E+02  0.89260815430E+03  0.93557897350E+03  0.26292895511E+03 0.  0.
         25    1    4    4    0    0  0.45679623011E+01 -0.76740528567E+01  0.38078817981E+03  0.40090759952E+03  0.12509000000E+03 0.  0.
         25    1    4    4    0    0 -0.27343749136E+02 -0.86709879226E+02  0.51181997449E+03  0.53467137398E+03  0.12509000000E+03 0.  0.
         25    1    3    3    0    0  0.22775786834E+02  0.94383932083E+02  0.98772937767E+03  0.10003418889E+04  0.12509000000E+03 0.  0.
<mgrwt>
<rscale>  2 0.46056525E+03</rscale>
<asrwt>0</asrwt>
<pdfrwt beam="1">  1       21 0.28060715E+00 0.46056525E+03</pdfrwt>
<pdfrwt beam="2">  1       21 0.40870109E-02 0.46056525E+03</pdfrwt>
<totfact> 0.14162740E+04</totfact>
</mgrwt>
</event>
<event>
 7    0  0.4784406E-002  0.4690156E+03  0.7546771E-02  0.1022198E+00
         21   -1    0    0  502  501  0.00000000000E+00  0.00000000000E+00  0.35815969696E+03  0.35815969696E+03  0.00000000000E+00 0. -1.
         21   -1    0    0  501  502 -0.00000000000E+00 -0.00000000000E+00 -0.15354576337E+03  0.15354576337E+03  0.00000000000E+00 0. -1.
      99926    2    1    2    0    0  0.00000000000E+00  0.88817841970E-15  0.20461393359E+03  0.51170546032E+03  0.46901558216E+03 0.  0.
      99925    2    3    3    0    0  0.90624483154E+02 -0.64887979486E+01  0.22190359293E+03  0.35613765560E+03  0.26332095195E+03 0.  0.
         25    1    4    4    0    0  0.13990367187E+02  0.24856342854E+02  0.94871775999E+02  0.15956732164E+03  0.12509000000E+03 0.  0.
         25    1    4    4    0    0  0.76634115967E+02 -0.31345140802E+02  0.12703181693E+03  0.19657033396E+03  0.12509000000E+03 0.  0.
         25    1    3    3    0    0 -0.90624483154E+02  0.64887979486E+01 -0.17289659338E+02  0.15556780472E+03  0.12509000000E+03 0.  0.
<mgrwt>
<rscale>  2 0.46901558E+03</rscale>
<asrwt>0</asrwt>
<pdfrwt beam="1">  1       21 0.52670544E-01 0.46901558E+03</pdfrwt>
<pdfrwt beam="2">  1       21 0.22580259E-01 0.46901558E+03</pdfrwt>
<totfact> 0.57758002E+04</totfact>
</mgrwt>
</event>
<event>
 7    0  0.4784406E-002  0.4309929E+03  0.7546771E-02  0.1033547E+00
         21   -1    0    0  502  501  0.00000000000E+00  0.00000000000E+00  0.12043121578E+04  0.12043121578E+04  0.00000000000E+00 0.  1.
         21   -1    0    0  501  502 -0.00000000000E+00 -0.00000000000E+00 -0.38560372746E+02  0.38560372746E+02  0.00000000000E+00 0.  1.
      99926    2    1    2    0    0  0.00000000000E+00  0.00000000000E+00  0.11657517851E+04  0.12428725306E+04  0.43099292666E+03 0.  0.
      99925    2    3    3    0    0  0.53076979688E+02  0.30922305304E+02  0.93578012655E+03  0.97397138411E+03  0.26298756072E+03 0.  0.
         25    1    4    4    0    0  0.11646718873E+02 -0.22900791860E+02  0.44905298387E+03  0.46685777572E+03  0.12509000000E+03 0.  0.
         25    1    3    3    0    0 -0.53076979688E+02 -0.30922305304E+02  0.22997165853E+03  0.26890114646E+03  0.12509000000E+03 0.  0.
         25    1    4    4    0    0  0.41430260815E+02  0.53823097164E+02  0.48672714268E+03  0.50711360839E+03  0.12509000000E+03 0.  0.
<mgrwt>
<rscale>  2 0.43099293E+03</rscale>
<asrwt>0</asrwt>
<pdfrwt beam="1">  1       21 0.17710470E+00 0.43099293E+03</pdfrwt>
<pdfrwt beam="2">  1       21 0.56706438E-02 0.43099293E+03</pdfrwt>
<totfact> 0.37319982E+04</totfact>
</mgrwt>
</event>
<event>
 7    0  0.4784406E-002  0.4550208E+03  0.7546771E-02  0.1026235E+00
         21   -1    0    0  502  501  0.00000000000E+00  0.00000000000E+00  0.62873357425E+03  0.62873357425E+03  0.00000000000E+00 0.  1.
         21   -1    0    0  501  502 -0.00000000000E+00 -0.00000000000E+00 -0.82325769348E+02  0.82325769348E+02  0.00000000000E+00 0.  1.
      99926    2    1    2    0    0  0.00000000000E+00  0.17763568394E-14  0.54640780491E+03  0.71105934360E+03  0.45502076970E+03 0.  0.
      99925    2    3    3    0    0  0.89925282228E+02  0.13136956845E+02  0.23813296028E+03  0.36618251929E+03  0.26291290315E+03 0.  0.
         25    1    4    4    0    0  0.26388244488E+02 -0.17261345654E+02  0.76405506166E+02  0.14993199450E+03  0.12509000000E+03 0.  0.
         25    1    4    4    0    0  0.63537037740E+02  0.30398302499E+02  0.16172745412E+03  0.21625052480E+03  0.12509000000E+03 0.  0.
         25    1    3    3    0    0 -0.89925282228E+02 -0.13136956845E+02  0.30827484462E+03  0.34487682431E+03  0.12509000000E+03 0.  0.
<mgrwt>
<rscale>  2 0.45502077E+03</rscale>
<asrwt>0</asrwt>
<pdfrwt beam="1">  1       21 0.92460817E-01 0.45502077E+03</pdfrwt>
<pdfrwt beam="2">  1       21 0.12106731E-01 0.45502077E+03</pdfrwt>
<totfact> 0.52298085E+04</totfact>
</mgrwt>
</event>
<event>
 7    0  0.4784406E-002  0.4428754E+03  0.7546771E-02  0.1029868E+00
         21   -1    0    0  502  501  0.00000000000E+00  0.00000000000E+00  0.17616589787E+03  0.17616589787E+03  0.00000000000E+00 0.  1.
         21   -1    0    0  501  502 -0.00000000000E+00 -0.00000000000E+00 -0.27834359993E+03  0.27834359993E+03  0.00000000000E+00 0.  1.
      99926    2    1    2    0    0  0.71054273576E-14  0.00000000000E+00 -0.10217770206E+03  0.45450949780E+03  0.44287537840E+03 0.  0.
      99925    2    3    3    0    0 -0.55972536858E+02 -0.84121710904E+02 -0.58766435710E+02  0.28795190034E+03  0.26316043740E+03 0.  0.
         25    1    4    4    0    0 -0.68267379335E+02 -0.37352091692E+02 -0.38966236590E+02  0.15238598862E+03  0.12509000000E+03 0.  0.
         25    1    3    3    0    0  0.55972536858E+02  0.84121710904E+02 -0.43411266348E+02  0.16655759747E+03  0.12509000000E+03 0.  0.
         25    1    4    4    0    0  0.12294842477E+02 -0.46769619212E+02 -0.19800199120E+02  0.13556591171E+03  0.12509000000E+03 0.  0.
<mgrwt>
<rscale>  2 0.44287538E+03</rscale>
<asrwt>0</asrwt>
<pdfrwt beam="1">  1       21 0.25906750E-01 0.44287538E+03</pdfrwt>
<pdfrwt beam="2">  1       21 0.40932883E-01 0.44287538E+03</pdfrwt>
<totfact> 0.75620549E+04</totfact>
</mgrwt>
</event>
<event>
 7    0  0.4784406E-002  0.4536101E+03  0.7546771E-02  0.1026651E+00
         21   -1    0    0  502  501  0.00000000000E+00  0.00000000000E+00  0.89186535429E+03  0.89186535429E+03  0.00000000000E+00 0.  1.
         21   -1    0    0  501  502 -0.00000000000E+00 -0.00000000000E+00 -0.57677469334E+02  0.57677469334E+02  0.00000000000E+00 0.  1.
      99926    2    1    2    0    0  0.00000000000E+00  0.00000000000E+00  0.83418788496E+03  0.94954282363E+03  0.45361012609E+03 0.  0.
      99925    2    3    3    0    0 -0.46451835389E+02  0.82226834094E+01  0.31324329268E+03  0.41171742272E+03  0.26299142616E+03 0.  0.
         25    1    4    4    0    0  0.12397516980E+00  0.36985291983E+02  0.16105381663E+03  0.20725290623E+03  0.12509000000E+03 0.  0.
         25    1    3    3    0    0  0.46451835389E+02 -0.82226834094E+01  0.52094459228E+03  0.53782540090E+03  0.12509000000E+03 0.  0.
         25    1    4    4    0    0 -0.46575810559E+02 -0.28762608574E+02  0.15218947606E+03  0.20446451649E+03  0.12509000000E+03 0.  0.
<mgrwt>
<rscale>  2 0.45361013E+03</rscale>
<asrwt>0</asrwt>
<pdfrwt beam="1">  1       21 0.13115666E+00 0.45361013E+03</pdfrwt>
<pdfrwt beam="2">  1       21 0.84819813E-02 0.45361013E+03</pdfrwt>
<totfact> 0.41609725E+04</totfact>
</mgrwt>
</event>
<event>
 7    0  0.4784406E-002  0.4400536E+03  0.7546771E-02  0.1030730E+00
         21   -1    0    0  502  501  0.00000000000E+00  0.00000000000E+00  0.16614964723E+03  0.16614964723E+03  0.00000000000E+00 0. -1.
         21   -1    0    0  501  502 -0.00000000000E+00 -0.00000000000E+00 -0.29137463447E+03  0.29137463447E+03  0.00000000000E+00 0. -1.
      99926    2    1    2    0    0  0.00000000000E+00  0.00000000000E+00 -0.12522498724E+03  0.45752428170E+03  0.44005360005E+03 0.  0.
      99925    2    3    3    0    0 -0.46308044625E+02 -0.84760618909E+02 -0.10043124466E+03  0.29755229888E+03  0.26291089394E+03 0.  0.
         25    1    4    4    0    0 -0.36789652764E+02 -0.15407464233E+02 -0.77277123642E+02  0.15234871330E+03  0.12509000000E+03 0.  0.
         25    1    4    4    0    0 -0.95183918615E+01 -0.69353154676E+02 -0.23154121022E+02  0.14520358559E+03  0.12509000000E+03 0.  0.
         25    1    3    3    0    0  0.46308044625E+02  0.84760618909E+02 -0.24793742578E+02  0.15997198282E+03  0.12509000000E+03 0.  0.
<mgrwt>
<rscale>  2 0.44005360E+03</rscale>
<asrwt>0</asrwt>
<pdfrwt beam="1">  1       21 0.24433772E-01 0.44005360E+03</pdfrwt>
<pdfrwt beam="2">  1       21 0.42849210E-01 0.44005360E+03</pdfrwt>
<totfact> 0.77121335E+04</totfact>
</mgrwt>
</event>
<event>
 7    0  0.4784406E-002  0.4567371E+03  0.7546771E-02  0.1025732E+00
         21   -1    0    0  502  501  0.00000000000E+00  0.00000000000E+00  0.29635523799E+03  0.29635523799E+03  0.00000000000E+00 0. -1.
         21   -1    0    0  501  502 -0.00000000000E+00 -0.00000000000E+00 -0.17597868646E+03  0.17597868646E+03  0.00000000000E+00 0. -1.
      99926    2    1    2    0    0  0.00000000000E+00 -0.14210854715E-13  0.12037655153E+03  0.47233392445E+03  0.45673714763E+03 0.  0.
      99925    2    3    3    0    0  0.37393784821E+02 -0.10020478645E+03  0.11878051532E+03  0.30774549896E+03  0.26298134334E+03 0.  0.
         25    1    4    4    0    0  0.37121592472E+02 -0.89642471249E+02  0.63217337556E+02  0.17046326627E+03  0.12509000000E+03 0.  0.
         25    1    3    3    0    0 -0.37393784821E+02  0.10020478645E+03  0.15960362138E+01  0.16458842548E+03  0.12509000000E+03 0.  0.
         25    1    4    4    0    0  0.27219234898E+00 -0.10562315201E+02  0.55563177762E+02  0.13728223270E+03  0.12509000000E+03 0.  0.
<mgrwt>
<rscale>  2 0.45673715E+03</rscale>
<asrwt>0</asrwt>
<pdfrwt beam="1">  1       21 0.43581652E-01 0.45673715E+03</pdfrwt>
<pdfrwt beam="2">  1       21 0.25879219E-01 0.45673715E+03</pdfrwt>
<totfact> 0.66343491E+04</totfact>
</mgrwt>
</event>
<event>
 7    0  0.4784406E-002  0.4494224E+03  0.7546771E-02  0.1027894E+00
         21   -1    0    0  502  501  0.00000000000E+00  0.00000000000E+00  0.22492618448E+03  0.22492618448E+03  0.00000000000E+00 0.  1.
         21   -1    0    0  501  502 -0.00000000000E+00 -0.00000000000E+00 -0.22449637182E+03  0.22449637182E+03  0.00000000000E+00 0.  1.
      99926    2    1    2    0    0  0.00000000000E+00  0.00000000000E+00  0.42981265550E+00  0.44942255630E+03  0.44942235077E+03 0.  0.
      99925    2    3    3    0    0  0.83093717290E+02 -0.65116725527E+02 -0.20009229588E+02  0.28446796757E+03  0.26339495346E+03 0.  0.
         25    1    4    4    0    0  0.69899300436E+02 -0.11875655575E+02  0.11655896654E+02  0.14425779502E+03  0.12509000000E+03 0.  0.
         25    1    3    3    0    0 -0.83093717290E+02  0.65116725527E+02  0.20439042244E+02  0.16495458873E+03  0.12509000000E+03 0.  0.
         25    1    4    4    0    0  0.13194416854E+02 -0.53241069951E+02 -0.31665126242E+02  0.14021017255E+03  0.12509000000E+03 0.  0.
<mgrwt>
<rscale>  2 0.44942235E+03</rscale>
<asrwt>0</asrwt>
<pdfrwt beam="1">  1       21 0.33077380E-01 0.44942235E+03</pdfrwt>
<pdfrwt beam="2">  1       21 0.33014172E-01 0.44942235E+03</pdfrwt>
<totfact> 0.72112582E+04</totfact>
</mgrwt>
</event>
<event>
 7    0  0.4784406E-002  0.4488937E+03  0.7546771E-02  0.1028052E+00
         21   -1    0    0  502  501  0.00000000000E+00  0.00000000000E+00  0.48908643206E+02  0.48908643206E+02  0.00000000000E+00 0. -1.
         21   -1    0    0  501  502 -0.00000000000E+00 -0.00000000000E+00 -0.10300100163E+04  0.10300100163E+04  0.00000000000E+00 0. -1.
      99926    2    1    2    0    0  0.00000000000E+00  0.00000000000E+00 -0.98110137308E+03  0.10789186595E+04  0.44889371742E+03 0.  0.
      99925    2    3    3    0    0 -0.29432098989E+02 -0.10193531712E+03 -0.65987591075E+03  0.71823824268E+03  0.26300741115E+03 0.  0.
         25    1    4    4    0    0 -0.30706093801E+01 -0.18647198765E+02 -0.23653002277E+03  0.26823703405E+03  0.12509000000E+03 0.  0.
         25    1    4    4    0    0 -0.26361489608E+02 -0.83288118357E+02 -0.42334588798E+03  0.45000120862E+03  0.12509000000E+03 0.  0.
         25    1    3    3    0    0  0.29432098989E+02  0.10193531712E+03 -0.32122546232E+03  0.36068041681E+03  0.12509000000E+03 0.  0.
<mgrwt>
<rscale>  2 0.44889372E+03</rscale>
<asrwt>0</asrwt>
<pdfrwt beam="1">  1       21 0.71924486E-02 0.44889372E+03</pdfrwt>
<pdfrwt beam="2">  1       21 0.15147204E+00 0.44889372E+03</pdfrwt>
<totfact> 0.38012971E+04</totfact>
</mgrwt>
</event>
<event>
 7    0  0.4784406E-002  0.5019873E+03  0.7546771E-02  0.1013262E+00
         21   -1    0    0  502  501  0.00000000000E+00  0.00000000000E+00  0.82978017640E+02  0.82978017640E+02  0.00000000000E+00 0. -1.
         21   -1    0    0  501  502 -0.00000000000E+00 -0.00000000000E+00 -0.75921082000E+03  0.75921082000E+03  0.00000000000E+00 0. -1.
      99926    2    1    2    0    0  0.00000000000E+00 -0.28421709430E-13 -0.67623280236E+03  0.84218883764E+03  0.50198728595E+03 0.  0.
      99925    2    3    3    0    0  0.34087812779E+02  0.14864588897E+03 -0.38761206615E+03  0.49260763569E+03  0.26298591146E+03 0.  0.
         25    1    4    4    0    0 -0.30316386368E+01  0.10931706527E+03 -0.18785507535E+03  0.25079164466E+03  0.12509000000E+03 0.  0.
         25    1    4    4    0    0  0.37119451416E+02  0.39328823701E+02 -0.19975699080E+03  0.24181599104E+03  0.12509000000E+03 0.  0.
         25    1    3    3    0    0 -0.34087812779E+02 -0.14864588897E+03 -0.28862073621E+03  0.34958120195E+03  0.12509000000E+03 0.  0.
<mgrwt>
<rscale>  2 0.50198729E+03</rscale>
<asrwt>0</asrwt>
<pdfrwt beam="1">  1       21 0.12202650E-01 0.50198729E+03</pdfrwt>
<pdfrwt beam="2">  1       21 0.11164865E+00 0.50198729E+03</pdfrwt>
<totfact> 0.32183075E+04</totfact>
</mgrwt>
</event>
<event>
 7    0  0.4784406E-002  0.4578573E+03  0.7546771E-02  0.1025404E+00
         21   -1    0    0  502  501  0.00000000000E+00  0.00000000000E+00  0.29474242116E+03  0.29474242116E+03  0.00000000000E+00 0.  1.
         21   -1    0    0  501  502 -0.00000000000E+00 -0.00000000000E+00 -0.17781062636E+03  0.17781062636E+03  0.00000000000E+00 0.  1.
      99926    2    1    2    0    0  0.00000000000E+00  0.00000000000E+00  0.11693179481E+03  0.47255304752E+03  0.45785733377E+03 0.  0.
      99925    2    3    3    0    0 -0.10388540259E+03 -0.47069429219E+02  0.52766027134E+02  0.29152138764E+03  0.26304516303E+03 0.  0.
         25    1    4    4    0    0 -0.60122536702E+02  0.15996174823E+02  0.19847792459E+02  0.14111002797E+03  0.12509000000E+03 0.  0.
         25    1    4    4    0    0 -0.43762865883E+02 -0.63065604042E+02  0.32918234674E+02  0.15041135967E+03  0.12509000000E+03 0.  0.
         25    1    3    3    0    0  0.10388540259E+03  0.47069429219E+02  0.64165767675E+02  0.18103165988E+03  0.12509000000E+03 0.  0.
<mgrwt>
<rscale>  2 0.45785733E+03</rscale>
<asrwt>0</asrwt>
<pdfrwt beam="1">  1       21 0.43344474E-01 0.45785733E+03</pdfrwt>
<pdfrwt beam="2">  1       21 0.26148621E-01 0.45785733E+03</pdfrwt>
<totfact> 0.65743366E+04</totfact>
</mgrwt>
</event>
<event>
 7    0  0.4784406E-002  0.4543253E+03  0.7546771E-02  0.1026440E+00
         21   -1    0    0  502  501  0.00000000000E+00  0.00000000000E+00  0.82355448516E+02  0.82355448516E+02  0.00000000000E+00 0. -1.
         21   -1    0    0  501  502 -0.00000000000E+00 -0.00000000000E+00 -0.62658728186E+03  0.62658728186E+03  0.00000000000E+00 0. -1.
      99926    2    1    2    0    0 -0.14210854715E-13  0.00000000000E+00 -0.54423183334E+03  0.70894273038E+03  0.45432533115E+03 0.  0.
      99925    2    3    3    0    0 -0.64639559418E+02 -0.32715190304E+02 -0.20802888485E+03  0.34298031838E+03  0.26288956911E+03 0.  0.
         25    1    4    4    0    0 -0.23755466452E+02 -0.50737069680E+02 -0.13010857184E+03  0.18898232984E+03  0.12509000000E+03 0.  0.
         25    1    3    3    0    0  0.64639559418E+02  0.32715190304E+02 -0.33620294850E+03  0.36596241200E+03  0.12509000000E+03 0.  0.
         25    1    4    4    0    0 -0.40884092966E+02  0.18021879376E+02 -0.77920313006E+02  0.15399798853E+03  0.12509000000E+03 0.  0.
<mgrwt>
<rscale>  2 0.45432533E+03</rscale>
<asrwt>0</asrwt>
<pdfrwt beam="1">  1       21 0.12111096E-01 0.45432533E+03</pdfrwt>
<pdfrwt beam="2">  1       21 0.92145186E-01 0.45432533E+03</pdfrwt>
<totfact> 0.52699303E+04</totfact>
</mgrwt>
</event>
<event>
 7    0  0.4784406E-002  0.4559324E+03  0.7546771E-02  0.1025968E+00
         21   -1    0    0  502  501  0.00000000000E+00  0.00000000000E+00  0.10024297761E+03  0.10024297761E+03  0.00000000000E+00 0.  1.
         21   -1    0    0  501  502 -0.00000000000E+00 -0.00000000000E+00 -0.51842625714E+03  0.51842625714E+03  0.00000000000E+00 0.  1.
      99926    2    1    2    0    0  0.14210854715E-13 -0.35527136788E-14 -0.41818327953E+03  0.61866923476E+03  0.45593241468E+03 0.  0.
      99925    2    3    3    0    0  0.11216828378E+03  0.17778503854E+02 -0.24917002281E+03  0.37969059946E+03  0.26302367187E+03 0.  0.
         25    1    4    4    0    0  0.68758649128E+02 -0.29572111916E+02 -0.12176649403E+03  0.18993906602E+03  0.12509000000E+03 0.  0.
         25    1    4    4    0    0  0.43409634648E+02  0.47350615771E+02 -0.12740352879E+03  0.18975153344E+03  0.12509000000E+03 0.  0.
         25    1    3    3    0    0 -0.11216828378E+03 -0.17778503854E+02 -0.16901325671E+03  0.23897863530E+03  0.12509000000E+03 0.  0.
<mgrwt>
<rscale>  2 0.45593241E+03</rscale>
<asrwt>0</asrwt>
<pdfrwt beam="1">  1       21 0.14741614E-01 0.45593241E+03</pdfrwt>
<pdfrwt beam="2">  1       21 0.76239156E-01 0.45593241E+03</pdfrwt>
<totfact> 0.57121835E+04</totfact>
</mgrwt>
</event>
<event>
 7    0  0.4784406E-002  0.4560218E+03  0.7546771E-02  0.1025941E+00
         21   -1    0    0  502  501  0.00000000000E+00  0.00000000000E+00  0.11215704123E+04  0.11215704123E+04  0.00000000000E+00 0.  1.
         21   -1    0    0  501  502 -0.00000000000E+00 -0.00000000000E+00 -0.46353725284E+02  0.46353725284E+02  0.00000000000E+00 0.  1.
      99926    2    1    2    0    0  0.00000000000E+00  0.71054273576E-14  0.10752166870E+04  0.11679241376E+04  0.45602178360E+03 0.  0.
      99925    2    3    3    0    0 -0.99397452059E+02  0.53688310670E+02  0.63530066554E+03  0.69682340289E+03  0.26304682283E+03 0.  0.
         25    1    4    4    0    0 -0.40327495474E+02 -0.20182682442E+01  0.36748489652E+03  0.39028584085E+03  0.12509000000E+03 0.  0.
         25    1    4    4    0    0 -0.59069956586E+02  0.55706578915E+02  0.26781576903E+03  0.30653756204E+03  0.12509000000E+03 0.  0.
         25    1    3    3    0    0  0.99397452059E+02 -0.53688310670E+02  0.43991602148E+03  0.47110073470E+03  0.12509000000E+03 0.  0.
<mgrwt>
<rscale>  2 0.45602178E+03</rscale>
<asrwt>0</asrwt>
<pdfrwt beam="1">  1       21 0.16493681E+00 0.45602178E+03</pdfrwt>
<pdfrwt beam="2">  1       21 0.68167250E-02 0.45602178E+03</pdfrwt>
<totfact> 0.32926581E+04</totfact>
</mgrwt>
</event>
<event>
 7    0  0.4784406E-002  0.4532718E+03  0.7546771E-02  0.1026751E+00
         21   -1    0    0  502  501  0.00000000000E+00  0.00000000000E+00  0.78490833772E+02  0.78490833772E+02  0.00000000000E+00 0. -1.
         21   -1    0    0  501  502 -0.00000000000E+00 -0.00000000000E+00 -0.65439279106E+03  0.65439279106E+03  0.00000000000E+00 0. -1.
      99926    2    1    2    0    0  0.00000000000E+00 -0.17763568394E-14 -0.57590195728E+03  0.73288362483E+03  0.45327182037E+03 0.  0.
      99925    2    3    3    0    0 -0.10146315619E+03 -0.12271875831E+02 -0.29091466631E+03  0.40530060464E+03  0.26304346798E+03 0.  0.
         25    1    4    4    0    0 -0.38687173277E+02  0.33117725017E+02 -0.13780314389E+03  0.19295257358E+03  0.12509000000E+03 0.  0.
         25    1    4    4    0    0 -0.62775982909E+02 -0.45389600849E+02 -0.15311152243E+03  0.21234803106E+03  0.12509000000E+03 0.  0.
         25    1    3    3    0    0  0.10146315619E+03  0.12271875831E+02 -0.28498729097E+03  0.32758302019E+03  0.12509000000E+03 0.  0.
<mgrwt>
<rscale>  2 0.45327182E+03</rscale>
<asrwt>0</asrwt>
<pdfrwt beam="1">  1       21 0.11542770E-01 0.45327182E+03</pdfrwt>
<pdfrwt beam="2">  1       21 0.96234231E-01 0.45327182E+03</pdfrwt>
<totfact> 0.51854762E+04</totfact>
</mgrwt>
</event>
<event>
 7    0  0.4784406E-002  0.4532424E+03  0.7546771E-02  0.1026760E+00
         21   -1    0    0  502  501  0.00000000000E+00  0.00000000000E+00  0.62399659569E+02  0.62399659569E+02  0.00000000000E+00 0. -1.
         21   -1    0    0  501  502 -0.00000000000E+00 -0.00000000000E+00 -0.82303620196E+03  0.82303620196E+03  0.00000000000E+00 0. -1.
      99926    2    1    2    0    0 -0.71054273576E-14  0.00000000000E+00 -0.76063654239E+03  0.88543586153E+03  0.45324244645E+03 0.  0.
      99925    2    3    3    0    0  0.37116183890E+02 -0.74880986927E+02 -0.62411822689E+03  0.68228682294E+03  0.26269178579E+03 0.  0.
         25    1    3    3    0    0 -0.37116183890E+02  0.74880986927E+02 -0.13651831550E+03  0.20314903858E+03  0.12509000000E+03 0.  0.
         25    1    4    4    0    0  0.75653081413E+01 -0.72130250656E+01 -0.22635959368E+03  0.25883476460E+03  0.12509000000E+03 0.  0.
         25    1    4    4    0    0  0.29550875749E+02 -0.67667961861E+02 -0.39775863321E+03  0.42345205834E+03  0.12509000000E+03 0.  0.
<mgrwt>
<rscale>  2 0.45324245E+03</rscale>
<asrwt>0</asrwt>
<pdfrwt beam="1">  1       21 0.91764213E-02 0.45324245E+03</pdfrwt>
<pdfrwt beam="2">  1       21 0.12103472E+00 0.45324245E+03</pdfrwt>
<totfact> 0.44478436E+04</totfact>
</mgrwt>
</event>
<event>
 7    0  0.4784406E-002  0.4485140E+03  0.7546771E-02  0.1028166E+00
         21   -1    0    0  502  501  0.00000000000E+00  0.00000000000E+00  0.51126436638E+03  0.51126436638E+03  0.00000000000E+00 0.  1.
         21   -1    0    0  501  502 -0.00000000000E+00 -0.00000000000E+00 -0.98366324581E+02  0.98366324581E+02  0.00000000000E+00 0.  1.
      99926    2    1    2    0    0  0.00000000000E+00  0.00000000000E+00  0.41289804180E+03  0.60963069096E+03  0.44851397575E+03 0.  0.
      99925    2    3    3    0    0 -0.42419736791E+02  0.64059798176E+02  0.16033902245E+03  0.31750630279E+03  0.26305618863E+03 0.  0.
         25    1    4    4    0    0  0.83091685450E+01  0.36228762840E+01  0.62056950092E+02  0.13993119977E+03  0.12509000000E+03 0.  0.
         25    1    4    4    0    0 -0.50728905336E+02  0.60436921892E+02  0.98282072363E+02  0.17757510302E+03  0.12509000000E+03 0.  0.
         25    1    3    3    0    0  0.42419736791E+02 -0.64059798176E+02  0.25255901935E+03  0.29212438817E+03  0.12509000000E+03 0.  0.
<mgrwt>
<rscale>  2 0.44851398E+03</rscale>
<asrwt>0</asrwt>
<pdfrwt beam="1">  1       21 0.75185935E-01 0.44851398E+03</pdfrwt>
<pdfrwt beam="2">  1       21 0.14465636E-01 0.44851398E+03</pdfrwt>
<totfact> 0.61163112E+04</totfact>
</mgrwt>
</event>
<event>
 7    0  0.4784406E-002  0.4520814E+03  0.7546771E-02  0.1027103E+00
         21   -1    0    0  502  501  0.00000000000E+00  0.00000000000E+00  0.18037610228E+03  0.18037610228E+03  0.00000000000E+00 0.  1.
         21   -1    0    0  501  502 -0.00000000000E+00 -0.00000000000E+00 -0.28326594553E+03  0.28326594553E+03  0.00000000000E+00 0.  1.
      99926    2    1    2    0    0  0.00000000000E+00 -0.71054273576E-14 -0.10288984324E+03  0.46364204781E+03  0.45208144029E+03 0.  0.
      99925    2    3    3    0    0  0.14891831576E+02 -0.52565062571E+02  0.33548798119E+02  0.27064499237E+03  0.26294169998E+03 0.  0.
         25    1    4    4    0    0 -0.19623182314E+02 -0.64873931737E+01 -0.73457448545E+01  0.12699851819E+03  0.12509000000E+03 0.  0.
         25    1    3    3    0    0 -0.14891831576E+02  0.52565062571E+02 -0.13643864136E+03  0.19299705544E+03  0.12509000000E+03 0.  0.
         25    1    4    4    0    0  0.34515013890E+02 -0.46077669398E+02  0.40894542974E+02  0.14364647419E+03  0.12509000000E+03 0.  0.
<mgrwt>
<rscale>  2 0.45208144E+03</rscale>
<asrwt>0</asrwt>
<pdfrwt beam="1">  1       21 0.26525898E-01 0.45208144E+03</pdfrwt>
<pdfrwt beam="2">  1       21 0.41656756E-01 0.45208144E+03</pdfrwt>
<totfact> 0.69507093E+04</totfact>
</mgrwt>
</event>
<event>
 7    0  0.4784406E-002  0.4299137E+03  0.7546771E-02  0.1033887E+00
         21   -1    0    0  502  501  0.00000000000E+00  0.00000000000E+00  0.61103494189E+03  0.61103494189E+03  0.00000000000E+00 0.  1.
         21   -1    0    0  501  502 -0.00000000000E+00 -0.00000000000E+00 -0.75619965114E+02  0.75619965114E+02  0.00000000000E+00 0.  1.
      99926    2    1    2    0    0  0.35527136788E-14 -0.14210854715E-13  0.53541497678E+03  0.68665490701E+03  0.42991367036E+03 0.  0.
      99925    2    3    3    0    0  0.31738861529E+02 -0.81558388161E+02  0.34307757206E+03  0.44109368987E+03  0.26306329424E+03 0.  0.
         25    1    4    4    0    0  0.10118951349E+02 -0.71314083526E+02  0.13806774253E+03  0.19974559147E+03  0.12509000000E+03 0.  0.
         25    1    3    3    0    0 -0.31738861529E+02  0.81558388161E+02  0.19233740472E+03  0.24556121714E+03  0.12509000000E+03 0.  0.
         25    1    4    4    0    0  0.21619910180E+02 -0.10244304635E+02  0.20500982953E+03  0.24134809839E+03  0.12509000000E+03 0.  0.
<mgrwt>
<rscale>  2 0.42991367E+03</rscale>
<asrwt>0</asrwt>
<pdfrwt beam="1">  1       21 0.89858077E-01 0.42991367E+03</pdfrwt>
<pdfrwt beam="2">  1       21 0.11120583E-01 0.42991367E+03</pdfrwt>
<totfact> 0.65674096E+04</totfact>
</mgrwt>
</event>
<event>
 7    0  0.4784406E-002  0.4551813E+03  0.7546771E-02  0.1026188E+00
         21   -1    0    0  502  501  0.00000000000E+00  0.00000000000E+00  0.18089898834E+03  0.18089898834E+03  0.00000000000E+00 0.  1.
         21   -1    0    0  501  502 -0.00000000000E+00 -0.00000000000E+00 -0.28633383039E+03  0.28633383039E+03  0.00000000000E+00 0.  1.
      99926    2    1    2    0    0  0.00000000000E+00  0.00000000000E+00 -0.10543484205E+03  0.46723281873E+03  0.45518128365E+03 0.  0.
      99925    2    3    3    0    0  0.85909899757E+02  0.67063732723E+02 -0.98597780879E+02  0.30118370362E+03  0.26289169978E+03 0.  0.
         25    1    3    3    0    0 -0.85909899757E+02 -0.67063732723E+02 -0.68370611674E+01  0.16604911511E+03  0.12509000000E+03 0.  0.
         25    1    4    4    0    0  0.80873449262E+01  0.16404225093E+02 -0.24928482661E+02  0.12885434062E+03  0.12509000000E+03 0.  0.
         25    1    4    4    0    0  0.77822554831E+02  0.50659507630E+02 -0.73669298218E+02  0.17232936300E+03  0.12509000000E+03 0.  0.
<mgrwt>
<rscale>  2 0.45518128E+03</rscale>
<asrwt>0</asrwt>
<pdfrwt beam="1">  1       21 0.26602793E-01 0.45518128E+03</pdfrwt>
<pdfrwt beam="2">  1       21 0.42107916E-01 0.45518128E+03</pdfrwt>
<totfact> 0.67545140E+04</totfact>
</mgrwt>
</event>
<event>
 7    0  0.4784406E-002  0.4597932E+03  0.7546771E-02  0.1024841E+00
         21   -1    0    0  502  501  0.00000000000E+00  0.00000000000E+00  0.63914321143E+03  0.63914321143E+03  0.00000000000E+00 0.  1.
         21   -1    0    0  501  502 -0.00000000000E+00 -0.00000000000E+00 -0.82692662343E+02  0.82692662343E+02  0.00000000000E+00 0.  1.
      99926    2    1    2    0    0  0.00000000000E+00  0.00000000000E+00  0.55645054908E+03  0.72183587377E+03  0.45979323080E+03 0.  0.
      99925    2    3    3    0    0 -0.10394524736E+03  0.36147995666E+02  0.41384144473E+03  0.50252751373E+03  0.26297883687E+03 0.  0.
         25    1    3    3    0    0  0.10394524736E+03 -0.36147995666E+02  0.14260910435E+03  0.21930836004E+03  0.12509000000E+03 0.  0.
         25    1    4    4    0    0 -0.27398762103E+02  0.48413098098E+02  0.17836186947E+03  0.22484435686E+03  0.12509000000E+03 0.  0.
         25    1    4    4    0    0 -0.76546485257E+02 -0.12265102431E+02  0.23547957526E+03  0.27768315687E+03  0.12509000000E+03 0.  0.
<mgrwt>
<rscale>  2 0.45979323E+03</rscale>
<asrwt>0</asrwt>
<pdfrwt beam="1">  1       21 0.93991646E-01 0.45979323E+03</pdfrwt>
<pdfrwt beam="2">  1       21 0.12160686E-01 0.45979323E+03</pdfrwt>
<totfact> 0.49828169E+04</totfact>
</mgrwt>
</event>
<event>
 7    0  0.4784406E-002  0.4584100E+03  0.7546771E-02  0.1025243E+00
         21   -1    0    0  502  501  0.00000000000E+00  0.00000000000E+00  0.11887519644E+03  0.11887519644E+03  0.00000000000E+00 0. -1.
         21   -1    0    0  501  502 -0.00000000000E+00 -0.00000000000E+00 -0.44193355923E+03  0.44193355923E+03  0.00000000000E+00 0. -1.
      99926    2    1    2    0    0  0.00000000000E+00  0.00000000000E+00 -0.32305836278E+03  0.56080875567E+03  0.45841002898E+03 0.  0.
      99925    2    3    3    0    0 -0.26080353476E+02 -0.99557006446E+02 -0.26904673960E+03  0.39005587602E+03  0.26299364243E+03 0.  0.
         25    1    3    3    0    0  0.26080353476E+02  0.99557006446E+02 -0.54011623177E+02  0.17075287965E+03  0.12509000000E+03 0.  0.
         25    1    4    4    0    0 -0.14715661383E+02 -0.74367323324E+01 -0.13171172351E+03  0.18239337128E+03  0.12509000000E+03 0.  0.
         25    1    4    4    0    0 -0.11364692093E+02 -0.92120274114E+02 -0.13733501610E+03  0.20766250474E+03  0.12509000000E+03 0.  0.
<mgrwt>
<rscale>  2 0.45841003E+03</rscale>
<asrwt>0</asrwt>
<pdfrwt beam="1">  1       21 0.17481647E-01 0.45841003E+03</pdfrwt>
<pdfrwt beam="2">  1       21 0.64990229E-01 0.45841003E+03</pdfrwt>
<totfact> 0.59535706E+04</totfact>
</mgrwt>
</event>
<event>
 7    0  0.4784406E-002  0.4543612E+03  0.7546771E-02  0.1026429E+00
         21   -1    0    0  502  501  0.00000000000E+00  0.00000000000E+00  0.38170042869E+02  0.38170042869E+02  0.00000000000E+00 0.  1.
         21   -1    0    0  501  502 -0.00000000000E+00 -0.00000000000E+00 -0.13521345358E+04  0.13521345358E+04  0.00000000000E+00 0.  1.
      99926    2    1    2    0    0 -0.22204460493E-15  0.00000000000E+00 -0.13139644929E+04  0.13903045787E+04  0.45436123601E+03 0.  0.
      99925    2    3    3    0    0  0.15285623225E+01  0.11208477217E+03 -0.80044933744E+03  0.85001701109E+03  0.26314339188E+03 0.  0.
         25    1    3    3    0    0 -0.15285623225E+01 -0.11208477217E+03 -0.51351515550E+03  0.54028756758E+03  0.12509000000E+03 0.  0.
         25    1    4    4    0    0  0.16552183375E+01  0.25074092839E+02 -0.45296670541E+03  0.47059302395E+03  0.12509000000E+03 0.  0.
         25    1    4    4    0    0 -0.12665601506E+00  0.87010679333E+02 -0.34748263203E+03  0.37942398715E+03  0.12509000000E+03 0.  0.
<mgrwt>
<rscale>  2 0.45436124E+03</rscale>
<asrwt>0</asrwt>
<pdfrwt beam="1">  1       21 0.56132422E-02 0.45436124E+03</pdfrwt>
<pdfrwt beam="2">  1       21 0.19884329E+00 0.45436124E+03</pdfrwt>
<totfact> 0.26723934E+04</totfact>
</mgrwt>
</event>
<event>
 7    0  0.4784406E-002  0.4534942E+03  0.7546771E-02  0.1026685E+00
         21   -1    0    0  502  501  0.00000000000E+00  0.00000000000E+00  0.13107835252E+03  0.13107835252E+03  0.00000000000E+00 0. -1.
         21   -1    0    0  501  502 -0.00000000000E+00 -0.00000000000E+00 -0.39224064768E+03  0.39224064768E+03  0.00000000000E+00 0. -1.
      99926    2    1    2    0    0  0.00000000000E+00  0.00000000000E+00 -0.26116229516E+03  0.52331900019E+03  0.45349424643E+03 0.  0.
      99925    2    3    3    0    0 -0.10822181780E+03 -0.83047652156E+01 -0.19514533889E+03  0.34503081330E+03  0.26302780815E+03 0.  0.
         25    1    4    4    0    0 -0.61312616063E+02 -0.43423375939E+02 -0.11034019675E+03  0.18294068324E+03  0.12509000000E+03 0.  0.
         25    1    4    4    0    0 -0.46909201733E+02  0.35118610723E+02 -0.84805142147E+02  0.16209013005E+03  0.12509000000E+03 0.  0.
         25    1    3    3    0    0  0.10822181780E+03  0.83047652156E+01 -0.66016956264E+02  0.17828818690E+03  0.12509000000E+03 0.  0.
<mgrwt>
<rscale>  2 0.45349425E+03</rscale>
<asrwt>0</asrwt>
<pdfrwt beam="1">  1       21 0.19276229E-01 0.45349425E+03</pdfrwt>
<pdfrwt beam="2">  1       21 0.57682447E-01 0.45349425E+03</pdfrwt>
<totfact> 0.64426651E+04</totfact>
</mgrwt>
</event>
<event>
 7    0  0.4784406E-002  0.4558926E+03  0.7546771E-02  0.1025979E+00
         21   -1    0    0  502  501  0.00000000000E+00  0.00000000000E+00  0.40157676908E+03  0.40157676908E+03  0.00000000000E+00 0. -1.
         21   -1    0    0  501  502 -0.00000000000E+00 -0.00000000000E+00 -0.12938876817E+03  0.12938876817E+03  0.00000000000E+00 0. -1.
      99926    2    1    2    0    0  0.17763568394E-14  0.00000000000E+00  0.27218800091E+03  0.53096553724E+03  0.45589263418E+03 0.  0.
      99925    2    3    3    0    0 -0.12834528878E+02 -0.25328651257E+02  0.42678118034E+02  0.26804243034E+03  0.26309514818E+03 0.  0.
         25    1    4    4    0    0 -0.23346728497E+02  0.22660991530E+02  0.32445254917E+02  0.13326212116E+03  0.12509000000E+03 0.  0.
         25    1    3    3    0    0  0.12834528878E+02  0.25328651257E+02  0.22950988288E+03  0.26292310691E+03  0.12509000000E+03 0.  0.
         25    1    4    4    0    0  0.10512199619E+02 -0.47989642786E+02  0.10232863117E+02  0.13478030918E+03  0.12509000000E+03 0.  0.
<mgrwt>
<rscale>  2 0.45589263E+03</rscale>
<asrwt>0</asrwt>
<pdfrwt beam="1">  1       21 0.59055407E-01 0.45589263E+03</pdfrwt>
<pdfrwt beam="2">  1       21 0.19027760E-01 0.45589263E+03</pdfrwt>
<totfact> 0.62696463E+04</totfact>
</mgrwt>
</event>
<event>
 7    0  0.4784406E-002  0.4604382E+03  0.7546771E-02  0.1024654E+00
         21   -1    0    0  502  501  0.00000000000E+00  0.00000000000E+00  0.38550207986E+03  0.38550207986E+03  0.00000000000E+00 0. -1.
         21   -1    0    0  501  502 -0.00000000000E+00 -0.00000000000E+00 -0.13748521523E+03  0.13748521523E+03  0.00000000000E+00 0. -1.
      99926    2    1    2    0    0  0.00000000000E+00  0.00000000000E+00  0.24801686463E+03  0.52298729508E+03  0.46043821049E+03 0.  0.
      99925    2    3    3    0    0 -0.53581501892E+02 -0.35062428789E+02  0.26813363811E+03  0.38102763908E+03  0.26303243640E+03 0.  0.
         25    1    4    4    0    0 -0.57787677724E+02  0.88365333765E+01  0.13594215443E+03  0.19376603797E+03  0.12509000000E+03 0.  0.
         25    1    4    4    0    0  0.42061758316E+01 -0.43898962166E+02  0.13219148368E+03  0.18726160111E+03  0.12509000000E+03 0.  0.
         25    1    3    3    0    0  0.53581501892E+02  0.35062428789E+02 -0.20116773481E+02  0.14195965600E+03  0.12509000000E+03 0.  0.
<mgrwt>
<rscale>  2 0.46043821E+03</rscale>
<asrwt>0</asrwt>
<pdfrwt beam="1">  1       21 0.56691482E-01 0.46043821E+03</pdfrwt>
<pdfrwt beam="2">  1       21 0.20218414E-01 0.46043821E+03</pdfrwt>
<totfact> 0.61009082E+04</totfact>
</mgrwt>
</event>
<event>
 7    0  0.4784406E-002  0.4557348E+03  0.7546771E-02  0.1026026E+00
         21   -1    0    0  502  501  0.00000000000E+00  0.00000000000E+00  0.12582084131E+03  0.12582084131E+03  0.00000000000E+00 0.  1.
         21   -1    0    0  501  502 -0.00000000000E+00 -0.00000000000E+00 -0.41267847364E+03  0.41267847364E+03  0.00000000000E+00 0.  1.
      99926    2    1    2    0    0  0.00000000000E+00  0.00000000000E+00 -0.28685763233E+03  0.53849931495E+03  0.45573480333E+03 0.  0.
      99925    2    3    3    0    0 -0.66638003699E+02  0.82407351711E+01 -0.28904260896E+03  0.39651052850E+03  0.26299512575E+03 0.  0.
         25    1    4    4    0    0 -0.16867949039E+02 -0.51000181320E+01 -0.19273633647E+03  0.23044596196E+03  0.12509000000E+03 0.  0.
         25    1    3    3    0    0  0.66638003699E+02 -0.82407351711E+01  0.21849766220E+01  0.14198878644E+03  0.12509000000E+03 0.  0.
         25    1    4    4    0    0 -0.49770054659E+02  0.13340753303E+02 -0.96306272486E+02  0.16606456654E+03  0.12509000000E+03 0.  0.
<mgrwt>
<rscale>  2 0.45573480E+03</rscale>
<asrwt>0</asrwt>
<pdfrwt beam="1">  1       21 0.18503065E-01 0.45573480E+03</pdfrwt>
<pdfrwt beam="2">  1       21 0.60688011E-01 0.45573480E+03</pdfrwt>
<totfact> 0.62270027E+04</totfact>
</mgrwt>
</event>
<event>
 7    0  0.4784406E-002  0.4500811E+03  0.7546771E-02  0.1027698E+00
         21   -1    0    0  502  501  0.00000000000E+00  0.00000000000E+00  0.48336508319E+02  0.48336508319E+02  0.00000000000E+00 0. -1.
         21   -1    0    0  501  502 -0.00000000000E+00 -0.00000000000E+00 -0.10477223379E+04  0.10477223379E+04  0.00000000000E+00 0. -1.
      99926    2    1    2    0    0 -0.14210854715E-13  0.00000000000E+00 -0.99938582959E+03  0.10960588462E+04  0.45008105716E+03 0.  0.
      99925    2    3    3    0    0 -0.93398794355E+02 -0.23396304379E+02 -0.75345130455E+03  0.80382260523E+03  0.26300416443E+03 0.  0.
         25    1    3    3    0    0  0.93398794355E+02  0.23396304379E+02 -0.24593452505E+03  0.29223624100E+03  0.12509000000E+03 0.  0.
         25    1    4    4    0    0 -0.20535468522E+02 -0.65543446140E+01 -0.44367311089E+03  0.46147372875E+03  0.12509000000E+03 0.  0.
         25    1    4    4    0    0 -0.72863325832E+02 -0.16841959765E+02 -0.30977819365E+03  0.34234887647E+03  0.12509000000E+03 0.  0.
<mgrwt>
<rscale>  2 0.45008106E+03</rscale>
<asrwt>0</asrwt>
<pdfrwt beam="1">  1       21 0.71083105E-02 0.45008106E+03</pdfrwt>
<pdfrwt beam="2">  1       21 0.15407680E+00 0.45008106E+03</pdfrwt>
<totfact> 0.37032013E+04</totfact>
</mgrwt>
</event>
<event>
 7    0  0.4784406E-002  0.4559362E+03  0.7546771E-02  0.1025966E+00
         21   -1    0    0  502  501  0.00000000000E+00  0.00000000000E+00  0.25459213386E+02  0.25459213386E+02  0.00000000000E+00 0.  1.
         21   -1    0    0  501  502 -0.00000000000E+00 -0.00000000000E+00 -0.20412823833E+04  0.20412823833E+04  0.00000000000E+00 0.  1.
      99926    2    1    2    0    0 -0.13322676296E-14  0.14210854715E-13 -0.20158231699E+04  0.20667415967E+04  0.45593615245E+03 0.  0.
      99925    2    3    3    0    0 -0.34653141213E+01  0.88871795989E+02 -0.94342093069E+03  0.98341141834E+03  0.26295391370E+03 0.  0.
         25    1    4    4    0    0  0.22852386783E+02  0.68929922848E+02 -0.41881207546E+03  0.44308535125E+03  0.12509000000E+03 0.  0.
         25    1    3    3    0    0  0.34653141213E+01 -0.88871795989E+02 -0.10724022392E+04  0.10833301783E+04  0.12509000000E+03 0.  0.
         25    1    4    4    0    0 -0.26317700904E+02  0.19941873140E+02 -0.52460885524E+03  0.54032606709E+03  0.12509000000E+03 0.  0.
<mgrwt>
<rscale>  2 0.45593615E+03</rscale>
<asrwt>0</asrwt>
<pdfrwt beam="1">  1       21 0.37440014E-02 0.45593615E+03</pdfrwt>
<pdfrwt beam="2">  1       21 0.30018863E+00 0.45593615E+03</pdfrwt>
<totfact> 0.12559087E+04</totfact>
</mgrwt>
</event>
<event>
 7    0  0.4784406E-002  0.4530997E+03  0.7546771E-02  0.1026802E+00
         21   -1    0    0  502  501  0.00000000000E+00  0.00000000000E+00  0.94170502612E+02  0.94170502612E+02  0.00000000000E+00 0.  1.
         21   -1    0    0  501  502 -0.00000000000E+00 -0.00000000000E+00 -0.54502027522E+03  0.54502027522E+03  0.00000000000E+00 0.  1.
      99926    2    1    2    0    0  0.00000000000E+00  0.00000000000E+00 -0.45084977261E+03  0.63919077783E+03  0.45309969433E+03 0.  0.
      99925    2    3    3    0    0  0.31537419473E+02 -0.32272976661E+02 -0.42780399300E+03  0.50422867238E+03  0.26304779751E+03 0.  0.
         25    1    3    3    0    0 -0.31537419473E+02  0.32272976661E+02 -0.23045779608E+02  0.13496210545E+03  0.12509000000E+03 0.  0.
         25    1    4    4    0    0 -0.27819367346E+01  0.99512565534E+01 -0.15698261435E+03  0.20099207941E+03  0.12509000000E+03 0.  0.
         25    1    4    4    0    0  0.34319356208E+02 -0.42224233215E+02 -0.27082137865E+03  0.30323659297E+03  0.12509000000E+03 0.  0.
<mgrwt>
<rscale>  2 0.45309969E+03</rscale>
<asrwt>0</asrwt>
<pdfrwt beam="1">  1       21 0.13848603E-01 0.45309969E+03</pdfrwt>
<pdfrwt beam="2">  1       21 0.80150041E-01 0.45309969E+03</pdfrwt>
<totfact> 0.57181248E+04</totfact>
</mgrwt>
</event>
<event>
 7    0  0.4784406E-002  0.4610225E+03  0.7546771E-02  0.1024485E+00
         21   -1    0    0  502  501  0.00000000000E+00  0.00000000000E+00  0.25437997427E+03  0.25437997427E+03  0.00000000000E+00 0. -1.
         21   -1    0    0  501  502 -0.00000000000E+00 -0.00000000000E+00 -0.20888219630E+03  0.20888219630E+03  0.00000000000E+00 0. -1.
      99926    2    1    2    0    0  0.14210854715E-13  0.00000000000E+00  0.45497777977E+02  0.46326217057E+03  0.46102254921E+03 0.  0.
      99925    2    3    3    0    0  0.77769248474E+02 -0.74858776772E+02 -0.21317499135E+02  0.28503848577E+03  0.26294602133E+03 0.  0.
         25    1    4    4    0    0  0.79046417746E+02 -0.38783176450E+02 -0.23854750110E+02  0.15481934032E+03  0.12509000000E+03 0.  0.
         25    1    4    4    0    0 -0.12771692724E+01 -0.36075600321E+02  0.25372509748E+01  0.13021914545E+03  0.12509000000E+03 0.  0.
         25    1    3    3    0    0 -0.77769248474E+02  0.74858776772E+02  0.66815277113E+02  0.17822368480E+03  0.12509000000E+03 0.  0.
<mgrwt>
<rscale>  2 0.46102255E+03</rscale>
<asrwt>0</asrwt>
<pdfrwt beam="1">  1       21 0.37408820E-01 0.46102255E+03</pdfrwt>
<pdfrwt beam="2">  1       21 0.30717970E-01 0.46102255E+03</pdfrwt>
<totfact> 0.64775726E+04</totfact>
</mgrwt>
</event>
<event>
 7    0  0.4784406E-002  0.4564107E+03  0.7546771E-02  0.1025827E+00
         21   -1    0    0  502  501  0.00000000000E+00  0.00000000000E+00  0.29292678883E+03  0.29292678883E+03  0.00000000000E+00 0. -1.
         21   -1    0    0  501  502 -0.00000000000E+00 -0.00000000000E+00 -0.17778398657E+03  0.17778398657E+03  0.00000000000E+00 0. -1.
      99926    2    1    2    0    0  0.00000000000E+00 -0.35527136788E-14  0.11514280227E+03  0.47071077540E+03  0.45641074611E+03 0.  0.
      99925    2    3    3    0    0  0.10804991590E+03  0.12292852309E+02  0.35646280680E+02  0.28688176902E+03  0.26306765959E+03 0.  0.
         25    1    3    3    0    0 -0.10804991590E+03 -0.12292852309E+02  0.79496521586E+02  0.18382900638E+03  0.12509000000E+03 0.  0.
         25    1    4    4    0    0  0.29259112205E+02 -0.23152896549E+02  0.33814898022E+02  0.13484475405E+03  0.12509000000E+03 0.  0.
         25    1    4    4    0    0  0.78790803693E+02  0.35445748858E+02  0.18313826576E+01  0.15203701497E+03  0.12509000000E+03 0.  0.
<mgrwt>
<rscale>  2 0.45641075E+03</rscale>
<asrwt>0</asrwt>
<pdfrwt beam="1">  1       21 0.43077469E-01 0.45641075E+03</pdfrwt>
<pdfrwt beam="2">  1       21 0.26144704E-01 0.45641075E+03</pdfrwt>
<totfact> 0.66634049E+04</totfact>
</mgrwt>
</event>
<event>
 7    0  0.4784406E-002  0.4540818E+03  0.7546771E-02  0.1026512E+00
         21   -1    0    0  502  501  0.00000000000E+00  0.00000000000E+00  0.67628405482E+03  0.67628405482E+03  0.00000000000E+00 0. -1.
         21   -1    0    0  501  502 -0.00000000000E+00 -0.00000000000E+00 -0.76221778474E+02  0.76221778474E+02  0.00000000000E+00 0. -1.
      99926    2    1    2    0    0 -0.71054273576E-14  0.00000000000E+00  0.60006227635E+03  0.75250583330E+03  0.45408181383E+03 0.  0.
      99925    2    3    3    0    0  0.58225247831E+02 -0.32382584723E+02  0.22822101751E+03  0.35457086228E+03  0.26305294575E+03 0.  0.
         25    1    4    4    0    0  0.70678130712E+02 -0.19276084895E+02  0.12079522909E+03  0.18869541881E+03  0.12509000000E+03 0.  0.
         25    1    3    3    0    0 -0.58225247831E+02  0.32382584723E+02  0.37184125884E+03  0.39793497101E+03  0.12509000000E+03 0.  0.
         25    1    4    4    0    0 -0.12452882881E+02 -0.13106499828E+02  0.10742578841E+03  0.16587544347E+03  0.12509000000E+03 0.  0.
<mgrwt>
<rscale>  2 0.45408181E+03</rscale>
<asrwt>0</asrwt>
<pdfrwt beam="1">  1       21 0.99453534E-01 0.45408181E+03</pdfrwt>
<pdfrwt beam="2">  1       21 0.11209085E-01 0.45408181E+03</pdfrwt>
<totfact> 0.50506695E+04</totfact>
</mgrwt>
</event>
<event>
 7    0  0.4784406E-002  0.4531421E+03  0.7546771E-02  0.1026789E+00
         21   -1    0    0  502  501  0.00000000000E+00  0.00000000000E+00  0.76344062374E+03  0.76344062374E+03  0.00000000000E+00 0.  1.
         21   -1    0    0  501  502 -0.00000000000E+00 -0.00000000000E+00 -0.67240902712E+02  0.67240902712E+02  0.00000000000E+00 0.  1.
      99926    2    1    2    0    0  0.00000000000E+00  0.00000000000E+00  0.69619972103E+03  0.83068152646E+03  0.45314208239E+03 0.  0.
      99925    2    3    3    0    0 -0.33578400051E+02  0.99538930744E+02  0.37206121436E+03  0.46770936872E+03  0.26322423649E+03 0.  0.
         25    1    4    4    0    0 -0.44993795161E+02  0.54001950702E+02  0.14329878059E+03  0.20278732925E+03  0.12509000000E+03 0.  0.
         25    1    3    3    0    0  0.33578400051E+02 -0.99538930744E+02  0.32413850668E+03  0.36297215774E+03  0.12509000000E+03 0.  0.
         25    1    4    4    0    0  0.11415395110E+02  0.45536980041E+02  0.22876243376E+03  0.26492203947E+03  0.12509000000E+03 0.  0.
<mgrwt>
<rscale>  2 0.45314208E+03</rscale>
<asrwt>0</asrwt>
<pdfrwt beam="1">  1       21 0.11227067E+00 0.45314208E+03</pdfrwt>
<pdfrwt beam="2">  1       21 0.98883685E-02 0.45314208E+03</pdfrwt>
<totfact> 0.46997673E+04</totfact>
</mgrwt>
</event>
<event>
 7    0  0.4784406E-002  0.4588093E+03  0.7546771E-02  0.1025127E+00
         21   -1    0    0  502  501  0.00000000000E+00  0.00000000000E+00  0.17396446992E+04  0.17396446992E+04  0.00000000000E+00 0. -1.
         21   -1    0    0  501  502 -0.00000000000E+00 -0.00000000000E+00 -0.30251289845E+02  0.30251289845E+02  0.00000000000E+00 0. -1.
      99926    2    1    2    0    0  0.00000000000E+00 -0.71054273576E-14  0.17093934094E+04  0.17698959891E+04  0.45880931125E+03 0.  0.
      99925    2    3    3    0    0  0.50496459962E+02 -0.51971063276E+02  0.14250206391E+04  0.14508877376E+04  0.26294585293E+03 0.  0.
         25    1    3    3    0    0 -0.50496459962E+02  0.51971063276E+02  0.28437277031E+03  0.31900825143E+03  0.12509000000E+03 0.  0.
         25    1    4    4    0    0  0.14039845879E+01 -0.58699138274E+02  0.71411867457E+03  0.72736548548E+03  0.12509000000E+03 0.  0.
         25    1    4    4    0    0  0.49092475374E+02  0.67280749978E+01  0.71090196450E+03  0.72352225216E+03  0.12509000000E+03 0.  0.
<mgrwt>
<rscale>  2 0.45880931E+03</rscale>
<asrwt>0</asrwt>
<pdfrwt beam="1">  1       21 0.25583004E+00 0.45880931E+03</pdfrwt>
<pdfrwt beam="2">  1       21 0.44487203E-02 0.45880931E+03</pdfrwt>
<totfact> 0.17327022E+04</totfact>
</mgrwt>
</event>
<event>
 7    0  0.4784406E-002  0.4555766E+03  0.7546771E-02  0.1026072E+00
         21   -1    0    0  502  501  0.00000000000E+00  0.00000000000E+00  0.35456966240E+03  0.35456966240E+03  0.00000000000E+00 0. -1.
         21   -1    0    0  501  502 -0.00000000000E+00 -0.00000000000E+00 -0.14633942413E+03  0.14633942413E+03  0.00000000000E+00 0. -1.
      99926    2    1    2    0    0  0.00000000000E+00  0.00000000000E+00  0.20823023827E+03  0.50090908653E+03  0.45557664651E+03 0.  0.
      99925    2    3    3    0    0 -0.51579035264E+02  0.96223659901E+02  0.16613587866E+03  0.32962326454E+03  0.26292770251E+03 0.  0.
         25    1    4    4    0    0 -0.24119568206E+02  0.63776899521E+02  0.42474671660E+02  0.14866355409E+03  0.12509000000E+03 0.  0.
         25    1    3    3    0    0  0.51579035264E+02 -0.96223659901E+02  0.42094359611E+02  0.17128582199E+03  0.12509000000E+03 0.  0.
         25    1    4    4    0    0 -0.27459467058E+02  0.32446760380E+02  0.12366120700E+03  0.18095971045E+03  0.12509000000E+03 0.  0.
<mgrwt>
<rscale>  2 0.45557665E+03</rscale>
<asrwt>0</asrwt>
<pdfrwt beam="1">  1       21 0.52142597E-01 0.45557665E+03</pdfrwt>
<pdfrwt beam="2">  1       21 0.21520504E-01 0.45557665E+03</pdfrwt>
<totfact> 0.64909218E+04</totfact>
</mgrwt>
</event>
<event>
 7    0  0.4784406E-002  0.4642276E+03  0.7546771E-02  0.1023562E+00
         21   -1    0    0  502  501  0.00000000000E+00  0.00000000000E+00  0.53294751080E+03  0.53294751080E+03  0.00000000000E+00 0. -1.
         21   -1    0    0  501  502 -0.00000000000E+00 -0.00000000000E+00 -0.10109215040E+03  0.10109215040E+03  0.00000000000E+00 0. -1.
      99926    2    1    2    0    0  0.71054273576E-14  0.00000000000E+00  0.43185536040E+03  0.63403966120E+03  0.46422757314E+03 0.  0.
      99925    2    3    3    0    0 -0.37155637581E+02 -0.97953041508E+01  0.11200143300E+03  0.28845243290E+03  0.26302850732E+03 0.  0.
         25    1    4    4    0    0 -0.43747044154E+02 -0.27631735721E+02  0.33159251739E+02  0.13937130539E+03  0.12509000000E+03 0.  0.
         25    1    4    4    0    0  0.65914065726E+01  0.17836431570E+02  0.78842181261E+02  0.14908112750E+03  0.12509000000E+03 0.  0.
         25    1    3    3    0    0  0.37155637581E+02  0.97953041508E+01  0.31985392740E+03  0.34558722830E+03  0.12509000000E+03 0.  0.
<mgrwt>
<rscale>  2 0.46422757E+03</rscale>
<asrwt>0</asrwt>
<pdfrwt beam="1">  1       21 0.78374632E-01 0.46422757E+03</pdfrwt>
<pdfrwt beam="2">  1       21 0.14866493E-01 0.46422757E+03</pdfrwt>
<totfact> 0.52686673E+04</totfact>
</mgrwt>
</event>
<event>
 7    0  0.4784406E-002  0.4574018E+03  0.7546771E-02  0.1025537E+00
         21   -1    0    0  502  501  0.00000000000E+00  0.00000000000E+00  0.87185775907E+02  0.87185775907E+02  0.00000000000E+00 0.  1.
         21   -1    0    0  501  502 -0.00000000000E+00 -0.00000000000E+00 -0.59991545153E+03  0.59991545153E+03  0.00000000000E+00 0.  1.
      99926    2    1    2    0    0 -0.14210854715E-13 -0.14210854715E-13 -0.51272967562E+03  0.68710122743E+03  0.45740176703E+03 0.  0.
      99925    2    3    3    0    0 -0.85756725183E+02 -0.76451899926E+02 -0.31160392915E+03  0.42385574711E+03  0.26335826697E+03 0.  0.
         25    1    4    4    0    0 -0.59602524265E+02 -0.80343898953E+01 -0.11919203877E+03  0.18295153054E+03  0.12509000000E+03 0.  0.
         25    1    3    3    0    0  0.85756725183E+02  0.76451899926E+02 -0.20112574647E+03  0.26324548032E+03  0.12509000000E+03 0.  0.
         25    1    4    4    0    0 -0.26154200918E+02 -0.68417510031E+02 -0.19241189038E+03  0.24090421658E+03  0.12509000000E+03 0.  0.
<mgrwt>
<rscale>  2 0.45740177E+03</rscale>
<asrwt>0</asrwt>
<pdfrwt beam="1">  1       21 0.12821438E-01 0.45740177E+03</pdfrwt>
<pdfrwt beam="2">  1       21 0.88222859E-01 0.45740177E+03</pdfrwt>
<totfact> 0.52607263E+04</totfact>
</mgrwt>
</event>
<event>
 7    0  0.4784406E-002  0.4502440E+03  0.7546771E-02  0.1027649E+00
         21   -1    0    0  502  501  0.00000000000E+00  0.00000000000E+00  0.79380549392E+03  0.79380549392E+03  0.00000000000E+00 0. -1.
         21   -1    0    0  501  502 -0.00000000000E+00 -0.00000000000E+00 -0.63844244356E+02  0.63844244356E+02  0.00000000000E+00 0. -1.
      99926    2    1    2    0    0  0.00000000000E+00  0.00000000000E+00  0.72996124957E+03  0.85764973828E+03  0.45024398686E+03 0.  0.
      99925    2    3    3    0    0  0.65540612905E+02  0.45326944600E+02  0.60205783206E+03  0.66180057143E+03  0.26297577711E+03 0.  0.
         25    1    3    3    0    0 -0.65540612905E+02 -0.45326944600E+02  0.12790341750E+03  0.19584916685E+03  0.12509000000E+03 0.  0.
         25    1    4    4    0    0  0.16835352839E+02  0.59814629954E+02  0.31475959640E+03  0.34435785266E+03  0.12509000000E+03 0.  0.
         25    1    4    4    0    0  0.48705260066E+02 -0.14487685354E+02  0.28729823566E+03  0.31744271877E+03  0.12509000000E+03 0.  0.
<mgrwt>
<rscale>  2 0.45024399E+03</rscale>
<asrwt>0</asrwt>
<pdfrwt beam="1">  1       21 0.11673610E+00 0.45024399E+03</pdfrwt>
<pdfrwt beam="2">  1       21 0.93888599E-02 0.45024399E+03</pdfrwt>
<totfact> 0.46821447E+04</totfact>
</mgrwt>
</event>
<event>
 7    0  0.4784406E-002  0.4596207E+03  0.7546771E-02  0.1024891E+00
         21   -1    0    0  502  501  0.00000000000E+00  0.00000000000E+00  0.40840071790E+03  0.40840071790E+03  0.00000000000E+00 0.  1.
         21   -1    0    0  501  502 -0.00000000000E+00 -0.00000000000E+00 -0.12931614520E+03  0.12931614520E+03  0.00000000000E+00 0.  1.
      99926    2    1    2    0    0  0.00000000000E+00  0.00000000000E+00  0.27908457270E+03  0.53771686311E+03  0.45962074165E+03 0.  0.
      99925    2    3    3    0    0  0.68911158842E+02  0.82144337576E+02  0.23111843824E+03  0.36612228812E+03  0.26293222959E+03 0.  0.
         25    1    3    3    0    0 -0.68911158842E+02 -0.82144337576E+02  0.47966134453E+02  0.17159457498E+03  0.12509000000E+03 0.  0.
         25    1    4    4    0    0  0.22493327116E+02  0.49986765528E+02  0.16376909877E+03  0.21324270751E+03  0.12509000000E+03 0.  0.
         25    1    4    4    0    0  0.46417831726E+02  0.32157572049E+02  0.67349339475E+02  0.15287958062E+03  0.12509000000E+03 0.  0.
<mgrwt>
<rscale>  2 0.45962074E+03</rscale>
<asrwt>0</asrwt>
<pdfrwt beam="1">  1       21 0.60058929E-01 0.45962074E+03</pdfrwt>
<pdfrwt beam="2">  1       21 0.19017080E-01 0.45962074E+03</pdfrwt>
<totfact> 0.60443181E+04</totfact>
</mgrwt>
</event>
<event>
 7    0  0.4784406E-002  0.4538117E+03  0.7546771E-02  0.1026591E+00
         21   -1    0    0  502  501  0.00000000000E+00  0.00000000000E+00  0.16863183073E+02  0.16863183073E+02  0.00000000000E+00 0.  1.
         21   -1    0    0  501  502 -0.00000000000E+00 -0.00000000000E+00 -0.30531765732E+04  0.30531765732E+04  0.00000000000E+00 0.  1.
      99926    2    1    2    0    0  0.00000000000E+00  0.00000000000E+00 -0.30363133902E+04  0.30700397563E+04  0.45381174735E+03 0.  0.
      99925    2    3    3    0    0  0.10827563441E+03  0.71082825366E+01 -0.17247235986E+04  0.17480377025E+04  0.26304025796E+03 0.  0.
         25    1    4    4    0    0  0.81851059553E+02  0.30756622318E+02 -0.10309803986E+04  0.10422157436E+04  0.12509000000E+03 0.  0.
         25    1    4    4    0    0  0.26424574857E+02 -0.23648339781E+02 -0.69374319996E+03  0.70582195894E+03  0.12509000000E+03 0.  0.
         25    1    3    3    0    0 -0.10827563441E+03 -0.71082825366E+01 -0.13115897916E+04  0.13220020538E+04  0.12509000000E+03 0.  0.
<mgrwt>
<rscale>  2 0.45381175E+03</rscale>
<asrwt>0</asrwt>
<pdfrwt beam="1">  1       21 0.24798804E-02 0.45381175E+03</pdfrwt>
<pdfrwt beam="2">  1       21 0.44899646E+00 0.45381175E+03</pdfrwt>
<totfact> 0.29028808E+03</totfact>
</mgrwt>
</event>
<event>
 7    0  0.4784406E-002  0.4440963E+03  0.7546771E-02  0.1029497E+00
         21   -1    0    0  502  501  0.00000000000E+00  0.00000000000E+00  0.56931398455E+02  0.56931398455E+02  0.00000000000E+00 0.  1.
         21   -1    0    0  501  502 -0.00000000000E+00 -0.00000000000E+00 -0.86604880938E+03  0.86604880938E+03  0.00000000000E+00 0.  1.
      99926    2    1    2    0    0 -0.35527136788E-14  0.00000000000E+00 -0.80911741093E+03  0.92298020784E+03  0.44409625015E+03 0.  0.
      99925    2    3    3    0    0 -0.20483741054E+02  0.50211038602E+02 -0.69505114120E+03  0.74521813642E+03  0.26327409656E+03 0.  0.
         25    1    4    4    0    0  0.22202395811E+02  0.32608447814E+02 -0.41112171568E+03  0.43153775090E+03  0.12509000000E+03 0.  0.
         25    1    3    3    0    0  0.20483741054E+02 -0.50211038602E+02 -0.11406626972E+03  0.17776207142E+03  0.12509000000E+03 0.  0.
         25    1    4    4    0    0 -0.42686136865E+02  0.17602590788E+02 -0.28392942552E+03  0.31368038552E+03  0.12509000000E+03 0.  0.
<mgrwt>
<rscale>  2 0.44409625E+03</rscale>
<asrwt>0</asrwt>
<pdfrwt beam="1">  1       21 0.83722657E-02 0.44409625E+03</pdfrwt>
<pdfrwt beam="2">  1       21 0.12736010E+00 0.44409625E+03</pdfrwt>
<totfact> 0.46059462E+04</totfact>
</mgrwt>
</event>
<event>
 7    0  0.4784406E-002  0.4335326E+03  0.7546771E-02  0.1032750E+00
         21   -1    0    0  502  501  0.00000000000E+00  0.00000000000E+00  0.13240962667E+03  0.13240962667E+03  0.00000000000E+00 0. -1.
         21   -1    0    0  501  502 -0.00000000000E+00 -0.00000000000E+00 -0.35486572071E+03  0.35486572071E+03  0.00000000000E+00 0. -1.
      99926    2    1    2    0    0 -0.35527136788E-14 -0.35527136788E-14 -0.22245609404E+03  0.48727534737E+03  0.43353264050E+03 0.  0.
      99925    2    3    3    0    0  0.21083576983E+02  0.28972435757E+02 -0.23753270784E+03  0.35628400554E+03  0.26312085827E+03 0.  0.
         25    1    4    4    0    0  0.95669485721E+01  0.18363028866E+02 -0.64662233245E+02  0.14232863325E+03  0.12509000000E+03 0.  0.
         25    1    4    4    0    0  0.11516628411E+02  0.10609406890E+02 -0.17287047459E+03  0.21395537229E+03  0.12509000000E+03 0.  0.
         25    1    3    3    0    0 -0.21083576983E+02 -0.28972435757E+02  0.15076613799E+02  0.13099134183E+03  0.12509000000E+03 0.  0.
<mgrwt>
<rscale>  2 0.43353264E+03</rscale>
<asrwt>0</asrwt>
<pdfrwt beam="1">  1       21 0.19472004E-01 0.43353264E+03</pdfrwt>
<pdfrwt beam="2">  1       21 0.52186135E-01 0.43353264E+03</pdfrwt>
<totfact> 0.78764458E+04</totfact>
</mgrwt>
</event>
<event>
 7    0  0.4784406E-002  0.4529276E+03  0.7546771E-02  0.1026853E+00
         21   -1    0    0  502  501  0.00000000000E+00  0.00000000000E+00  0.52703080127E+03  0.52703080127E+03  0.00000000000E+00 0.  1.
         21   -1    0    0  501  502 -0.00000000000E+00 -0.00000000000E+00 -0.97310904718E+02  0.97310904718E+02  0.00000000000E+00 0.  1.
      99926    2    1    2    0    0  0.14210854715E-13 -0.36637359813E-14  0.42971989656E+03  0.62434170599E+03  0.45292756192E+03 0.  0.
      99925    2    3    3    0    0 -0.86630597228E+02  0.78789676386E+00  0.36712732496E+03  0.45980958367E+03  0.26293896505E+03 0.  0.
         25    1    4    4    0    0 -0.21032862751E+02 -0.33327091701E+02  0.18628897875E+03  0.22782486269E+03  0.12509000000E+03 0.  0.
         25    1    3    3    0    0  0.86630597228E+02 -0.78789676386E+00  0.62592571597E+02  0.16453212232E+03  0.12509000000E+03 0.  0.
         25    1    4    4    0    0 -0.65597734477E+02  0.34114988465E+02  0.18083834621E+03  0.23198472098E+03  0.12509000000E+03 0.  0.
<mgrwt>
<rscale>  2 0.45292756E+03</rscale>
<asrwt>0</asrwt>
<pdfrwt beam="1">  1       21 0.77504528E-01 0.45292756E+03</pdfrwt>
<pdfrwt beam="2">  1       21 0.14310427E-01 0.45292756E+03</pdfrwt>
<totfact> 0.58150104E+04</totfact>
</mgrwt>
</event>
<event>
 7    0  0.4784406E-002  0.4470220E+03  0.7546771E-02  0.1028614E+00
         21   -1    0    0  502  501  0.00000000000E+00  0.00000000000E+00  0.85606076626E+03  0.85606076626E+03  0.00000000000E+00 0.  1.
         21   -1    0    0  501  502 -0.00000000000E+00 -0.00000000000E+00 -0.58357044492E+02  0.58357044492E+02  0.00000000000E+00 0.  1.
      99926    2    1    2    0    0  0.00000000000E+00  0.00000000000E+00  0.79770372176E+03  0.91441781075E+03  0.44702204073E+03 0.  0.
      99925    2    3    3    0    0 -0.97245793454E+02  0.40773034776E+02  0.51533984983E+03  0.58808048683E+03  0.26295306322E+03 0.  0.
         25    1    3    3    0    0  0.97245793454E+02 -0.40773034776E+02  0.28236387193E+03  0.32633732392E+03  0.12509000000E+03 0.  0.
         25    1    4    4    0    0 -0.23079989729E+02 -0.34057851341E+01  0.28499442936E+03  0.31211154763E+03  0.12509000000E+03 0.  0.
         25    1    4    4    0    0 -0.74165803725E+02  0.44178819910E+02  0.23034542047E+03  0.27596893920E+03  0.12509000000E+03 0.  0.
<mgrwt>
<rscale>  2 0.44702204E+03</rscale>
<asrwt>0</asrwt>
<pdfrwt beam="1">  1       21 0.12589128E+00 0.44702204E+03</pdfrwt>
<pdfrwt beam="2">  1       21 0.85819188E-02 0.44702204E+03</pdfrwt>
<totfact> 0.45383181E+04</totfact>
</mgrwt>
</event>
<event>
 7    0  0.4784406E-002  0.4542511E+03  0.7546771E-02  0.1026462E+00
         21   -1    0    0  502  501  0.00000000000E+00  0.00000000000E+00  0.39227876554E+03  0.39227876554E+03  0.00000000000E+00 0.  1.
         21   -1    0    0  501  502 -0.00000000000E+00 -0.00000000000E+00 -0.13150343952E+03  0.13150343952E+03  0.00000000000E+00 0.  1.
      99926    2    1    2    0    0  0.00000000000E+00  0.00000000000E+00  0.26077532602E+03  0.52378220505E+03  0.45425106238E+03 0.  0.
      99925    2    3    3    0    0 -0.71532880249E+02  0.67934931327E+02  0.22674886935E+03  0.36087911821E+03  0.26284326196E+03 0.  0.
         25    1    4    4    0    0 -0.48500945945E+02  0.37787091936E+02  0.16593762107E+03  0.21670950201E+03  0.12509000000E+03 0.  0.
         25    1    3    3    0    0  0.71532880249E+02 -0.67934931327E+02  0.34026456666E+02  0.16290308685E+03  0.12509000000E+03 0.  0.
         25    1    4    4    0    0 -0.23031934304E+02  0.30147839391E+02  0.60811248282E+02  0.14416961620E+03  0.12509000000E+03 0.  0.
<mgrwt>
<rscale>  2 0.45425106E+03</rscale>
<asrwt>0</asrwt>
<pdfrwt beam="1">  1       21 0.57688053E-01 0.45425106E+03</pdfrwt>
<pdfrwt beam="2">  1       21 0.19338741E-01 0.45425106E+03</pdfrwt>
<totfact> 0.64008559E+04</totfact>
</mgrwt>
</event>
<event>
 7    0  0.4784406E-002  0.4556448E+03  0.7546771E-02  0.1026052E+00
         21   -1    0    0  502  501  0.00000000000E+00  0.00000000000E+00  0.16108113811E+04  0.16108113811E+04  0.00000000000E+00 0. -1.
         21   -1    0    0  501  502 -0.00000000000E+00 -0.00000000000E+00 -0.32221674774E+02  0.32221674774E+02  0.00000000000E+00 0. -1.
      99926    2    1    2    0    0 -0.71054273576E-14  0.00000000000E+00  0.15785897064E+04  0.16430330559E+04  0.45564477587E+03 0.  0.
      99925    2    3    3    0    0  0.59261903943E+02 -0.94989187301E+02  0.10659747308E+04  0.11036291810E+04  0.26298350435E+03 0.  0.
         25    1    4    4    0    0 -0.41388592874E+01 -0.66771894666E+02  0.57494646274E+03  0.59218794245E+03  0.12509000000E+03 0.  0.
         25    1    3    3    0    0 -0.59261903943E+02  0.94989187301E+02  0.51261497558E+03  0.53940387489E+03  0.12509000000E+03 0.  0.
         25    1    4    4    0    0  0.63400763230E+02 -0.28217292635E+02  0.49102826806E+03  0.51144123857E+03  0.12509000000E+03 0.  0.
<mgrwt>
<rscale>  2 0.45564478E+03</rscale>
<asrwt>0</asrwt>
<pdfrwt beam="1">  1       21 0.23688397E+00 0.45564478E+03</pdfrwt>
<pdfrwt beam="2">  1       21 0.47384827E-02 0.45564478E+03</pdfrwt>
<totfact> 0.20372395E+04</totfact>
</mgrwt>
</event>
<event>
 7    0  0.4784406E-002  0.4533785E+03  0.7546771E-02  0.1026719E+00
         21   -1    0    0  502  501  0.00000000000E+00  0.00000000000E+00  0.73474568176E+03  0.73474568176E+03  0.00000000000E+00 0. -1.
         21   -1    0    0  501  502 -0.00000000000E+00 -0.00000000000E+00 -0.69939867848E+02  0.69939867848E+02  0.00000000000E+00 0. -1.
      99926    2    1    2    0    0  0.00000000000E+00  0.00000000000E+00  0.66480581392E+03  0.80468554961E+03  0.45337849920E+03 0.  0.
      99925    2    3    3    0    0 -0.22713001164E+02 -0.89859167363E+02  0.52908721244E+03  0.59814839250E+03  0.26316852149E+03 0.  0.
         25    1    3    3    0    0  0.22713001164E+02  0.89859167363E+02  0.13571860148E+03  0.20653715711E+03  0.12509000000E+03 0.  0.
         25    1    4    4    0    0 -0.51558449023E+02 -0.37923392649E+02  0.26996633787E+03  0.30434485220E+03  0.12509000000E+03 0.  0.
         25    1    4    4    0    0  0.28845447858E+02 -0.51935774714E+02  0.25912087457E+03  0.29380354030E+03  0.12509000000E+03 0.  0.
<mgrwt>
<rscale>  2 0.45337850E+03</rscale>
<asrwt>0</asrwt>
<pdfrwt beam="1">  1       21 0.10805083E+00 0.45337850E+03</pdfrwt>
<pdfrwt beam="2">  1       21 0.10285275E-01 0.45337850E+03</pdfrwt>
<totfact> 0.48148773E+04</totfact>
</mgrwt>
</event>
<event>
 7    0  0.4784406E-002  0.4501461E+03  0.7546771E-02  0.1027678E+00
         21   -1    0    0  502  501  0.00000000000E+00  0.00000000000E+00  0.43776868897E+03  0.43776868897E+03  0.00000000000E+00 0. -1.
         21   -1    0    0  501  502 -0.00000000000E+00 -0.00000000000E+00 -0.11571838595E+03  0.11571838595E+03  0.00000000000E+00 0. -1.
      99926    2    1    2    0    0  0.00000000000E+00 -0.71054273576E-14  0.32205030302E+03  0.55348707491E+03  0.45014613674E+03 0.  0.
      99925    2    3    3    0    0 -0.57221183215E+02 -0.58755532010E+02  0.29090818419E+03  0.40070024297E+03  0.26307154300E+03 0.  0.
         25    1    4    4    0    0 -0.23158754772E+02  0.29939892305E+01  0.17378924879E+03  0.21539615361E+03  0.12509000000E+03 0.  0.
         25    1    3    3    0    0  0.57221183215E+02  0.58755532010E+02  0.31142118832E+02  0.15278683194E+03  0.12509000000E+03 0.  0.
         25    1    4    4    0    0 -0.34062428443E+02 -0.61749521241E+02  0.11711893540E+03  0.18530408936E+03  0.12509000000E+03 0.  0.
<mgrwt>
<rscale>  2 0.45014614E+03</rscale>
<asrwt>0</asrwt>
<pdfrwt beam="1">  1       21 0.64377748E-01 0.45014614E+03</pdfrwt>
<pdfrwt beam="2">  1       21 0.17017410E-01 0.45014614E+03</pdfrwt>
<totfact> 0.64061386E+04</totfact>
</mgrwt>
</event>
<event>
 7    0  0.4784406E-002  0.4645263E+03  0.7546771E-02  0.1023477E+00
         21   -1    0    0  502  501  0.00000000000E+00  0.00000000000E+00  0.10743844307E+04  0.10743844307E+04  0.00000000000E+00 0.  1.
         21   -1    0    0  501  502 -0.00000000000E+00 -0.00000000000E+00 -0.50211238210E+02  0.50211238210E+02  0.00000000000E+00 0.  1.
      99926    2    1    2    0    0 -0.14210854715E-13  0.00000000000E+00  0.10241731925E+04  0.11245956689E+04  0.46452630745E+03 0.  0.
      99925    2    3    3    0    0 -0.10517118587E+03  0.35475624628E+02  0.76103482285E+03  0.81281239809E+03  0.26300284149E+03 0.  0.
         25    1    3    3    0    0  0.10517118587E+03 -0.35475624628E+02  0.26313836963E+03  0.31178327080E+03  0.12509000000E+03 0.  0.
         25    1    4    4    0    0 -0.30177682734E+02 -0.17907518031E+02  0.36313691258E+03  0.38567771146E+03  0.12509000000E+03 0.  0.
         25    1    4    4    0    0 -0.74993503138E+02  0.53383142660E+02  0.39789791026E+03  0.42713468663E+03  0.12509000000E+03 0.  0.
<mgrwt>
<rscale>  2 0.46452631E+03</rscale>
<asrwt>0</asrwt>
<pdfrwt beam="1">  1       21 0.15799769E+00 0.46452631E+03</pdfrwt>
<pdfrwt beam="2">  1       21 0.73840063E-02 0.46452631E+03</pdfrwt>
<totfact> 0.32184516E+04</totfact>
</mgrwt>
</event>
<event>
 7    0  0.4784406E-002  0.4534180E+03  0.7546771E-02  0.1026708E+00
         21   -1    0    0  502  501  0.00000000000E+00  0.00000000000E+00  0.10912243225E+03  0.10912243225E+03  0.00000000000E+00 0. -1.
         21   -1    0    0  501  502 -0.00000000000E+00 -0.00000000000E+00 -0.47100270058E+03  0.47100270058E+03  0.00000000000E+00 0. -1.
      99926    2    1    2    0    0  0.00000000000E+00  0.00000000000E+00 -0.36188026833E+03  0.58012513283E+03  0.45341795414E+03 0.  0.
      99925    2    3    3    0    0 -0.84066391073E+02  0.54105649809E+02 -0.16443414938E+03  0.32590660983E+03  0.26302461748E+03 0.  0.
         25    1    4    4    0    0 -0.58784188589E+01  0.42770678455E+02 -0.92057256042E+02  0.16120152987E+03  0.12509000000E+03 0.  0.
         25    1    4    4    0    0 -0.78187972214E+02  0.11334971353E+02 -0.72376893333E+02  0.16470507996E+03  0.12509000000E+03 0.  0.
         25    1    3    3    0    0  0.84066391073E+02 -0.54105649809E+02 -0.19744611895E+03  0.25421852300E+03  0.12509000000E+03 0.  0.
<mgrwt>
<rscale>  2 0.45341795E+03</rscale>
<asrwt>0</asrwt>
<pdfrwt beam="1">  1       21 0.16047417E-01 0.45341795E+03</pdfrwt>
<pdfrwt beam="2">  1       21 0.69265103E-01 0.45341795E+03</pdfrwt>
<totfact> 0.60673903E+04</totfact>
</mgrwt>
</event>
<event>
 7    0  0.4784406E-002  0.4461630E+03  0.7546771E-02  0.1028872E+00
         21   -1    0    0  502  501  0.00000000000E+00  0.00000000000E+00  0.42549332770E+03  0.42549332770E+03  0.00000000000E+00 0. -1.
         21   -1    0    0  501  502 -0.00000000000E+00 -0.00000000000E+00 -0.11695921224E+03  0.11695921224E+03  0.00000000000E+00 0. -1.
      99926    2    1    2    0    0  0.00000000000E+00  0.14210854715E-13  0.30853411546E+03  0.54245253994E+03  0.44616303935E+03 0.  0.
      99925    2    3    3    0    0 -0.81824605986E+01  0.80950863321E+02  0.11555640524E+03  0.29851012937E+03  0.26293539056E+03 0.  0.
         25    1    4    4    0    0 -0.10165833184E+02  0.82360529036E+02  0.64226128275E+02  0.16327616042E+03  0.12509000000E+03 0.  0.
         25    1    3    3    0    0  0.81824605986E+01 -0.80950863321E+02  0.19297771022E+03  0.24394241057E+03  0.12509000000E+03 0.  0.
         25    1    4    4    0    0  0.19833725853E+01 -0.14096657152E+01  0.51330276969E+02  0.13523396895E+03  0.12509000000E+03 0.  0.
<mgrwt>
<rscale>  2 0.44616304E+03</rscale>
<asrwt>0</asrwt>
<pdfrwt beam="1">  1       21 0.62572548E-01 0.44616304E+03</pdfrwt>
<pdfrwt beam="2">  1       21 0.17199884E-01 0.44616304E+03</pdfrwt>
<totfact> 0.66926842E+04</totfact>
</mgrwt>
</event>
<event>
 7    0  0.4784406E-002  0.4479612E+03  0.7546771E-02  0.1028332E+00
         21   -1    0    0  502  501  0.00000000000E+00  0.00000000000E+00  0.26297020737E+03  0.26297020737E+03  0.00000000000E+00 0.  1.
         21   -1    0    0  501  502 -0.00000000000E+00 -0.00000000000E+00 -0.19077181924E+03  0.19077181924E+03  0.00000000000E+00 0.  1.
      99926    2    1    2    0    0 -0.71054273576E-14  0.00000000000E+00  0.72198388125E+02  0.45374202661E+03  0.44796118075E+03 0.  0.
      99925    2    3    3    0    0  0.38584411684E+02 -0.69034901703E+02 -0.27789655845E+02  0.27513717920E+03  0.26205653575E+03 0.  0.
         25    1    4    4    0    0  0.10630177279E+01 -0.35550255891E+02  0.21054939441E+02  0.13174129677E+03  0.12509000000E+03 0.  0.
         25    1    3    3    0    0 -0.38584411684E+02  0.69034901703E+02  0.99988043970E+02  0.17860484740E+03  0.12509000000E+03 0.  0.
         25    1    4    4    0    0  0.37521393956E+02 -0.33484645812E+02 -0.48844595286E+02  0.14339588243E+03  0.12509000000E+03 0.  0.
<mgrwt>
<rscale>  2 0.44796118E+03</rscale>
<asrwt>0</asrwt>
<pdfrwt beam="1">  1       21 0.38672090E-01 0.44796118E+03</pdfrwt>
<pdfrwt beam="2">  1       21 0.28054679E-01 0.44796118E+03</pdfrwt>
<totfact> 0.72631059E+04</totfact>
</mgrwt>
</event>
<event>
 7    0  0.4784406E-002  0.4363452E+03  0.7546771E-02  0.1031874E+00
         21   -1    0    0  502  501  0.00000000000E+00  0.00000000000E+00  0.69775746978E+03  0.69775746978E+03  0.00000000000E+00 0.  1.
         21   -1    0    0  501  502 -0.00000000000E+00 -0.00000000000E+00 -0.68217513691E+02  0.68217513691E+02  0.00000000000E+00 0.  1.
      99926    2    1    2    0    0 -0.71054273576E-14 -0.71054273576E-14  0.62953995609E+03  0.76597498347E+03  0.43634518330E+03 0.  0.
      99925    2    3    3    0    0 -0.50215295204E+02 -0.45602802891E+02  0.51940939066E+03  0.58603765815E+03  0.26277905197E+03 0.  0.
         25    1    4    4    0    0 -0.48350752468E+02 -0.48639898793E+02  0.32367842308E+03  0.35372145070E+03  0.12509000000E+03 0.  0.
         25    1    3    3    0    0  0.50215295204E+02  0.45602802891E+02  0.11013056543E+03  0.17993732533E+03  0.12509000000E+03 0.  0.
         25    1    4    4    0    0 -0.18645427354E+01  0.30370959024E+01  0.19573096759E+03  0.23231620745E+03  0.12509000000E+03 0.  0.
<mgrwt>
<rscale>  2 0.43634518E+03</rscale>
<asrwt>0</asrwt>
<pdfrwt beam="1">  1       21 0.10261139E+00 0.43634518E+03</pdfrwt>
<pdfrwt beam="2">  1       21 0.10031988E-01 0.43634518E+03</pdfrwt>
<totfact> 0.57412289E+04</totfact>
</mgrwt>
</event>
<event>
 7    0  0.4784406E-002  0.4661022E+03  0.7546771E-02  0.1023026E+00
         21   -1    0    0  502  501  0.00000000000E+00  0.00000000000E+00  0.34870010493E+03  0.34870010493E+03  0.00000000000E+00 0.  1.
         21   -1    0    0  501  502 -0.00000000000E+00 -0.00000000000E+00 -0.15575798223E+03  0.15575798223E+03  0.00000000000E+00 0.  1.
      99926    2    1    2    0    0 -0.14210854715E-13  0.00000000000E+00  0.19294212269E+03  0.50445808716E+03  0.46610224092E+03 0.  0.
      99925    2    3    3    0    0  0.97903952021E+02  0.31602031359E+02  0.19371557771E+03  0.34249519468E+03  0.26304630985E+03 0.  0.
         25    1    3    3    0    0 -0.97903952021E+02 -0.31602031359E+02 -0.77345501770E+00  0.16196289248E+03  0.12509000000E+03 0.  0.
         25    1    4    4    0    0  0.23360870758E+02  0.27881283916E+02  0.55191491264E+02  0.14148040530E+03  0.12509000000E+03 0.  0.
         25    1    4    4    0    0  0.74543081262E+02  0.37207474425E+01  0.13852408645E+03  0.20101478938E+03  0.12509000000E+03 0.  0.
<mgrwt>
<rscale>  2 0.46610224E+03</rscale>
<asrwt>0</asrwt>
<pdfrwt beam="1">  1       21 0.51279427E-01 0.46610224E+03</pdfrwt>
<pdfrwt beam="2">  1       21 0.22905586E-01 0.46610224E+03</pdfrwt>
<totfact> 0.59536002E+04</totfact>
</mgrwt>
</event>
<event>
 7    0  0.4784406E-002  0.4571736E+03  0.7546771E-02  0.1025604E+00
         21   -1    0    0  502  501  0.00000000000E+00  0.00000000000E+00  0.47900573889E+03  0.47900573889E+03  0.00000000000E+00 0. -1.
         21   -1    0    0  501  502 -0.00000000000E+00 -0.00000000000E+00 -0.10908412206E+03  0.10908412206E+03  0.00000000000E+00 0. -1.
      99926    2    1    2    0    0  0.00000000000E+00  0.00000000000E+00  0.36992161683E+03  0.58808986095E+03  0.45717357967E+03 0.  0.
      99925    2    3    3    0    0  0.75138480187E+02  0.87210477623E+02  0.22617860468E+03  0.36546681575E+03  0.26297865614E+03 0.  0.
         25    1    4    4    0    0  0.69860211751E+02  0.30765339414E+02  0.89516796568E+02  0.17171988896E+03  0.12509000000E+03 0.  0.
         25    1    4    4    0    0  0.52782684361E+01  0.56445138208E+02  0.13666180811E+03  0.19374692679E+03  0.12509000000E+03 0.  0.
         25    1    3    3    0    0 -0.75138480187E+02 -0.87210477623E+02  0.14374301215E+03  0.22262304520E+03  0.12509000000E+03 0.  0.
<mgrwt>
<rscale>  2 0.45717358E+03</rscale>
<asrwt>0</asrwt>
<pdfrwt beam="1">  1       21 0.70442019E-01 0.45717358E+03</pdfrwt>
<pdfrwt beam="2">  1       21 0.16041783E-01 0.45717358E+03</pdfrwt>
<totfact> 0.58407494E+04</totfact>
</mgrwt>
</event>
<event>
 7    0  0.4784406E-002  0.4537432E+03  0.7546771E-02  0.1026612E+00
         21   -1    0    0  502  501  0.00000000000E+00  0.00000000000E+00  0.64310246980E+03  0.64310246980E+03  0.00000000000E+00 0. -1.
         21   -1    0    0  501  502 -0.00000000000E+00 -0.00000000000E+00 -0.80035033900E+02  0.80035033900E+02  0.00000000000E+00 0. -1.
      99926    2    1    2    0    0  0.14210854715E-13  0.00000000000E+00  0.56306743590E+03  0.72313750370E+03  0.45374322241E+03 0.  0.
      99925    2    3    3    0    0 -0.65614422251E+02  0.37216113953E+02  0.22355056761E+03  0.35353027501E+03  0.26328408141E+03 0.  0.
         25    1    4    4    0    0  0.27546173446E+01 -0.48463552984E+01  0.10493247755E+03  0.16336893224E+03  0.12509000000E+03 0.  0.
         25    1    4    4    0    0 -0.68369039595E+02  0.42062469251E+02  0.11861809006E+03  0.19016134277E+03  0.12509000000E+03 0.  0.
         25    1    3    3    0    0  0.65614422251E+02 -0.37216113953E+02  0.33951686830E+03  0.36960722870E+03  0.12509000000E+03 0.  0.
<mgrwt>
<rscale>  2 0.45374322E+03</rscale>
<asrwt>0</asrwt>
<pdfrwt beam="1">  1       21 0.94573890E-01 0.45374322E+03</pdfrwt>
<pdfrwt beam="2">  1       21 0.11769858E-01 0.45374322E+03</pdfrwt>
<totfact> 0.52178570E+04</totfact>
</mgrwt>
</event>
<event>
 7    0  0.4784406E-002  0.4576893E+03  0.7546771E-02  0.1025454E+00
         21   -1    0    0  502  501  0.00000000000E+00  0.00000000000E+00  0.80987361987E+03  0.80987361987E+03  0.00000000000E+00 0. -1.
         21   -1    0    0  501  502 -0.00000000000E+00 -0.00000000000E+00 -0.64664254330E+02  0.64664254330E+02  0.00000000000E+00 0. -1.
      99926    2    1    2    0    0  0.00000000000E+00  0.00000000000E+00  0.74520936554E+03  0.87453787420E+03  0.45768929955E+03 0.  0.
      99925    2    3    3    0    0  0.10623470695E+03 -0.45722020512E+02  0.46197487751E+03  0.54401465349E+03  0.26297307778E+03 0.  0.
         25    1    4    4    0    0  0.93313676526E+02 -0.13574782242E+02  0.23190707781E+03  0.27985731682E+03  0.12509000000E+03 0.  0.
         25    1    3    3    0    0 -0.10623470695E+03  0.45722020512E+02  0.28323448803E+03  0.33052322071E+03  0.12509000000E+03 0.  0.
         25    1    4    4    0    0  0.12921030429E+02 -0.32147238270E+02  0.23006779970E+03  0.26415733667E+03  0.12509000000E+03 0.  0.
<mgrwt>
<rscale>  2 0.45768930E+03</rscale>
<asrwt>0</asrwt>
<pdfrwt beam="1">  1       21 0.11909906E+00 0.45768930E+03</pdfrwt>
<pdfrwt beam="2">  1       21 0.95094496E-02 0.45768930E+03</pdfrwt>
<totfact> 0.43430829E+04</totfact>
</mgrwt>
</event>
<event>
 7    0  0.4784406E-002  0.4575251E+03  0.7546771E-02  0.1025501E+00
         21   -1    0    0  502  501  0.00000000000E+00  0.00000000000E+00  0.72754111566E+02  0.72754111566E+02  0.00000000000E+00 0.  1.
         21   -1    0    0  501  502 -0.00000000000E+00 -0.00000000000E+00 -0.71930373402E+03  0.71930373402E+03  0.00000000000E+00 0.  1.
      99926    2    1    2    0    0  0.00000000000E+00  0.00000000000E+00 -0.64654962245E+03  0.79205784558E+03  0.45752509927E+03 0.  0.
      99925    2    3    3    0    0  0.10111951625E+03  0.18563815951E+02 -0.31518866117E+03  0.42325252215E+03  0.26311410747E+03 0.  0.
         25    1    4    4    0    0  0.90246134551E+02  0.57536709518E+01 -0.19769536273E+03  0.25081553794E+03  0.12509000000E+03 0.  0.
         25    1    3    3    0    0 -0.10111951625E+03 -0.18563815951E+02 -0.33136096128E+03  0.36880532343E+03  0.12509000000E+03 0.  0.
         25    1    4    4    0    0  0.10873381695E+02  0.12810144999E+02 -0.11749329844E+03  0.17243698421E+03  0.12509000000E+03 0.  0.
<mgrwt>
<rscale>  2 0.45752510E+03</rscale>
<asrwt>0</asrwt>
<pdfrwt beam="1">  1       21 0.10699134E-01 0.45752510E+03</pdfrwt>
<pdfrwt beam="2">  1       21 0.10577996E+00 0.45752510E+03</pdfrwt>
<totfact> 0.47208830E+04</totfact>
</mgrwt>
</event>
<event>
 7    0  0.4784406E-002  0.4611909E+03  0.7546771E-02  0.1024436E+00
         21   -1    0    0  502  501  0.00000000000E+00  0.00000000000E+00  0.17569556655E+04  0.17569556655E+04  0.00000000000E+00 0.  1.
         21   -1    0    0  501  502 -0.00000000000E+00 -0.00000000000E+00 -0.30264992553E+02  0.30264992553E+02  0.00000000000E+00 0.  1.
      99926    2    1    2    0    0 -0.14210854715E-13 -0.71054273576E-14  0.17266906729E+04  0.17872206580E+04  0.46119085044E+03 0.  0.
      99925    2    3    3    0    0  0.92179314969E+02  0.40726339099E+02  0.13240361512E+04  0.13537072986E+04  0.26324144792E+03 0.  0.
         25    1    3    3    0    0 -0.92179314969E+02 -0.40726339099E+02  0.40265452172E+03  0.43351335939E+03  0.12509000000E+03 0.  0.
         25    1    4    4    0    0  0.36855718477E+02  0.53076045619E+02  0.77997342912E+03  0.79257899848E+03  0.12509000000E+03 0.  0.
         25    1    4    4    0    0  0.55323596492E+02 -0.12349706519E+02  0.54406272208E+03  0.56112830016E+03  0.12509000000E+03 0.  0.
<mgrwt>
<rscale>  2 0.46119085E+03</rscale>
<asrwt>0</asrwt>
<pdfrwt beam="1">  1       21 0.25837576E+00 0.46119085E+03</pdfrwt>
<pdfrwt beam="2">  1       21 0.44507354E-02 0.46119085E+03</pdfrwt>
<totfact> 0.16689628E+04</totfact>
</mgrwt>
</event>
<event>
 7    0  0.4784406E-002  0.4478229E+03  0.7546771E-02  0.1028373E+00
         21   -1    0    0  502  501  0.00000000000E+00  0.00000000000E+00  0.82563036734E+03  0.82563036734E+03  0.00000000000E+00 0.  1.
         21   -1    0    0  501  502 -0.00000000000E+00 -0.00000000000E+00 -0.60724906884E+02  0.60724906884E+02  0.00000000000E+00 0.  1.
      99926    2    1    2    0    0 -0.71054273576E-14  0.00000000000E+00  0.76490546045E+03  0.88635527422E+03  0.44782285416E+03 0.  0.
      99925    2    3    3    0    0  0.42998637119E+02  0.97234760539E+02  0.48854050088E+03  0.56490764173E+03  0.26295501752E+03 0.  0.
         25    1    4    4    0    0  0.32406707465E+02  0.12412708428E+02  0.18984534723E+03  0.22998485599E+03  0.12509000000E+03 0.  0.
         25    1    4    4    0    0  0.10591929654E+02  0.84822052111E+02  0.29869515365E+03  0.33492278575E+03  0.12509000000E+03 0.  0.
         25    1    3    3    0    0 -0.42998637119E+02 -0.97234760539E+02  0.27636495958E+03  0.32144763249E+03  0.12509000000E+03 0.  0.
<mgrwt>
<rscale>  2 0.44782285E+03</rscale>
<asrwt>0</asrwt>
<pdfrwt beam="1">  1       21 0.12141622E+00 0.44782285E+03</pdfrwt>
<pdfrwt beam="2">  1       21 0.89301339E-02 0.44782285E+03</pdfrwt>
<totfact> 0.46381314E+04</totfact>
</mgrwt>
</event>
<event>
 7    0  0.4784406E-002  0.4443019E+03  0.7546771E-02  0.1029435E+00
         21   -1    0    0  502  501  0.00000000000E+00  0.00000000000E+00  0.64118277513E+03  0.64118277513E+03  0.00000000000E+00 0. -1.
         21   -1    0    0  501  502 -0.00000000000E+00 -0.00000000000E+00 -0.76968771689E+02  0.76968771689E+02  0.00000000000E+00 0. -1.
      99926    2    1    2    0    0  0.00000000000E+00  0.00000000000E+00  0.56421400344E+03  0.71815154682E+03  0.44430192721E+03 0.  0.
      99925    2    3    3    0    0 -0.80398934118E+02 -0.32157881774E+02  0.26936582959E+03  0.38636687013E+03  0.26310319308E+03 0.  0.
         25    1    3    3    0    0  0.80398934118E+02  0.32157881774E+02  0.29484817385E+03  0.33178467669E+03  0.12509000000E+03 0.  0.
         25    1    4    4    0    0 -0.17369822866E+02  0.17742746812E+02  0.13868525769E+03  0.18840813308E+03  0.12509000000E+03 0.  0.
         25    1    4    4    0    0 -0.63029111252E+02 -0.49900628587E+02  0.13068057190E+03  0.19795873704E+03  0.12509000000E+03 0.  0.
<mgrwt>
<rscale>  2 0.44430193E+03</rscale>
<asrwt>0</asrwt>
<pdfrwt beam="1">  1       21 0.94291582E-01 0.44430193E+03</pdfrwt>
<pdfrwt beam="2">  1       21 0.11318937E-01 0.44430193E+03</pdfrwt>
<totfact> 0.56538087E+04</totfact>
</mgrwt>
</event>
<event>
 7    0  0.4784406E-002  0.4513692E+03  0.7546771E-02  0.1027315E+00
         21   -1    0    0  502  501  0.00000000000E+00  0.00000000000E+00  0.42385306628E+03  0.42385306628E+03  0.00000000000E+00 0. -1.
         21   -1    0    0  501  502 -0.00000000000E+00 -0.00000000000E+00 -0.12016789686E+03  0.12016789686E+03  0.00000000000E+00 0. -1.
      99926    2    1    2    0    0 -0.14210854715E-13 -0.35527136788E-14  0.30368516942E+03  0.54402096314E+03  0.45136916843E+03 0.  0.
      99925    2    3    3    0    0  0.10345877446E+03 -0.28149137438E+02  0.21988413849E+03  0.35917991565E+03  0.26299255787E+03 0.  0.
         25    1    3    3    0    0 -0.10345877446E+03  0.28149137438E+02  0.83801030928E+02  0.18484104749E+03  0.12509000000E+03 0.  0.
         25    1    4    4    0    0  0.85697508337E+02  0.82519498061E+01  0.10550161113E+03  0.18490607254E+03  0.12509000000E+03 0.  0.
         25    1    4    4    0    0  0.17761266125E+02 -0.36401087245E+02  0.11438252736E+03  0.17427384311E+03  0.12509000000E+03 0.  0.
<mgrwt>
<rscale>  2 0.45136917E+03</rscale>
<asrwt>0</asrwt>
<pdfrwt beam="1">  1       21 0.62331333E-01 0.45136917E+03</pdfrwt>
<pdfrwt beam="2">  1       21 0.17671750E-01 0.45136917E+03</pdfrwt>
<totfact> 0.64084816E+04</totfact>
</mgrwt>
</event>
<event>
 7    0  0.4784406E-002  0.4576621E+03  0.7546771E-02  0.1025461E+00
         21   -1    0    0  502  501  0.00000000000E+00  0.00000000000E+00  0.87545148551E+03  0.87545148551E+03  0.00000000000E+00 0. -1.
         21   -1    0    0  501  502 -0.00000000000E+00 -0.00000000000E+00 -0.59813299711E+02  0.59813299711E+02  0.00000000000E+00 0. -1.
      99926    2    1    2    0    0  0.71054273576E-14 -0.71054273576E-14  0.81563818580E+03  0.93526478522E+03  0.45766206784E+03 0.  0.
      99925    2    3    3    0    0  0.38677065060E+02 -0.63695764806E+02  0.69276473703E+03  0.74474324227E+03  0.26299515246E+03 0.  0.
         25    1    4    4    0    0  0.38413640056E+02 -0.42871483118E+02  0.45357931433E+03  0.47402033110E+03  0.12509000000E+03 0.  0.
         25    1    4    4    0    0  0.26342500421E+00 -0.20824281689E+02  0.23918542269E+03  0.27072291117E+03  0.12509000000E+03 0.  0.
         25    1    3    3    0    0 -0.38677065060E+02  0.63695764806E+02  0.12287344877E+03  0.19052154295E+03  0.12509000000E+03 0.  0.
<mgrwt>
<rscale>  2 0.45766207E+03</rscale>
<asrwt>0</asrwt>
<pdfrwt beam="1">  1       21 0.12874286E+00 0.45766207E+03</pdfrwt>
<pdfrwt beam="2">  1       21 0.87960740E-02 0.45766207E+03</pdfrwt>
<totfact> 0.40885408E+04</totfact>
</mgrwt>
</event>
<event>
 7    0  0.4784406E-002  0.4464073E+03  0.7546771E-02  0.1028799E+00
         21   -1    0    0  502  501  0.00000000000E+00  0.00000000000E+00  0.14518104943E+04  0.14518104943E+04  0.00000000000E+00 0. -1.
         21   -1    0    0  501  502 -0.00000000000E+00 -0.00000000000E+00 -0.34315677656E+02  0.34315677656E+02  0.00000000000E+00 0. -1.
      99926    2    1    2    0    0  0.00000000000E+00  0.00000000000E+00  0.14174948166E+04  0.14861261719E+04  0.44640726221E+03 0.  0.
      99925    2    3    3    0    0 -0.23454536218E+02  0.18875945946E+02  0.12337053030E+04  0.12617770912E+04  0.26295672009E+03 0.  0.
         25    1    4    4    0    0 -0.20433699099E+02  0.49002992713E+02  0.61795664941E+03  0.63272170660E+03  0.12509000000E+03 0.  0.
         25    1    4    4    0    0 -0.30208371198E+01 -0.30127046767E+02  0.61574865360E+03  0.62905538462E+03  0.12509000000E+03 0.  0.
         25    1    3    3    0    0  0.23454536218E+02 -0.18875945946E+02  0.18378951361E+03  0.22434908071E+03  0.12509000000E+03 0.  0.
<mgrwt>
<rscale>  2 0.44640726E+03</rscale>
<asrwt>0</asrwt>
<pdfrwt beam="1">  1       21 0.21350150E+00 0.44640726E+03</pdfrwt>
<pdfrwt beam="2">  1       21 0.50464241E-02 0.44640726E+03</pdfrwt>
<totfact> 0.25800848E+04</totfact>
</mgrwt>
</event>
<event>
 6    0  0.4784406E-002  0.4543870E+03  0.7546771E-02  0.1026422E+00
         21   -1    0    0  502  501  0.00000000000E+00  0.00000000000E+00  0.14489390259E+04  0.14489390259E+04  0.00000000000E+00 0.  1.
         21   -1    0    0  501  502 -0.00000000000E+00 -0.00000000000E+00 -0.35623926572E+02  0.35623926572E+02  0.00000000000E+00 0.  1.
      99926    2    1    2    0    0 -0.53290705182E-14  0.17763568394E-14  0.14133150993E+04  0.14845629524E+04  0.45438704852E+03 0.  0.
         25    1    3    3    0    0  0.50168599405E+02  0.24915399978E+02  0.76731869812E+03  0.77946337830E+03  0.12509000000E+03 0.  0.
         25    1    3    3    0    0  0.70032982533E+01  0.13295536912E+02  0.19595861385E+03  0.23296588577E+03  0.12509000000E+03 0.  0.
         25    1    3    3    0    0 -0.57171897658E+02 -0.38210936889E+02  0.45003778733E+03  0.47213368838E+03  0.12509000000E+03 0.  0.
<mgrwt>
<rscale>  2 0.45438705E+03</rscale>
<asrwt>0</asrwt>
<pdfrwt beam="1">  1       21 0.21307923E+00 0.45438705E+03</pdfrwt>
<pdfrwt beam="2">  1       21 0.52388137E-02 0.45438705E+03</pdfrwt>
<totfact> 0.24275392E+04</totfact>
</mgrwt>
</event>
<event>
 7    0  0.4784406E-002  0.4581695E+03  0.7546771E-02  0.1025313E+00
         21   -1    0    0  502  501  0.00000000000E+00  0.00000000000E+00  0.38602791692E+03  0.38602791692E+03  0.00000000000E+00 0. -1.
         21   -1    0    0  501  502 -0.00000000000E+00 -0.00000000000E+00 -0.13594823189E+03  0.13594823189E+03  0.00000000000E+00 0. -1.
      99926    2    1    2    0    0  0.88817841970E-15  0.00000000000E+00  0.25007968503E+03  0.52197614881E+03  0.45816945670E+03 0.  0.
      99925    2    3    3    0    0  0.45198953423E+01 -0.11516459233E+03  0.14007073310E+03  0.31941062759E+03  0.26290687698E+03 0.  0.
         25    1    4    4    0    0  0.23213616986E+02 -0.59255702241E+02  0.10893446742E+03  0.17766354875E+03  0.12509000000E+03 0.  0.
         25    1    3    3    0    0 -0.45198953423E+01  0.11516459233E+03  0.11000895193E+03  0.20256552122E+03  0.12509000000E+03 0.  0.
         25    1    4    4    0    0 -0.18693721643E+02 -0.55908890090E+02  0.31136265686E+02  0.14174707884E+03  0.12509000000E+03 0.  0.
<mgrwt>
<rscale>  2 0.45816946E+03</rscale>
<asrwt>0</asrwt>
<pdfrwt beam="1">  1       21 0.56768811E-01 0.45816946E+03</pdfrwt>
<pdfrwt beam="2">  1       21 0.19992387E-01 0.45816946E+03</pdfrwt>
<totfact> 0.62174623E+04</totfact>
</mgrwt>
</event>
<event>
 7    0  0.4784406E-002  0.4560909E+03  0.7546771E-02  0.1025921E+00
         21   -1    0    0  502  501  0.00000000000E+00  0.00000000000E+00  0.75756038615E+03  0.75756038615E+03  0.00000000000E+00 0.  1.
         21   -1    0    0  501  502 -0.00000000000E+00 -0.00000000000E+00 -0.68647642844E+02  0.68647642844E+02  0.00000000000E+00 0.  1.
      99926    2    1    2    0    0  0.00000000000E+00  0.00000000000E+00  0.68891274331E+03  0.82620802900E+03  0.45609093313E+03 0.  0.
      99925    2    3    3    0    0 -0.29266934676E+02  0.94874894359E+01  0.63207439183E+03  0.68540791458E+03  0.26328578891E+03 0.  0.
         25    1    3    3    0    0  0.29266934676E+02 -0.94874894359E+01  0.56838351480E+02  0.14080011442E+03  0.12509000000E+03 0.  0.
         25    1    4    4    0    0 -0.91311327935E+01  0.43008761600E+02  0.35334869420E+03  0.37740686130E+03  0.12509000000E+03 0.  0.
         25    1    4    4    0    0 -0.20135801882E+02 -0.33521272164E+02  0.27872569762E+03  0.30800105328E+03  0.12509000000E+03 0.  0.
<mgrwt>
<rscale>  2 0.45609093E+03</rscale>
<asrwt>0</asrwt>
<pdfrwt beam="1">  1       21 0.11140593E+00 0.45609093E+03</pdfrwt>
<pdfrwt beam="2">  1       21 0.10095242E-01 0.45609093E+03</pdfrwt>
<totfact> 0.46127040E+04</totfact>
</mgrwt>
</event>
<event>
 7    0  0.4784406E-002  0.4550298E+03  0.7546771E-02  0.1026233E+00
         21   -1    0    0  502  501  0.00000000000E+00  0.00000000000E+00  0.32867384771E+03  0.32867384771E+03  0.00000000000E+00 0. -1.
         21   -1    0    0  501  502 -0.00000000000E+00 -0.00000000000E+00 -0.15749057793E+03  0.15749057793E+03  0.00000000000E+00 0. -1.
      99926    2    1    2    0    0  0.00000000000E+00  0.00000000000E+00  0.17118326978E+03  0.48616442564E+03  0.45502981980E+03 0.  0.
      99925    2    3    3    0    0  0.10427642155E+03 -0.37291282878E+02  0.83734193676E+02  0.29759332265E+03  0.26322264080E+03 0.  0.
         25    1    4    4    0    0  0.29096842218E+02 -0.39043862354E+02  0.11450460067E+02  0.13472071314E+03  0.12509000000E+03 0.  0.
         25    1    3    3    0    0 -0.10427642155E+03  0.37291282878E+02  0.87449076108E+02  0.18857110299E+03  0.12509000000E+03 0.  0.
         25    1    4    4    0    0  0.75179579337E+02  0.17525794752E+01  0.72283733609E+02  0.16287260951E+03  0.12509000000E+03 0.  0.
<mgrwt>
<rscale>  2 0.45502982E+03</rscale>
<asrwt>0</asrwt>
<pdfrwt beam="1">  1       21 0.48334389E-01 0.45502982E+03</pdfrwt>
<pdfrwt beam="2">  1       21 0.23160379E-01 0.45502982E+03</pdfrwt>
<totfact> 0.66238361E+04</totfact>
</mgrwt>
</event>
<event>
 7    0  0.4784406E-002  0.4497284E+03  0.7546771E-02  0.1027803E+00
         21   -1    0    0  502  501  0.00000000000E+00  0.00000000000E+00  0.43844246004E+03  0.43844246004E+03  0.00000000000E+00 0. -1.
         21   -1    0    0  501  502 -0.00000000000E+00 -0.00000000000E+00 -0.11532619403E+03  0.11532619403E+03  0.00000000000E+00 0. -1.
      99926    2    1    2    0    0  0.00000000000E+00  0.00000000000E+00  0.32311626601E+03  0.55376865406E+03  0.44972836342E+03 0.  0.
      99925    2    3    3    0    0 -0.23685701898E+02 -0.10017084278E+03  0.24494393755E+03  0.37389750225E+03  0.26307147209E+03 0.  0.
         25    1    4    4    0    0 -0.46423003555E+02 -0.74164428259E+02  0.12833620246E+03  0.19943206021E+03  0.12509000000E+03 0.  0.
         25    1    4    4    0    0  0.22737301657E+02 -0.26006414520E+02  0.11660773509E+03  0.17446544204E+03  0.12509000000E+03 0.  0.
         25    1    3    3    0    0  0.23685701898E+02  0.10017084278E+03  0.78172328461E+02  0.17987115181E+03  0.12509000000E+03 0.  0.
<mgrwt>
<rscale>  2 0.44972836E+03</rscale>
<asrwt>0</asrwt>
<pdfrwt beam="1">  1       21 0.64476832E-01 0.44972836E+03</pdfrwt>
<pdfrwt beam="2">  1       21 0.16959735E-01 0.44972836E+03</pdfrwt>
<totfact> 0.64256287E+04</totfact>
</mgrwt>
</event>
<event>
 7    0  0.4784406E-002  0.4573669E+03  0.7546771E-02  0.1025548E+00
         21   -1    0    0  502  501  0.00000000000E+00  0.00000000000E+00  0.42271061739E+02  0.42271061739E+02  0.00000000000E+00 0.  1.
         21   -1    0    0  501  502 -0.00000000000E+00 -0.00000000000E+00 -0.12371613962E+04  0.12371613962E+04  0.00000000000E+00 0.  1.
      99926    2    1    2    0    0  0.00000000000E+00 -0.35527136788E-14 -0.11948903344E+04  0.12794324579E+04  0.45736692385E+03 0.  0.
      99925    2    3    3    0    0 -0.10498057965E+03  0.29940934626E+02 -0.85356367973E+03  0.89986853051E+03  0.26320151060E+03 0.  0.
         25    1    4    4    0    0 -0.41772803948E+02 -0.20487970551E+02 -0.46354448736E+03  0.48237508637E+03  0.12509000000E+03 0.  0.
         25    1    4    4    0    0 -0.63207775703E+02  0.50428905177E+02 -0.39001919237E+03  0.41749344414E+03  0.12509000000E+03 0.  0.
         25    1    3    3    0    0  0.10498057965E+03 -0.29940934626E+02 -0.34132665469E+03  0.37956392738E+03  0.12509000000E+03 0.  0.
<mgrwt>
<rscale>  2 0.45736692E+03</rscale>
<asrwt>0</asrwt>
<pdfrwt beam="1">  1       21 0.62163325E-02 0.45736692E+03</pdfrwt>
<pdfrwt beam="2">  1       21 0.18193550E+00 0.45736692E+03</pdfrwt>
<totfact> 0.29176841E+04</totfact>
</mgrwt>
</event>
<event>
 7    0  0.4784406E-002  0.4537138E+03  0.7546771E-02  0.1026620E+00
         21   -1    0    0  502  501  0.00000000000E+00  0.00000000000E+00  0.23726703198E+03  0.23726703198E+03  0.00000000000E+00 0. -1.
         21   -1    0    0  501  502 -0.00000000000E+00 -0.00000000000E+00 -0.21690351152E+03  0.21690351152E+03  0.00000000000E+00 0. -1.
      99926    2    1    2    0    0  0.00000000000E+00  0.00000000000E+00  0.20363520466E+02  0.45417054350E+03  0.45371379703E+03 0.  0.
      99925    2    3    3    0    0  0.33101952016E+02 -0.34591183406E+02 -0.88556434363E+02  0.28153406457E+03  0.26291994646E+03 0.  0.
         25    1    4    4    0    0  0.48118708713E+02 -0.24679232239E+02 -0.19938941824E+02  0.13772996817E+03  0.12509000000E+03 0.  0.
         25    1    4    4    0    0 -0.15016756697E+02 -0.99119511669E+01 -0.68617492539E+02  0.14380409639E+03  0.12509000000E+03 0.  0.
         25    1    3    3    0    0 -0.33101952016E+02  0.34591183406E+02  0.10891995483E+03  0.17263647893E+03  0.12509000000E+03 0.  0.
<mgrwt>
<rscale>  2 0.45371380E+03</rscale>
<asrwt>0</asrwt>
<pdfrwt beam="1">  1       21 0.34892211E-01 0.45371380E+03</pdfrwt>
<pdfrwt beam="2">  1       21 0.31897575E-01 0.45371380E+03</pdfrwt>
<totfact> 0.69315242E+04</totfact>
</mgrwt>
</event>
<event>
 7    0  0.4784406E-002  0.4470535E+03  0.7546771E-02  0.1028604E+00
         21   -1    0    0  502  501  0.00000000000E+00  0.00000000000E+00  0.15900789933E+02  0.15900789933E+02  0.00000000000E+00 0. -1.
         21   -1    0    0  501  502 -0.00000000000E+00 -0.00000000000E+00 -0.31422467567E+04  0.31422467567E+04  0.00000000000E+00 0. -1.
      99926    2    1    2    0    0  0.00000000000E+00  0.35527136788E-14 -0.31263459667E+04  0.31581475466E+04  0.44705348939E+03 0.  0.
      99925    2    3    3    0    0  0.69125033441E+02 -0.22497799830E+02 -0.25221983848E+04  0.25369179352E+04  0.26302755809E+03 0.  0.
         25    1    4    4    0    0  0.38872807563E+01  0.30006588619E+01 -0.14031538059E+04  0.14087271652E+04  0.12509000000E+03 0.  0.
         25    1    3    3    0    0 -0.69125033441E+02  0.22497799830E+02 -0.60414758194E+03  0.62122961142E+03  0.12509000000E+03 0.  0.
         25    1    4    4    0    0  0.65237752684E+02 -0.25498458692E+02 -0.11190445789E+04  0.11281907700E+04  0.12509000000E+03 0.  0.
<mgrwt>
<rscale>  2 0.44705349E+03</rscale>
<asrwt>0</asrwt>
<pdfrwt beam="1">  1       21 0.23383461E-02 0.44705349E+03</pdfrwt>
<pdfrwt beam="2">  1       21 0.46209616E+00 0.44705349E+03</pdfrwt>
<totfact> 0.26172283E+03</totfact>
</mgrwt>
</event>
<event>
 7    0  0.4784406E-002  0.4677101E+03  0.7546771E-02  0.1022569E+00
         21   -1    0    0  502  501  0.00000000000E+00  0.00000000000E+00  0.76235367577E+02  0.76235367577E+02  0.00000000000E+00 0. -1.
         21   -1    0    0  501  502 -0.00000000000E+00 -0.00000000000E+00 -0.71735965913E+03  0.71735965913E+03  0.00000000000E+00 0. -1.
      99926    2    1    2    0    0  0.00000000000E+00 -0.17763568394E-14 -0.64112429155E+03  0.79359502670E+03  0.46771006959E+03 0.  0.
      99925    2    3    3    0    0 -0.33201324961E+02  0.10827934551E+02 -0.60213542620E+03  0.65799557292E+03  0.26300481051E+03 0.  0.
         25    1    4    4    0    0 -0.15548753834E+02  0.25304074845E+02 -0.39026392739E+03  0.41089597354E+03  0.12509000000E+03 0.  0.
         25    1    4    4    0    0 -0.17652571127E+02 -0.14476140294E+02 -0.21187149881E+03  0.24709959938E+03  0.12509000000E+03 0.  0.
         25    1    3    3    0    0  0.33201324961E+02 -0.10827934551E+02 -0.38988865350E+02  0.13559945379E+03  0.12509000000E+03 0.  0.
<mgrwt>
<rscale>  2 0.46771007E+03</rscale>
<asrwt>0</asrwt>
<pdfrwt beam="1">  1       21 0.11211083E-01 0.46771007E+03</pdfrwt>
<pdfrwt beam="2">  1       21 0.10549407E+00 0.46771007E+03</pdfrwt>
<totfact> 0.43565250E+04</totfact>
</mgrwt>
</event>
<event>
 7    0  0.4784406E-002  0.4453804E+03  0.7546771E-02  0.1029109E+00
         21   -1    0    0  502  501  0.00000000000E+00  0.00000000000E+00  0.32983579008E+03  0.32983579008E+03  0.00000000000E+00 0. -1.
         21   -1    0    0  501  502 -0.00000000000E+00 -0.00000000000E+00 -0.15035031441E+03  0.15035031441E+03  0.00000000000E+00 0. -1.
      99926    2    1    2    0    0  0.35527136788E-14  0.71054273576E-14  0.17948547566E+03  0.48018610449E+03  0.44538035315E+03 0.  0.
      99925    2    3    3    0    0 -0.28783503020E+02  0.36391533630E+02  0.21424836011E+03  0.34231369970E+03  0.26291343714E+03 0.  0.
         25    1    3    3    0    0  0.28783503020E+02 -0.36391533630E+02 -0.34762884445E+02  0.13787240478E+03  0.12509000000E+03 0.  0.
         25    1    4    4    0    0  0.41488844417E+01  0.41875358552E+02  0.14276245062E+03  0.19442063754E+03  0.12509000000E+03 0.  0.
         25    1    4    4    0    0 -0.32932387461E+02 -0.54838249222E+01  0.71485909490E+02  0.14789306216E+03  0.12509000000E+03 0.  0.
<mgrwt>
<rscale>  2 0.44538035E+03</rscale>
<asrwt>0</asrwt>
<pdfrwt beam="1">  1       21 0.48505263E-01 0.44538035E+03</pdfrwt>
<pdfrwt beam="2">  1       21 0.22110340E-01 0.44538035E+03</pdfrwt>
<totfact> 0.72032076E+04</totfact>
</mgrwt>
</event>
<event>
 7    0  0.4784406E-002  0.4520880E+03  0.7546771E-02  0.1027101E+00
         21   -1    0    0  502  501  0.00000000000E+00  0.00000000000E+00  0.18776153793E+03  0.18776153793E+03  0.00000000000E+00 0.  1.
         21   -1    0    0  501  502 -0.00000000000E+00 -0.00000000000E+00 -0.27213184725E+03  0.27213184725E+03  0.00000000000E+00 0.  1.
      99926    2    1    2    0    0 -0.71054273576E-14 -0.14210854715E-13 -0.84370309324E+02  0.45989338518E+03  0.45208801868E+03 0.  0.
      99925    2    3    3    0    0 -0.56438648767E+02 -0.93299237379E+02 -0.71814249144E+02  0.29347454154E+03  0.26283065152E+03 0.  0.
         25    1    3    3    0    0  0.56438648767E+02  0.93299237379E+02 -0.12556060180E+02  0.16641884364E+03  0.12509000000E+03 0.  0.
         25    1    4    4    0    0 -0.23223862881E+02 -0.28571735985E+02  0.32896577072E+01  0.13043780837E+03  0.12509000000E+03 0.  0.
         25    1    4    4    0    0 -0.33214785886E+02 -0.64727501394E+02 -0.75103906852E+02  0.16303673317E+03  0.12509000000E+03 0.  0.
<mgrwt>
<rscale>  2 0.45208802E+03</rscale>
<asrwt>0</asrwt>
<pdfrwt beam="1">  1       21 0.27611991E-01 0.45208802E+03</pdfrwt>
<pdfrwt beam="2">  1       21 0.40019389E-01 0.45208802E+03</pdfrwt>
<totfact> 0.69792551E+04</totfact>
</mgrwt>
</event>
<event>
 7    0  0.4784406E-002  0.4460839E+03  0.7546771E-02  0.1028896E+00
         21   -1    0    0  502  501  0.00000000000E+00  0.00000000000E+00  0.40408196987E+03  0.40408196987E+03  0.00000000000E+00 0.  1.
         21   -1    0    0  501  502 -0.00000000000E+00 -0.00000000000E+00 -0.12311294361E+03  0.12311294361E+03  0.00000000000E+00 0.  1.
      99926    2    1    2    0    0  0.35527136788E-14 -0.14210854715E-13  0.28096902627E+03  0.52719491348E+03  0.44608394174E+03 0.  0.
      99925    2    3    3    0    0  0.27901306053E+02 -0.64912243004E+02  0.26956121900E+03  0.38307784878E+03  0.26285605427E+03 0.  0.
         25    1    3    3    0    0 -0.27901306053E+02  0.64912243004E+02  0.11407807264E+02  0.14411706470E+03  0.12509000000E+03 0.  0.
         25    1    4    4    0    0  0.15097255373E+02  0.68818046340E+01  0.10764555223E+03  0.16586247125E+03  0.12509000000E+03 0.  0.
         25    1    4    4    0    0  0.12804050681E+02 -0.71794047638E+02  0.16191566677E+03  0.21721537753E+03  0.12509000000E+03 0.  0.
<mgrwt>
<rscale>  2 0.44608394E+03</rscale>
<asrwt>0</asrwt>
<pdfrwt beam="1">  1       21 0.59423819E-01 0.44608394E+03</pdfrwt>
<pdfrwt beam="2">  1       21 0.18104845E-01 0.44608394E+03</pdfrwt>
<totfact> 0.68078551E+04</totfact>
</mgrwt>
</event>
<event>
 7    0  0.4784406E-002  0.4329386E+03  0.7546771E-02  0.1032936E+00
         21   -1    0    0  502  501  0.00000000000E+00  0.00000000000E+00  0.27939260096E+03  0.27939260096E+03  0.00000000000E+00 0. -1.
         21   -1    0    0  501  502 -0.00000000000E+00 -0.00000000000E+00 -0.16771723003E+03  0.16771723003E+03  0.00000000000E+00 0. -1.
      99926    2    1    2    0    0 -0.71054273576E-14  0.00000000000E+00  0.11167537093E+03  0.44710983099E+03  0.43293857820E+03 0.  0.
      99925    2    3    3    0    0 -0.47117183554E+02  0.65504475121E+02  0.28488081433E+02  0.27658564361E+03  0.26301555509E+03 0.  0.
         25    1    3    3    0    0  0.47117183554E+02 -0.65504475121E+02  0.83187289501E+02  0.17052418738E+03  0.12509000000E+03 0.  0.
         25    1    4    4    0    0 -0.44750066814E+02  0.98584084616E+01 -0.12101005998E+02  0.13376733212E+03  0.12509000000E+03 0.  0.
         25    1    4    4    0    0 -0.23671167398E+01  0.55646066659E+02  0.40589087431E+02  0.14281831148E+03  0.12509000000E+03 0.  0.
<mgrwt>
<rscale>  2 0.43293858E+03</rscale>
<asrwt>0</asrwt>
<pdfrwt beam="1">  1       21 0.41087147E-01 0.43293858E+03</pdfrwt>
<pdfrwt beam="2">  1       21 0.24664299E-01 0.43293858E+03</pdfrwt>
<totfact> 0.82733751E+04</totfact>
</mgrwt>
</event>
<event>
 7    0  0.4784406E-002  0.4556858E+03  0.7546771E-02  0.1026040E+00
         21   -1    0    0  502  501  0.00000000000E+00  0.00000000000E+00  0.13234274970E+03  0.13234274970E+03  0.00000000000E+00 0. -1.
         21   -1    0    0  501  502 -0.00000000000E+00 -0.00000000000E+00 -0.39225720001E+03  0.39225720001E+03  0.00000000000E+00 0. -1.
      99926    2    1    2    0    0  0.88817841970E-15  0.00000000000E+00 -0.25991445031E+03  0.52459994972E+03  0.45568584108E+03 0.  0.
      99925    2    3    3    0    0  0.48453798421E+01  0.70510488001E+02 -0.26618285560E+03  0.38078754542E+03  0.26296508420E+03 0.  0.
         25    1    4    4    0    0  0.37612288364E+02  0.17028843446E+02 -0.14208829165E+03  0.19375566178E+03  0.12509000000E+03 0.  0.
         25    1    3    3    0    0 -0.48453798421E+01 -0.70510488001E+02  0.62684052942E+01  0.14381240429E+03  0.12509000000E+03 0.  0.
         25    1    4    4    0    0 -0.32766908522E+02  0.53481644555E+02 -0.12409456395E+03  0.18703188365E+03  0.12509000000E+03 0.  0.
<mgrwt>
<rscale>  2 0.45568584E+03</rscale>
<asrwt>0</asrwt>
<pdfrwt beam="1">  1       21 0.19462169E-01 0.45568584E+03</pdfrwt>
<pdfrwt beam="2">  1       21 0.57684882E-01 0.45568584E+03</pdfrwt>
<totfact> 0.63229062E+04</totfact>
</mgrwt>
</event>
<event>
 7    0  0.4784406E-002  0.4582331E+03  0.7546771E-02  0.1025295E+00
         21   -1    0    0  502  501  0.00000000000E+00  0.00000000000E+00  0.26234383384E+03  0.26234383384E+03  0.00000000000E+00 0.  1.
         21   -1    0    0  501  502 -0.00000000000E+00 -0.00000000000E+00 -0.20009765110E+03  0.20009765110E+03  0.00000000000E+00 0.  1.
      99926    2    1    2    0    0  0.00000000000E+00  0.00000000000E+00  0.62246182740E+02  0.46244148493E+03  0.45823306267E+03 0.  0.
      99925    2    3    3    0    0  0.59067071656E+02 -0.99490637241E+02  0.28523955669E+02  0.28874058525E+03  0.26300228833E+03 0.  0.
         25    1    4    4    0    0  0.16113496828E+02 -0.34935887254E+02  0.49820687619E+02  0.14003488856E+03  0.12509000000E+03 0.  0.
         25    1    4    4    0    0  0.42953574828E+02 -0.64554749987E+02 -0.21296731949E+02  0.14870569669E+03  0.12509000000E+03 0.  0.
         25    1    3    3    0    0 -0.59067071656E+02  0.99490637241E+02  0.33722227071E+02  0.17370089968E+03  0.12509000000E+03 0.  0.
<mgrwt>
<rscale>  2 0.45823306E+03</rscale>
<asrwt>0</asrwt>
<pdfrwt beam="1">  1       21 0.38579976E-01 0.45823306E+03</pdfrwt>
<pdfrwt beam="2">  1       21 0.29426125E-01 0.45823306E+03</pdfrwt>
<totfact> 0.66277612E+04</totfact>
</mgrwt>
</event>
<event>
 7    0  0.4784406E-002  0.4508419E+03  0.7546771E-02  0.1027471E+00
         21   -1    0    0  502  501  0.00000000000E+00  0.00000000000E+00  0.29764217925E+03  0.29764217925E+03  0.00000000000E+00 0. -1.
         21   -1    0    0  501  502 -0.00000000000E+00 -0.00000000000E+00 -0.17072383639E+03  0.17072383639E+03  0.00000000000E+00 0. -1.
      99926    2    1    2    0    0  0.14210854715E-13  0.00000000000E+00  0.12691834286E+03  0.46836601565E+03  0.45084194443E+03 0.  0.
      99925    2    3    3    0    0  0.82548716167E+02 -0.57555898314E+02  0.35975547776E+02  0.28385294823E+03  0.26296631763E+03 0.  0.
         25    1    4    4    0    0  0.23996082468E+02 -0.23273077762E+02  0.54235032582E+02  0.14037946781E+03  0.12509000000E+03 0.  0.
         25    1    4    4    0    0  0.58552633699E+02 -0.34282820552E+02 -0.18259484806E+02  0.14347348042E+03  0.12509000000E+03 0.  0.
         25    1    3    3    0    0 -0.82548716167E+02  0.57555898314E+02  0.90942795085E+02  0.18451306742E+03  0.12509000000E+03 0.  0.
<mgrwt>
<rscale>  2 0.45084194E+03</rscale>
<asrwt>0</asrwt>
<pdfrwt beam="1">  1       21 0.43770909E-01 0.45084194E+03</pdfrwt>
<pdfrwt beam="2">  1       21 0.25106447E-01 0.45084194E+03</pdfrwt>
<totfact> 0.69832806E+04</totfact>
</mgrwt>
</event>
<event>
 7    0  0.4784406E-002  0.4066865E+03  0.7546771E-02  0.1041489E+00
         21   -1    0    0  502  501  0.00000000000E+00  0.00000000000E+00  0.12278195029E+03  0.12278195029E+03  0.00000000000E+00 0. -1.
         21   -1    0    0  501  502 -0.00000000000E+00 -0.00000000000E+00 -0.33676344978E+03  0.33676344978E+03  0.00000000000E+00 0. -1.
      99926    2    1    2    0    0  0.00000000000E+00  0.22204460493E-15 -0.21398149949E+03  0.45954540007E+03  0.40668647950E+03 0.  0.
      99925    2    3    3    0    0 -0.47345563273E+02  0.17781693594E+01 -0.17707784127E+03  0.32078606764E+03  0.26325344266E+03 0.  0.
         25    1    4    4    0    0 -0.28171245854E+02  0.40877805990E+02 -0.79961798443E+02  0.15654396004E+03  0.12509000000E+03 0.  0.
         25    1    4    4    0    0 -0.19174317419E+02 -0.39099636631E+02 -0.97116042829E+02  0.16424210760E+03  0.12509000000E+03 0.  0.
         25    1    3    3    0    0  0.47345563273E+02 -0.17781693594E+01 -0.36903658217E+02  0.13875933243E+03  0.12509000000E+03 0.  0.
<mgrwt>
<rscale>  2 0.40668648E+03</rscale>
<asrwt>0</asrwt>
<pdfrwt beam="1">  1       21 0.18056169E-01 0.40668648E+03</pdfrwt>
<pdfrwt beam="2">  1       21 0.49524036E-01 0.40668648E+03</pdfrwt>
<totfact> 0.10210477E+05</totfact>
</mgrwt>
</event>
<event>
 7    0  0.4784406E-002  0.4483654E+03  0.7546771E-02  0.1028211E+00
         21   -1    0    0  502  501  0.00000000000E+00  0.00000000000E+00  0.69394458481E+02  0.69394458481E+02  0.00000000000E+00 0.  1.
         21   -1    0    0  501  502 -0.00000000000E+00 -0.00000000000E+00 -0.72423478571E+03  0.72423478571E+03  0.00000000000E+00 0.  1.
      99926    2    1    2    0    0  0.00000000000E+00 -0.71054273576E-14 -0.65484032723E+03  0.79362924419E+03  0.44836539013E+03 0.  0.
      99925    2    3    3    0    0 -0.54907144066E+02  0.60397983380E+02 -0.29275270482E+03  0.40194357268E+03  0.26304330171E+03 0.  0.
         25    1    4    4    0    0  0.78917652832E+01  0.17945124104E+02 -0.10889413968E+03  0.16700224308E+03  0.12509000000E+03 0.  0.
         25    1    3    3    0    0  0.54907144066E+02 -0.60397983380E+02 -0.36208762241E+03  0.39168567151E+03  0.12509000000E+03 0.  0.
         25    1    4    4    0    0 -0.62798909349E+02  0.42452859276E+02 -0.18385856514E+03  0.23494132960E+03  0.12509000000E+03 0.  0.
<mgrwt>
<rscale>  2 0.44836539E+03</rscale>
<asrwt>0</asrwt>
<pdfrwt beam="1">  1       21 0.10205067E-01 0.44836539E+03</pdfrwt>
<pdfrwt beam="2">  1       21 0.10650512E+00 0.44836539E+03</pdfrwt>
<totfact> 0.50661393E+04</totfact>
</mgrwt>
</event>
<event>
 7    0  0.4784406E-002  0.4568485E+03  0.7546771E-02  0.1025699E+00
         21   -1    0    0  502  501  0.00000000000E+00  0.00000000000E+00  0.17991075088E+03  0.17991075088E+03  0.00000000000E+00 0. -1.
         21   -1    0    0  501  502 -0.00000000000E+00 -0.00000000000E+00 -0.29001962727E+03  0.29001962727E+03  0.00000000000E+00 0. -1.
      99926    2    1    2    0    0  0.00000000000E+00  0.00000000000E+00 -0.11010887638E+03  0.46993037815E+03  0.45684854783E+03 0.  0.
      99925    2    3    3    0    0 -0.25994806484E+01 -0.19522066693E+02  0.47336965083E+02  0.26787947001E+03  0.26292727854E+03 0.  0.
         25    1    4    4    0    0  0.93713789516E+01  0.14229857821E+02  0.54633765880E+02  0.13755968912E+03  0.12509000000E+03 0.  0.
         25    1    4    4    0    0 -0.11970859600E+02 -0.33751924513E+02 -0.72968007976E+01  0.13031978088E+03  0.12509000000E+03 0.  0.
         25    1    3    3    0    0  0.25994806484E+01  0.19522066693E+02 -0.15744584147E+03  0.20205090815E+03  0.12509000000E+03 0.  0.
<mgrwt>
<rscale>  2 0.45684855E+03</rscale>
<asrwt>0</asrwt>
<pdfrwt beam="1">  1       21 0.26457464E-01 0.45684855E+03</pdfrwt>
<pdfrwt beam="2">  1       21 0.42649945E-01 0.45684855E+03</pdfrwt>
<totfact> 0.66461051E+04</totfact>
</mgrwt>
</event>
<event>
 7    0  0.4784406E-002  0.4553005E+03  0.7546771E-02  0.1026153E+00
         21   -1    0    0  502  501  0.00000000000E+00  0.00000000000E+00  0.48422724997E+03  0.48422724997E+03  0.00000000000E+00 0.  1.
         21   -1    0    0  501  502 -0.00000000000E+00 -0.00000000000E+00 -0.10702542980E+03  0.10702542980E+03  0.00000000000E+00 0.  1.
      99926    2    1    2    0    0  0.00000000000E+00  0.00000000000E+00  0.37720182018E+03  0.59125267977E+03  0.45530047023E+03 0.  0.
      99925    2    3    3    0    0  0.72348430157E+02  0.39319534475E+02  0.13597477929E+03  0.30731903525E+03  0.26301240975E+03 0.  0.
         25    1    3    3    0    0 -0.72348430157E+02 -0.39319534475E+02  0.24122704088E+03  0.28393364452E+03  0.12509000000E+03 0.  0.
         25    1    4    4    0    0  0.57130928305E+02  0.44259588650E+02  0.10158023897E+03  0.17660381424E+03  0.12509000000E+03 0.  0.
         25    1    4    4    0    0  0.15217501852E+02 -0.49400541743E+01  0.34394540323E+02  0.13071522100E+03  0.12509000000E+03 0.  0.
<mgrwt>
<rscale>  2 0.45530047E+03</rscale>
<asrwt>0</asrwt>
<pdfrwt beam="1">  1       21 0.71209889E-01 0.45530047E+03</pdfrwt>
<pdfrwt beam="2">  1       21 0.15739034E-01 0.45530047E+03</pdfrwt>
<totfact> 0.59079522E+04</totfact>
</mgrwt>
</event>
<event>
 7    0  0.4784406E-002  0.4553178E+03  0.7546771E-02  0.1026148E+00
         21   -1    0    0  502  501  0.00000000000E+00  0.00000000000E+00  0.59045411391E+03  0.59045411391E+03  0.00000000000E+00 0. -1.
         21   -1    0    0  501  502 -0.00000000000E+00 -0.00000000000E+00 -0.87777488153E+02  0.87777488153E+02  0.00000000000E+00 0. -1.
      99926    2    1    2    0    0  0.00000000000E+00 -0.13322676296E-14  0.50267662575E+03  0.67823160206E+03  0.45531781862E+03 0.  0.
      99925    2    3    3    0    0  0.11387566202E+03 -0.18307825042E+01  0.31843265386E+03  0.42810290030E+03  0.26249137136E+03 0.  0.
         25    1    3    3    0    0 -0.11387566202E+03  0.18307825042E+01  0.18424397189E+03  0.25012870176E+03  0.12509000000E+03 0.  0.
         25    1    4    4    0    0  0.76543444551E+02 -0.21417316088E+02  0.21130932283E+03  0.25810218586E+03  0.12509000000E+03 0.  0.
         25    1    4    4    0    0  0.37332217467E+02  0.19586533584E+02  0.10712333103E+03  0.17000071444E+03  0.12509000000E+03 0.  0.
<mgrwt>
<rscale>  2 0.45531782E+03</rscale>
<asrwt>0</asrwt>
<pdfrwt beam="1">  1       21 0.86831486E-01 0.45531782E+03</pdfrwt>
<pdfrwt beam="2">  1       21 0.12908454E-01 0.45531782E+03</pdfrwt>
<totfact> 0.53966172E+04</totfact>
</mgrwt>
</event>
<event>
 7    0  0.4784406E-002  0.4541279E+03  0.7546771E-02  0.1026498E+00
         21   -1    0    0  502  501  0.00000000000E+00  0.00000000000E+00  0.80554132311E+03  0.80554132311E+03  0.00000000000E+00 0.  1.
         21   -1    0    0  501  502 -0.00000000000E+00 -0.00000000000E+00 -0.64004220732E+02  0.64004220732E+02  0.00000000000E+00 0.  1.
      99926    2    1    2    0    0  0.00000000000E+00  0.71054273576E-14  0.74153710238E+03  0.86954554385E+03  0.45412793199E+03 0.  0.
      99925    2    3    3    0    0 -0.58471334846E+02 -0.37855731820E+02  0.63566003109E+03  0.69147416558E+03  0.26309863762E+03 0.  0.
         25    1    3    3    0    0  0.58471334846E+02  0.37855731820E+02  0.10587707130E+03  0.17807137826E+03  0.12509000000E+03 0.  0.
         25    1    4    4    0    0 -0.25512461150E+02 -0.29418180253E+02  0.21985363041E+03  0.25592858752E+03  0.12509000000E+03 0.  0.
         25    1    4    4    0    0 -0.32958873697E+02 -0.84375515674E+01  0.41580640067E+03  0.43554557807E+03  0.12509000000E+03 0.  0.
<mgrwt>
<rscale>  2 0.45412793E+03</rscale>
<asrwt>0</asrwt>
<pdfrwt beam="1">  1       21 0.11846195E+00 0.45412793E+03</pdfrwt>
<pdfrwt beam="2">  1       21 0.94123859E-02 0.45412793E+03</pdfrwt>
<totfact> 0.44882451E+04</totfact>
</mgrwt>
</event>
<event>
 7    0  0.4784406E-002  0.4289484E+03  0.7546771E-02  0.1034193E+00
         21   -1    0    0  502  501  0.00000000000E+00  0.00000000000E+00  0.28391152288E+03  0.28391152288E+03  0.00000000000E+00 0. -1.
         21   -1    0    0  501  502 -0.00000000000E+00 -0.00000000000E+00 -0.16201941499E+03  0.16201941499E+03  0.00000000000E+00 0. -1.
      99926    2    1    2    0    0  0.00000000000E+00  0.00000000000E+00  0.12189210789E+03  0.44593093788E+03  0.42894838313E+03 0.  0.
      99925    2    3    3    0    0 -0.30621832423E+02 -0.79916237780E+02  0.65546854066E+02  0.28423184261E+03  0.26299629007E+03 0.  0.
         25    1    4    4    0    0 -0.34912915412E+02 -0.39545290027E+01  0.25050550382E+02  0.13232380034E+03  0.12509000000E+03 0.  0.
         25    1    4    4    0    0  0.42910829894E+01 -0.75961708777E+02  0.40496303683E+02  0.15190804227E+03  0.12509000000E+03 0.  0.
         25    1    3    3    0    0  0.30621832423E+02  0.79916237780E+02  0.56345253824E+02  0.16169909527E+03  0.12509000000E+03 0.  0.
<mgrwt>
<rscale>  2 0.42894838E+03</rscale>
<asrwt>0</asrwt>
<pdfrwt beam="1">  1       21 0.41751695E-01 0.42894838E+03</pdfrwt>
<pdfrwt beam="2">  1       21 0.23826384E-01 0.42894838E+03</pdfrwt>
<totfact> 0.85645348E+04</totfact>
</mgrwt>
</event>
<event>
 7    0  0.4784406E-002  0.4524060E+03  0.7546771E-02  0.1027007E+00
         21   -1    0    0  502  501  0.00000000000E+00  0.00000000000E+00  0.46499989095E+03  0.46499989095E+03  0.00000000000E+00 0.  1.
         21   -1    0    0  501  502 -0.00000000000E+00 -0.00000000000E+00 -0.11003830387E+03  0.11003830387E+03  0.00000000000E+00 0.  1.
      99926    2    1    2    0    0  0.00000000000E+00 -0.35527136788E-14  0.35496158708E+03  0.57503819482E+03  0.45240600924E+03 0.  0.
      99925    2    3    3    0    0 -0.73824643593E+02 -0.20496115194E+02  0.32537378587E+03  0.42539490289E+03  0.26310179424E+03 0.  0.
         25    1    3    3    0    0  0.73824643593E+02  0.20496115194E+02  0.29587801212E+02  0.14964329193E+03  0.12509000000E+03 0.  0.
         25    1    4    4    0    0 -0.43449181623E+02  0.29401945975E+02  0.15087456524E+03  0.20288654058E+03  0.12509000000E+03 0.  0.
         25    1    4    4    0    0 -0.30375461970E+02 -0.49898061169E+02  0.17449922063E+03  0.22250836231E+03  0.12509000000E+03 0.  0.
<mgrwt>
<rscale>  2 0.45240601E+03</rscale>
<asrwt>0</asrwt>
<pdfrwt beam="1">  1       21 0.68382336E-01 0.45240601E+03</pdfrwt>
<pdfrwt beam="2">  1       21 0.16182104E-01 0.45240601E+03</pdfrwt>
<totfact> 0.61493204E+04</totfact>
</mgrwt>
</event>
<event>
 7    0  0.4784406E-002  0.4546906E+03  0.7546771E-02  0.1026332E+00
         21   -1    0    0  502  501  0.00000000000E+00  0.00000000000E+00  0.34302160192E+03  0.34302160192E+03  0.00000000000E+00 0.  1.
         21   -1    0    0  501  502 -0.00000000000E+00 -0.00000000000E+00 -0.15067822080E+03  0.15067822080E+03  0.00000000000E+00 0.  1.
      99926    2    1    2    0    0 -0.71054273576E-14  0.00000000000E+00  0.19234338112E+03  0.49369982272E+03  0.45469059666E+03 0.  0.
      99925    2    3    3    0    0  0.43388047231E+02 -0.10419140283E+03  0.12304595809E+03  0.31152405044E+03  0.26299915424E+03 0.  0.
         25    1    4    4    0    0  0.26682121030E+02 -0.95607580183E+02  0.67146665472E+02  0.17323085105E+03  0.12509000000E+03 0.  0.
         25    1    4    4    0    0  0.16705926201E+02 -0.85838226512E+01  0.55899292622E+02  0.13829319939E+03  0.12509000000E+03 0.  0.
         25    1    3    3    0    0 -0.43388047231E+02  0.10419140283E+03  0.69297423027E+02  0.18217577228E+03  0.12509000000E+03 0.  0.
<mgrwt>
<rscale>  2 0.45469060E+03</rscale>
<asrwt>0</asrwt>
<pdfrwt beam="1">  1       21 0.50444353E-01 0.45469060E+03</pdfrwt>
<pdfrwt beam="2">  1       21 0.22158562E-01 0.45469060E+03</pdfrwt>
<totfact> 0.65877228E+04</totfact>
</mgrwt>
</event>
<event>
 7    0  0.4784406E-002  0.4566872E+03  0.7546771E-02  0.1025746E+00
         21   -1    0    0  502  501  0.00000000000E+00  0.00000000000E+00  0.13079515999E+03  0.13079515999E+03  0.00000000000E+00 0. -1.
         21   -1    0    0  501  502 -0.00000000000E+00 -0.00000000000E+00 -0.39864466951E+03  0.39864466951E+03  0.00000000000E+00 0. -1.
      99926    2    1    2    0    0 -0.35527136788E-14  0.14210854715E-13 -0.26784950951E+03  0.52943982950E+03  0.45668717227E+03 0.  0.
      99925    2    3    3    0    0  0.19706384573E+02 -0.10804532782E+03 -0.12982270013E+03  0.31319681189E+03  0.26301364043E+03 0.  0.
         25    1    4    4    0    0  0.11362785686E+02 -0.69373696226E+02 -0.25857733326E+02  0.14580107373E+03  0.12509000000E+03 0.  0.
         25    1    4    4    0    0  0.83435988872E+01 -0.38671631598E+02 -0.10396496681E+03  0.16739573816E+03  0.12509000000E+03 0.  0.
         25    1    3    3    0    0 -0.19706384573E+02  0.10804532782E+03 -0.13802680938E+03  0.21624301761E+03  0.12509000000E+03 0.  0.
<mgrwt>
<rscale>  2 0.45668717E+03</rscale>
<asrwt>0</asrwt>
<pdfrwt beam="1">  1       21 0.19234582E-01 0.45668717E+03</pdfrwt>
<pdfrwt beam="2">  1       21 0.58624216E-01 0.45668717E+03</pdfrwt>
<totfact> 0.62405727E+04</totfact>
</mgrwt>
</event>
<event>
 7    0  0.4784406E-002  0.4753518E+03  0.7546771E-02  0.1020420E+00
         21   -1    0    0  502  501  0.00000000000E+00  0.00000000000E+00  0.21565154858E+03  0.21565154858E+03  0.00000000000E+00 0. -1.
         21   -1    0    0  501  502 -0.00000000000E+00 -0.00000000000E+00 -0.26194957451E+03  0.26194957451E+03  0.00000000000E+00 0. -1.
      99926    2    1    2    0    0  0.00000000000E+00  0.00000000000E+00 -0.46298025932E+02  0.47760112309E+03  0.47535179138E+03 0.  0.
      99925    2    3    3    0    0  0.12135822698E+03 -0.45315874598E+02 -0.57640433020E+01  0.29301548011E+03  0.26276129784E+03 0.  0.
         25    1    3    3    0    0 -0.12135822698E+03  0.45315874598E+02 -0.40533982630E+02  0.18458564298E+03  0.12509000000E+03 0.  0.
         25    1    4    4    0    0  0.46658501641E+02 -0.15081149393E+02  0.34787267821E+02  0.13878803603E+03  0.12509000000E+03 0.  0.
         25    1    4    4    0    0  0.74699725338E+02 -0.30234725205E+02 -0.40551311123E+02  0.15422744408E+03  0.12509000000E+03 0.  0.
<mgrwt>
<rscale>  2 0.47535179E+03</rscale>
<asrwt>0</asrwt>
<pdfrwt beam="1">  1       21 0.31713463E-01 0.47535179E+03</pdfrwt>
<pdfrwt beam="2">  1       21 0.38521996E-01 0.47535179E+03</pdfrwt>
<totfact> 0.57074616E+04</totfact>
</mgrwt>
</event>
<event>
 7    0  0.4784406E-002  0.4426250E+03  0.7546771E-02  0.1029944E+00
         21   -1    0    0  502  501  0.00000000000E+00  0.00000000000E+00  0.25981184953E+03  0.25981184953E+03  0.00000000000E+00 0.  1.
         21   -1    0    0  501  502 -0.00000000000E+00 -0.00000000000E+00 -0.18851805569E+03  0.18851805569E+03  0.00000000000E+00 0.  1.
      99926    2    1    2    0    0  0.00000000000E+00 -0.14210854715E-13  0.71293793845E+02  0.44832990522E+03  0.44262500931E+03 0.  0.
      99925    2    3    3    0    0 -0.41187159633E+02 -0.90824591775E+02  0.28112812444E+02  0.28262657440E+03  0.26294859144E+03 0.  0.
         25    1    4    4    0    0 -0.37130358833E+02 -0.72275677542E+01  0.10896985301E+02  0.13113791851E+03  0.12509000000E+03 0.  0.
         25    1    3    3    0    0  0.41187159633E+02  0.90824591775E+02  0.43180981401E+02  0.16570333082E+03  0.12509000000E+03 0.  0.
         25    1    4    4    0    0 -0.40568008004E+01 -0.83597024021E+02  0.17215827143E+02  0.15148865589E+03  0.12509000000E+03 0.  0.
<mgrwt>
<rscale>  2 0.44262501E+03</rscale>
<asrwt>0</asrwt>
<pdfrwt beam="1">  1       21 0.38207625E-01 0.44262501E+03</pdfrwt>
<pdfrwt beam="2">  1       21 0.27723243E-01 0.44262501E+03</pdfrwt>
<totfact> 0.76295209E+04</totfact>
</mgrwt>
</event>
<event>
 7    0  0.4784406E-002  0.4582467E+03  0.7546771E-02  0.1025291E+00
         21   -1    0    0  502  501  0.00000000000E+00  0.00000000000E+00  0.37779785235E+02  0.37779785235E+02  0.00000000000E+00 0.  1.
         21   -1    0    0  501  502 -0.00000000000E+00 -0.00000000000E+00 -0.13895659854E+04  0.13895659854E+04  0.00000000000E+00 0.  1.
      99926    2    1    2    0    0  0.00000000000E+00 -0.17763568394E-14 -0.13517862001E+04  0.14273457706E+04  0.45824667809E+03 0.  0.
      99925    2    3    3    0    0  0.19471821073E+02 -0.15015085524E+02 -0.49498255109E+03  0.56110988718E+03  0.26311969710E+03 0.  0.
         25    1    3    3    0    0 -0.19471821073E+02  0.15015085524E+02 -0.85680364903E+03  0.86623588340E+03  0.12509000000E+03 0.  0.
         25    1    4    4    0    0  0.49472063387E+02 -0.88151361883E+01 -0.23310299335E+03  0.26927626203E+03  0.12509000000E+03 0.  0.
         25    1    4    4    0    0 -0.30000242314E+02 -0.61999493353E+01 -0.26187955774E+03  0.29183362516E+03  0.12509000000E+03 0.  0.
<mgrwt>
<rscale>  2 0.45824668E+03</rscale>
<asrwt>0</asrwt>
<pdfrwt beam="1">  1       21 0.55558528E-02 0.45824668E+03</pdfrwt>
<pdfrwt beam="2">  1       21 0.20434787E+00 0.45824668E+03</pdfrwt>
<totfact> 0.24976289E+04</totfact>
</mgrwt>
</event>
<event>
 7    0  0.4784406E-002  0.4513804E+03  0.7546771E-02  0.1027311E+00
         21   -1    0    0  502  501  0.00000000000E+00  0.00000000000E+00  0.12684938548E+03  0.12684938548E+03  0.00000000000E+00 0.  1.
         21   -1    0    0  501  502 -0.00000000000E+00 -0.00000000000E+00 -0.40154764373E+03  0.40154764373E+03  0.00000000000E+00 0.  1.
      99926    2    1    2    0    0  0.00000000000E+00  0.00000000000E+00 -0.27469825826E+03  0.52839702921E+03  0.45138042424E+03 0.  0.
      99925    2    3    3    0    0 -0.71230035147E+02  0.82877081141E+02 -0.16089821476E+03  0.32705084354E+03  0.26292905937E+03 0.  0.
         25    1    4    4    0    0 -0.83697244460E+01  0.45872751691E+02 -0.11186139980E+03  0.17416900557E+03  0.12509000000E+03 0.  0.
         25    1    3    3    0    0  0.71230035147E+02 -0.82877081141E+02 -0.11380004349E+03  0.20134618567E+03  0.12509000000E+03 0.  0.
         25    1    4    4    0    0 -0.62860310701E+02  0.37004329450E+02 -0.49036814961E+02  0.15288183797E+03  0.12509000000E+03 0.  0.
<mgrwt>
<rscale>  2 0.45138042E+03</rscale>
<asrwt>0</asrwt>
<pdfrwt beam="1">  1       21 0.18654321E-01 0.45138042E+03</pdfrwt>
<pdfrwt beam="2">  1       21 0.59051125E-01 0.45138042E+03</pdfrwt>
<totfact> 0.65164214E+04</totfact>
</mgrwt>
</event>
<event>
 7    0  0.4784406E-002  0.4523963E+03  0.7546771E-02  0.1027010E+00
         21   -1    0    0  502  501  0.00000000000E+00  0.00000000000E+00  0.53782931464E+03  0.53782931464E+03  0.00000000000E+00 0. -1.
         21   -1    0    0  501  502 -0.00000000000E+00 -0.00000000000E+00 -0.95133542053E+02  0.95133542053E+02  0.00000000000E+00 0. -1.
      99926    2    1    2    0    0  0.00000000000E+00 -0.71054273576E-14  0.44269577259E+03  0.63296285669E+03  0.45239632059E+03 0.  0.
      99925    2    3    3    0    0 -0.58937172745E+02  0.50833242748E+02  0.38952148120E+03  0.47633392493E+03  0.26288669580E+03 0.  0.
         25    1    4    4    0    0  0.38986047847E+00  0.47238873231E+02  0.21981830166E+03  0.25729216269E+03  0.12509000000E+03 0.  0.
         25    1    4    4    0    0 -0.59327033224E+02  0.35943695172E+01  0.16970317954E+03  0.21904176225E+03  0.12509000000E+03 0.  0.
         25    1    3    3    0    0  0.58937172745E+02 -0.50833242748E+02  0.53174291390E+02  0.15662893176E+03  0.12509000000E+03 0.  0.
<mgrwt>
<rscale>  2 0.45239632E+03</rscale>
<asrwt>0</asrwt>
<pdfrwt beam="1">  1       21 0.79092545E-01 0.45239632E+03</pdfrwt>
<pdfrwt beam="2">  1       21 0.13990227E-01 0.45239632E+03</pdfrwt>
<totfact> 0.57874080E+04</totfact>
</mgrwt>
</event>
<event>
 7    0  0.4784406E-002  0.4622849E+03  0.7546771E-02  0.1024121E+00
         21   -1    0    0  502  501  0.00000000000E+00  0.00000000000E+00  0.30150249527E+03  0.30150249527E+03  0.00000000000E+00 0.  1.
         21   -1    0    0  501  502 -0.00000000000E+00 -0.00000000000E+00 -0.17720194159E+03  0.17720194159E+03  0.00000000000E+00 0.  1.
      99926    2    1    2    0    0 -0.17763568394E-14  0.17763568394E-14  0.12430055369E+03  0.47870443686E+03  0.46228487994E+03 0.  0.
      99925    2    3    3    0    0  0.13420121453E+02 -0.14982309285E+02 -0.44611028166E+02  0.26755709533E+03  0.26304388640E+03 0.  0.
         25    1    4    4    0    0 -0.13084070669E+02  0.27570116517E+02 -0.15513633825E+02  0.12968995784E+03  0.12509000000E+03 0.  0.
         25    1    4    4    0    0  0.26504192122E+02 -0.42552425802E+02 -0.29097394341E+02  0.13786713749E+03  0.12509000000E+03 0.  0.
         25    1    3    3    0    0 -0.13420121453E+02  0.14982309285E+02  0.16891158185E+03  0.21114734153E+03  0.12509000000E+03 0.  0.
<mgrwt>
<rscale>  2 0.46228488E+03</rscale>
<asrwt>0</asrwt>
<pdfrwt beam="1">  1       21 0.44338602E-01 0.46228488E+03</pdfrwt>
<pdfrwt beam="2">  1       21 0.26059109E-01 0.46228488E+03</pdfrwt>
<totfact> 0.63068952E+04</totfact>
</mgrwt>
</event>
<event>
 7    0  0.4784406E-002  0.4674457E+03  0.7546771E-02  0.1022644E+00
         21   -1    0    0  502  501  0.00000000000E+00  0.00000000000E+00  0.97865984062E+02  0.97865984062E+02  0.00000000000E+00 0.  1.
         21   -1    0    0  501  502 -0.00000000000E+00 -0.00000000000E+00 -0.55817517260E+03  0.55817517260E+03  0.00000000000E+00 0.  1.
      99926    2    1    2    0    0  0.00000000000E+00  0.00000000000E+00 -0.46030918854E+03  0.65604115666E+03  0.46744566548E+03 0.  0.
      99925    2    3    3    0    0 -0.24214388822E+02 -0.74233009904E+02 -0.15053670421E+03  0.31296189974E+03  0.26303417076E+03 0.  0.
         25    1    4    4    0    0  0.70327041377E+00 -0.22447787002E+02 -0.11353233656E+03  0.17041566030E+03  0.12509000000E+03 0.  0.
         25    1    4    4    0    0 -0.24917659235E+02 -0.51785222902E+02 -0.37004367653E+02  0.14254623944E+03  0.12509000000E+03 0.  0.
         25    1    3    3    0    0  0.24214388822E+02  0.74233009904E+02 -0.30977248433E+03  0.34307925692E+03  0.12509000000E+03 0.  0.
<mgrwt>
<rscale>  2 0.46744567E+03</rscale>
<asrwt>0</asrwt>
<pdfrwt beam="1">  1       21 0.14392057E-01 0.46744567E+03</pdfrwt>
<pdfrwt beam="2">  1       21 0.82084582E-01 0.46744567E+03</pdfrwt>
<totfact> 0.50238026E+04</totfact>
</mgrwt>
</event>
<event>
 7    0  0.4784406E-002  0.4501741E+03  0.7546771E-02  0.1027670E+00
         21   -1    0    0  502  501  0.00000000000E+00  0.00000000000E+00  0.29323402337E+03  0.29323402337E+03  0.00000000000E+00 0. -1.
         21   -1    0    0  501  502 -0.00000000000E+00 -0.00000000000E+00 -0.17277732428E+03  0.17277732428E+03  0.00000000000E+00 0. -1.
      99926    2    1    2    0    0  0.00000000000E+00  0.00000000000E+00  0.12045669909E+03  0.46601134765E+03  0.45017414384E+03 0.  0.
      99925    2    3    3    0    0 -0.10068045543E+03 -0.71807752970E+01  0.11746544906E+03  0.30524887282E+03  0.26304110894E+03 0.  0.
         25    1    4    4    0    0 -0.58985177890E+02 -0.30130020871E+02  0.28067353991E+02  0.14429952816E+03  0.12509000000E+03 0.  0.
         25    1    4    4    0    0 -0.41695277540E+02  0.22949245574E+02  0.89398095071E+02  0.16094934465E+03  0.12509000000E+03 0.  0.
         25    1    3    3    0    0  0.10068045543E+03  0.71807752970E+01  0.29912500332E+01  0.16076247484E+03  0.12509000000E+03 0.  0.
<mgrwt>
<rscale>  2 0.45017414E+03</rscale>
<asrwt>0</asrwt>
<pdfrwt beam="1">  1       21 0.43122650E-01 0.45017414E+03</pdfrwt>
<pdfrwt beam="2">  1       21 0.25408430E-01 0.45017414E+03</pdfrwt>
<totfact> 0.70389922E+04</totfact>
</mgrwt>
</event>
<event>
 7    0  0.4784406E-002  0.4646345E+03  0.7546771E-02  0.1023446E+00
         21   -1    0    0  502  501  0.00000000000E+00  0.00000000000E+00  0.36174352347E+03  0.36174352347E+03  0.00000000000E+00 0.  1.
         21   -1    0    0  501  502 -0.00000000000E+00 -0.00000000000E+00 -0.14919770003E+03  0.14919770003E+03  0.00000000000E+00 0.  1.
      99926    2    1    2    0    0  0.71054273576E-14 -0.14210854715E-13  0.21254582344E+03  0.51094122351E+03  0.46463448733E+03 0.  0.
      99925    2    3    3    0    0  0.58271085268E+02 -0.91509573944E+02  0.19395544088E+03  0.34432000059E+03  0.26299815258E+03 0.  0.
         25    1    3    3    0    0 -0.58271085268E+02  0.91509573944E+02  0.18590382562E+02  0.16662122291E+03  0.12509000000E+03 0.  0.
         25    1    4    4    0    0  0.69315552647E+02 -0.55759460675E+02  0.11423689733E+03  0.19134090024E+03  0.12509000000E+03 0.  0.
         25    1    4    4    0    0 -0.11044467379E+02 -0.35750113270E+02  0.79718543551E+02  0.15297910035E+03  0.12509000000E+03 0.  0.
<mgrwt>
<rscale>  2 0.46463449E+03</rscale>
<asrwt>0</asrwt>
<pdfrwt beam="1">  1       21 0.53197577E-01 0.46463449E+03</pdfrwt>
<pdfrwt beam="2">  1       21 0.21940838E-01 0.46463449E+03</pdfrwt>
<totfact> 0.59802950E+04</totfact>
</mgrwt>
</event>
<event>
 7    0  0.4784406E-002  0.4582434E+03  0.7546771E-02  0.1025292E+00
         21   -1    0    0  502  501  0.00000000000E+00  0.00000000000E+00  0.86908520918E+03  0.86908520918E+03  0.00000000000E+00 0. -1.
         21   -1    0    0  501  502 -0.00000000000E+00 -0.00000000000E+00 -0.60404618481E+02  0.60404618481E+02  0.00000000000E+00 0. -1.
      99926    2    1    2    0    0  0.00000000000E+00  0.00000000000E+00  0.80868059070E+03  0.92948982766E+03  0.45824343089E+03 0.  0.
      99925    2    3    3    0    0  0.70994227517E+02  0.23094775953E+02  0.68792966455E+03  0.74027607741E+03  0.26303592607E+03 0.  0.
         25    1    3    3    0    0 -0.70994227517E+02 -0.23094775953E+02  0.12075092615E+03  0.18921375025E+03  0.12509000000E+03 0.  0.
         25    1    4    4    0    0  0.63176226660E+02  0.19490559566E+02  0.44413999537E+03  0.46613191385E+03  0.12509000000E+03 0.  0.
         25    1    4    4    0    0  0.78180008578E+01  0.36042163869E+01  0.24378966919E+03  0.27414416356E+03  0.12509000000E+03 0.  0.
<mgrwt>
<rscale>  2 0.45824343E+03</rscale>
<asrwt>0</asrwt>
<pdfrwt beam="1">  1       21 0.12780664E+00 0.45824343E+03</pdfrwt>
<pdfrwt beam="2">  1       21 0.88830327E-02 0.45824343E+03</pdfrwt>
<totfact> 0.40934340E+04</totfact>
</mgrwt>
</event>
<event>
 7    0  0.4784406E-002  0.4529179E+03  0.7546771E-02  0.1026855E+00
         21   -1    0    0  502  501  0.00000000000E+00  0.00000000000E+00  0.58660780963E+03  0.58660780963E+03  0.00000000000E+00 0. -1.
         21   -1    0    0  501  502 -0.00000000000E+00 -0.00000000000E+00 -0.87424088567E+02  0.87424088567E+02  0.00000000000E+00 0. -1.
      99926    2    1    2    0    0  0.17763568394E-14  0.00000000000E+00  0.49918372107E+03  0.67403189820E+03  0.45291788706E+03 0.  0.
      99925    2    3    3    0    0 -0.15742007981E+02  0.10872313170E+03  0.28908050636E+03  0.40596586322E+03  0.26300610784E+03 0.  0.
         25    1    4    4    0    0 -0.15568696780E+02  0.40459488285E+02  0.85981464164E+02  0.15785966803E+03  0.12509000000E+03 0.  0.
         25    1    4    4    0    0 -0.17331120128E+00  0.68263643412E+02  0.20309904220E+03  0.24810619519E+03  0.12509000000E+03 0.  0.
         25    1    3    3    0    0  0.15742007981E+02 -0.10872313170E+03  0.21010321471E+03  0.26806603498E+03  0.12509000000E+03 0.  0.
<mgrwt>
<rscale>  2 0.45291789E+03</rscale>
<asrwt>0</asrwt>
<pdfrwt beam="1">  1       21 0.86265853E-01 0.45291789E+03</pdfrwt>
<pdfrwt beam="2">  1       21 0.12856484E-01 0.45291789E+03</pdfrwt>
<totfact> 0.55236608E+04</totfact>
</mgrwt>
</event>
<event>
 7    0  0.4784406E-002  0.4547499E+03  0.7546771E-02  0.1026315E+00
         21   -1    0    0  502  501  0.00000000000E+00  0.00000000000E+00  0.15586200706E+03  0.15586200706E+03  0.00000000000E+00 0.  1.
         21   -1    0    0  501  502 -0.00000000000E+00 -0.00000000000E+00 -0.33169968207E+03  0.33169968207E+03  0.00000000000E+00 0.  1.
      99926    2    1    2    0    0  0.00000000000E+00  0.71054273576E-14 -0.17583767501E+03  0.48756168912E+03  0.45474994530E+03 0.  0.
      99925    2    3    3    0    0  0.10748669489E+03 -0.34019190854E+02 -0.11545359163E+03  0.30866383964E+03  0.26312190931E+03 0.  0.
         25    1    4    4    0    0  0.29805916155E+02  0.15973176878E+02 -0.66435369194E+02  0.14561834156E+03  0.12509000000E+03 0.  0.
         25    1    3    3    0    0 -0.10748669489E+03  0.34019190854E+02 -0.60384083372E+02  0.17889784948E+03  0.12509000000E+03 0.  0.
         25    1    4    4    0    0  0.77680778731E+02 -0.49992367732E+02 -0.49018222440E+02  0.16304549809E+03  0.12509000000E+03 0.  0.
<mgrwt>
<rscale>  2 0.45474995E+03</rscale>
<asrwt>0</asrwt>
<pdfrwt beam="1">  1       21 0.22920884E-01 0.45474995E+03</pdfrwt>
<pdfrwt beam="2">  1       21 0.48779365E-01 0.45474995E+03</pdfrwt>
<totfact> 0.66285134E+04</totfact>
</mgrwt>
</event>
<event>
 7    0  0.4784406E-002  0.4213052E+03  0.7546771E-02  0.1036642E+00
         21   -1    0    0  502  501  0.00000000000E+00  0.00000000000E+00  0.36860827288E+03  0.36860827288E+03  0.00000000000E+00 0.  1.
         21   -1    0    0  501  502 -0.00000000000E+00 -0.00000000000E+00 -0.12038396216E+03  0.12038396216E+03  0.00000000000E+00 0.  1.
      99926    2    1    2    0    0  0.17763568394E-14  0.17763568394E-14  0.24822431073E+03  0.48899223504E+03  0.42130523079E+03 0.  0.
      99925    2    3    3    0    0  0.11799476005E+02  0.11130654372E+02  0.73631729416E+02  0.27360143521E+03  0.26300759433E+03 0.  0.
         25    1    3    3    0    0 -0.11799476005E+02 -0.11130654372E+02  0.17459258131E+03  0.21539079983E+03  0.12509000000E+03 0.  0.
         25    1    4    4    0    0  0.17272644692E+01 -0.32027987477E+02  0.51658210785E+02  0.13908578024E+03  0.12509000000E+03 0.  0.
         25    1    4    4    0    0  0.10072211536E+02  0.43158641849E+02  0.21973518631E+02  0.13451565497E+03  0.12509000000E+03 0.  0.
<mgrwt>
<rscale>  2 0.42130523E+03</rscale>
<asrwt>0</asrwt>
<pdfrwt beam="1">  1       21 0.54207099E-01 0.42130523E+03</pdfrwt>
<pdfrwt beam="2">  1       21 0.17703524E-01 0.42130523E+03</pdfrwt>
<totfact> 0.87111892E+04</totfact>
</mgrwt>
</event>
<event>
 7    0  0.4784406E-002  0.4508705E+03  0.7546771E-02  0.1027463E+00
         21   -1    0    0  502  501  0.00000000000E+00  0.00000000000E+00  0.23853999635E+03  0.23853999635E+03  0.00000000000E+00 0. -1.
         21   -1    0    0  501  502 -0.00000000000E+00 -0.00000000000E+00 -0.21305043645E+03  0.21305043645E+03  0.00000000000E+00 0. -1.
      99926    2    1    2    0    0  0.71054273576E-14  0.00000000000E+00  0.25489559908E+02  0.45159043280E+03  0.45087049286E+03 0.  0.
      99925    2    3    3    0    0 -0.49522919965E+02  0.35541310952E+02  0.10696928465E+03  0.29033858620E+03  0.26294174715E+03 0.  0.
         25    1    4    4    0    0 -0.38019367364E+02 -0.85884434166E+01  0.23271403217E+02  0.13307253647E+03  0.12509000000E+03 0.  0.
         25    1    3    3    0    0  0.49522919965E+02 -0.35541310952E+02 -0.81479724740E+02  0.16125184659E+03  0.12509000000E+03 0.  0.
         25    1    4    4    0    0 -0.11503552601E+02  0.44129754369E+02  0.83697881431E+02  0.15726604973E+03  0.12509000000E+03 0.  0.
<mgrwt>
<rscale>  2 0.45087049E+03</rscale>
<asrwt>0</asrwt>
<pdfrwt beam="1">  1       21 0.35079411E-01 0.45087049E+03</pdfrwt>
<pdfrwt beam="2">  1       21 0.31330946E-01 0.45087049E+03</pdfrwt>
<totfact> 0.71110605E+04</totfact>
</mgrwt>
</event>
<event>
 7    0  0.4784406E-002  0.4575592E+03  0.7546771E-02  0.1025492E+00
         21   -1    0    0  502  501  0.00000000000E+00  0.00000000000E+00  0.45256824210E+02  0.45256824210E+02  0.00000000000E+00 0. -1.
         21   -1    0    0  501  502 -0.00000000000E+00 -0.00000000000E+00 -0.11565128565E+04  0.11565128565E+04  0.00000000000E+00 0. -1.
      99926    2    1    2    0    0  0.00000000000E+00  0.00000000000E+00 -0.11112560323E+04  0.12017696807E+04  0.45755917231E+03 0.  0.
      99925    2    3    3    0    0  0.86045775199E+02  0.15460233488E+02 -0.89564740212E+03  0.93761540050E+03  0.26324033899E+03 0.  0.
         25    1    4    4    0    0  0.81894886692E+02 -0.92400663224E+01 -0.48062105132E+03  0.50342452698E+03  0.12509000000E+03 0.  0.
         25    1    4    4    0    0  0.41508885070E+01  0.24700299810E+02 -0.41502635081E+03  0.43419087352E+03  0.12509000000E+03 0.  0.
         25    1    3    3    0    0 -0.86045775199E+02 -0.15460233488E+02 -0.21560863013E+03  0.26415428018E+03  0.12509000000E+03 0.  0.
<mgrwt>
<rscale>  2 0.45755917E+03</rscale>
<asrwt>0</asrwt>
<pdfrwt beam="1">  1       21 0.66554155E-02 0.45755917E+03</pdfrwt>
<pdfrwt beam="2">  1       21 0.17007542E+00 0.45755917E+03</pdfrwt>
<totfact> 0.31467885E+04</totfact>
</mgrwt>
</event>
<event>
 7    0  0.4784406E-002  0.4528440E+03  0.7546771E-02  0.1026877E+00
         21   -1    0    0  502  501  0.00000000000E+00  0.00000000000E+00  0.23283979564E+03  0.23283979564E+03  0.00000000000E+00 0.  1.
         21   -1    0    0  501  502 -0.00000000000E+00 -0.00000000000E+00 -0.22018106977E+03  0.22018106977E+03  0.00000000000E+00 0.  1.
      99926    2    1    2    0    0  0.00000000000E+00  0.00000000000E+00  0.12658725863E+02  0.45302086541E+03  0.45284396999E+03 0.  0.
      99925    2    3    3    0    0  0.10963856431E+02  0.69477887000E+02 -0.78109953962E+02  0.28321555257E+03  0.26298764492E+03 0.  0.
         25    1    4    4    0    0  0.89801561405E+01  0.39952933815E+01 -0.65241645509E+02  0.14142342798E+03  0.12509000000E+03 0.  0.
         25    1    3    3    0    0 -0.10963856431E+02 -0.69477887000E+02  0.90768679825E+02  0.16980531283E+03  0.12509000000E+03 0.  0.
         25    1    4    4    0    0  0.19837002907E+01  0.65482593619E+02 -0.12868308453E+02  0.14179212459E+03  0.12509000000E+03 0.  0.
<mgrwt>
<rscale>  2 0.45284397E+03</rscale>
<asrwt>0</asrwt>
<pdfrwt beam="1">  1       21 0.34241146E-01 0.45284397E+03</pdfrwt>
<pdfrwt beam="2">  1       21 0.32379569E-01 0.45284397E+03</pdfrwt>
<totfact> 0.69885547E+04</totfact>
</mgrwt>
</event>
<event>
 7    0  0.4784406E-002  0.4523295E+03  0.7546771E-02  0.1027030E+00
         21   -1    0    0  502  501  0.00000000000E+00  0.00000000000E+00  0.24018144254E+03  0.24018144254E+03  0.00000000000E+00 0. -1.
         21   -1    0    0  501  502 -0.00000000000E+00 -0.00000000000E+00 -0.21296602795E+03  0.21296602795E+03  0.00000000000E+00 0. -1.
      99926    2    1    2    0    0  0.00000000000E+00  0.00000000000E+00  0.27215414594E+02  0.45314747049E+03  0.45232947198E+03 0.  0.
      99925    2    3    3    0    0  0.57346128169E+02  0.30001107682E+02 -0.72659427401E+02  0.28048845091E+03  0.26306982690E+03 0.  0.
         25    1    4    4    0    0 -0.78721544590E+01  0.33551111004E+02 -0.32160587075E+02  0.13367669702E+03  0.12509000000E+03 0.  0.
         25    1    4    4    0    0  0.65218282628E+02 -0.35500033223E+01 -0.40498840326E+02  0.14681175389E+03  0.12509000000E+03 0.  0.
         25    1    3    3    0    0 -0.57346128169E+02 -0.30001107682E+02  0.99874841995E+02  0.17265901958E+03  0.12509000000E+03 0.  0.
<mgrwt>
<rscale>  2 0.45232947E+03</rscale>
<asrwt>0</asrwt>
<pdfrwt beam="1">  1       21 0.35320800E-01 0.45232947E+03</pdfrwt>
<pdfrwt beam="2">  1       21 0.31318533E-01 0.45232947E+03</pdfrwt>
<totfact> 0.70164928E+04</totfact>
</mgrwt>
</event>
<event>
 7    0  0.4784406E-002  0.4775812E+03  0.7546771E-02  0.1019802E+00
         21   -1    0    0  502  501  0.00000000000E+00  0.00000000000E+00  0.35453340499E+03  0.35453340499E+03  0.00000000000E+00 0. -1.
         21   -1    0    0  501  502 -0.00000000000E+00 -0.00000000000E+00 -0.16083378259E+03  0.16083378259E+03  0.00000000000E+00 0. -1.
      99926    2    1    2    0    0  0.71054273576E-14  0.00000000000E+00  0.19369962240E+03  0.51536718757E+03  0.47758119133E+03 0.  0.
      99925    2    3    3    0    0  0.34691918805E+02  0.10418696369E+03  0.20093871387E+03  0.34875876888E+03  0.26305486025E+03 0.  0.
         25    1    3    3    0    0 -0.34691918805E+02 -0.10418696369E+03 -0.72390914689E+01  0.16660841869E+03  0.12509000000E+03 0.  0.
         25    1    4    4    0    0 -0.33921274513E+01  0.39731827214E+02  0.13642643412E+03  0.18934044642E+03  0.12509000000E+03 0.  0.
         25    1    4    4    0    0  0.38084046256E+02  0.64455136480E+02  0.64512279749E+02  0.15941832246E+03  0.12509000000E+03 0.  0.
<mgrwt>
<rscale>  2 0.47758119E+03</rscale>
<asrwt>0</asrwt>
<pdfrwt beam="1">  1       21 0.52137265E-01 0.47758119E+03</pdfrwt>
<pdfrwt beam="2">  1       21 0.23652027E-01 0.47758119E+03</pdfrwt>
<totfact> 0.53879519E+04</totfact>
</mgrwt>
</event>
<event>
 7    0  0.4784406E-002  0.4585959E+03  0.7546771E-02  0.1025189E+00
         21   -1    0    0  502  501  0.00000000000E+00  0.00000000000E+00  0.26512072495E+03  0.26512072495E+03  0.00000000000E+00 0. -1.
         21   -1    0    0  501  502 -0.00000000000E+00 -0.00000000000E+00 -0.19831547594E+03  0.19831547594E+03  0.00000000000E+00 0. -1.
      99926    2    1    2    0    0  0.00000000000E+00  0.00000000000E+00  0.66805249006E+02  0.46343620089E+03  0.45859586893E+03 0.  0.
      99925    2    3    3    0    0 -0.11562214311E+03  0.10944631347E+02  0.33457458236E+02  0.28951711574E+03  0.26308267495E+03 0.  0.
         25    1    4    4    0    0 -0.13630831530E+02  0.47994649005E+01  0.19127654078E+02  0.12736643860E+03  0.12509000000E+03 0.  0.
         25    1    3    3    0    0  0.11562214311E+03 -0.10944631347E+02  0.33347790771E+02  0.17391908516E+03  0.12509000000E+03 0.  0.
         25    1    4    4    0    0 -0.10199131158E+03  0.61451664464E+01  0.14329804158E+02  0.16215067714E+03  0.12509000000E+03 0.  0.
<mgrwt>
<rscale>  2 0.45859587E+03</rscale>
<asrwt>0</asrwt>
<pdfrwt beam="1">  1       21 0.38988342E-01 0.45859587E+03</pdfrwt>
<pdfrwt beam="2">  1       21 0.29164041E-01 0.45859587E+03</pdfrwt>
<totfact> 0.66017353E+04</totfact>
</mgrwt>
</event>
<event>
 7    0  0.4784406E-002  0.4440597E+03  0.7546771E-02  0.1029508E+00
         21   -1    0    0  502  501  0.00000000000E+00  0.00000000000E+00  0.96248627445E+02  0.96248627445E+02  0.00000000000E+00 0.  1.
         21   -1    0    0  501  502 -0.00000000000E+00 -0.00000000000E+00 -0.51218661211E+03  0.51218661211E+03  0.00000000000E+00 0.  1.
      99926    2    1    2    0    0  0.35527136788E-14 -0.14210854715E-13 -0.41593798466E+03  0.60843523955E+03  0.44405971856E+03 0.  0.
      99925    2    3    3    0    0  0.26248055413E+02 -0.97091498817E+02 -0.29216757598E+03  0.40574744584E+03  0.26297029831E+03 0.  0.
         25    1    4    4    0    0  0.13475170920E+02 -0.67698458658E+01 -0.11660691106E+03  0.17167437447E+03  0.12509000000E+03 0.  0.
         25    1    3    3    0    0 -0.26248055413E+02  0.97091498817E+02 -0.12377040868E+03  0.20268779371E+03  0.12509000000E+03 0.  0.
         25    1    4    4    0    0  0.12772884492E+02 -0.90321652951E+02 -0.17556066492E+03  0.23407307136E+03  0.12509000000E+03 0.  0.
<mgrwt>
<rscale>  2 0.44405972E+03</rscale>
<asrwt>0</asrwt>
<pdfrwt beam="1">  1       21 0.14154210E-01 0.44405972E+03</pdfrwt>
<pdfrwt beam="2">  1       21 0.75321559E-01 0.44405972E+03</pdfrwt>
<totfact> 0.63471698E+04</totfact>
</mgrwt>
</event>
<event>
 7    0  0.4784406E-002  0.4268167E+03  0.7546771E-02  0.1034870E+00
         21   -1    0    0  502  501  0.00000000000E+00  0.00000000000E+00  0.12076134175E+04  0.12076134175E+04  0.00000000000E+00 0.  1.
         21   -1    0    0  501  502 -0.00000000000E+00 -0.00000000000E+00 -0.37713338120E+02  0.37713338120E+02  0.00000000000E+00 0.  1.
      99926    2    1    2    0    0  0.71054273576E-14  0.29976021665E-14  0.11699000793E+04  0.12453267556E+04  0.42681674349E+03 0.  0.
      99925    2    3    3    0    0  0.58821075861E+02  0.68271315886E+00  0.92982346256E+03  0.96829846265E+03  0.26376098302E+03 0.  0.
         25    1    4    4    0    0  0.28626429611E+02 -0.29169763504E+02  0.35816990032E+03  0.38158031025E+03  0.12509000000E+03 0.  0.
         25    1    3    3    0    0 -0.58821075861E+02 -0.68271315886E+00  0.24007661677E+03  0.27702829293E+03  0.12509000000E+03 0.  0.
         25    1    4    4    0    0  0.30194646250E+02  0.29852476662E+02  0.57165356224E+03  0.58671815240E+03  0.12509000000E+03 0.  0.
<mgrwt>
<rscale>  2 0.42681674E+03</rscale>
<asrwt>0</asrwt>
<pdfrwt beam="1">  1       21 0.17759018E+00 0.42681674E+03</pdfrwt>
<pdfrwt beam="2">  1       21 0.55460799E-02 0.42681674E+03</pdfrwt>
<totfact> 0.38525890E+04</totfact>
</mgrwt>
</event>
<event>
 7    0  0.4784406E-002  0.4514238E+03  0.7546771E-02  0.1027298E+00
         21   -1    0    0  502  501  0.00000000000E+00  0.00000000000E+00  0.88153244869E+03  0.88153244869E+03  0.00000000000E+00 0. -1.
         21   -1    0    0  501  502 -0.00000000000E+00 -0.00000000000E+00 -0.57792387734E+02  0.57792387734E+02  0.00000000000E+00 0. -1.
      99926    2    1    2    0    0  0.00000000000E+00  0.00000000000E+00  0.82374006095E+03  0.93932483642E+03  0.45142381450E+03 0.  0.
      99925    2    3    3    0    0  0.70092319363E+02  0.95852741443E+01  0.34517672286E+03  0.43964975462E+03  0.26294510076E+03 0.  0.
         25    1    4    4    0    0  0.39780659698E+02  0.63979540645E+01  0.10933564540E+03  0.17095387143E+03  0.12509000000E+03 0.  0.
         25    1    3    3    0    0 -0.70092319363E+02 -0.95852741443E+01  0.47856333809E+03  0.49967508180E+03  0.12509000000E+03 0.  0.
         25    1    4    4    0    0  0.30311659664E+02  0.31873200798E+01  0.23584107747E+03  0.26869588319E+03  0.12509000000E+03 0.  0.
<mgrwt>
<rscale>  2 0.45142381E+03</rscale>
<asrwt>0</asrwt>
<pdfrwt beam="1">  1       21 0.12963712E+00 0.45142381E+03</pdfrwt>
<pdfrwt beam="2">  1       21 0.84988811E-02 0.45142381E+03</pdfrwt>
<totfact> 0.42759556E+04</totfact>
</mgrwt>
</event>
<event>
 7    0  0.4784406E-002  0.4516435E+03  0.7546771E-02  0.1027233E+00
         21   -1    0    0  502  501  0.00000000000E+00  0.00000000000E+00  0.26653240445E+03  0.26653240445E+03  0.00000000000E+00 0. -1.
         21   -1    0    0  501  502 -0.00000000000E+00 -0.00000000000E+00 -0.19132932555E+03  0.19132932555E+03  0.00000000000E+00 0. -1.
      99926    2    1    2    0    0 -0.71054273576E-14  0.00000000000E+00  0.75203078898E+02  0.45786173000E+03  0.45164351067E+03 0.  0.
      99925    2    3    3    0    0 -0.49375034691E+02 -0.88260552982E+02  0.35984292596E+01  0.28178631090E+03  0.26298813101E+03 0.  0.
         25    1    3    3    0    0  0.49375034691E+02  0.88260552982E+02  0.71604649638E+02  0.17607541911E+03  0.12509000000E+03 0.  0.
         25    1    4    4    0    0 -0.61543482371E+02 -0.34980988722E+02  0.16475567516E+02  0.14467281092E+03  0.12509000000E+03 0.  0.
         25    1    4    4    0    0  0.12168447681E+02 -0.53279564260E+02 -0.12877138257E+02  0.13711349998E+03  0.12509000000E+03 0.  0.
<mgrwt>
<rscale>  2 0.45164351E+03</rscale>
<asrwt>0</asrwt>
<pdfrwt beam="1">  1       21 0.39195942E-01 0.45164351E+03</pdfrwt>
<pdfrwt beam="2">  1       21 0.28136665E-01 0.45164351E+03</pdfrwt>
<totfact> 0.70196768E+04</totfact>
</mgrwt>
</event>
<event>
 7    0  0.4784406E-002  0.4499759E+03  0.7546771E-02  0.1027729E+00
         21   -1    0    0  502  501  0.00000000000E+00  0.00000000000E+00  0.38389888439E+02  0.38389888439E+02  0.00000000000E+00 0. -1.
         21   -1    0    0  501  502 -0.00000000000E+00 -0.00000000000E+00 -0.13185651306E+04  0.13185651306E+04  0.00000000000E+00 0. -1.
      99926    2    1    2    0    0 -0.71054273576E-14  0.00000000000E+00 -0.12801752421E+04  0.13569550190E+04  0.44997585830E+03 0.  0.
      99925    2    3    3    0    0 -0.43809652223E+02  0.84938746939E+02 -0.65483586476E+03  0.71210564020E+03  0.26296493430E+03 0.  0.
         25    1    4    4    0    0 -0.60872430757E+02  0.55637873014E+02 -0.33301440788E+03  0.36516726263E+03  0.12509000000E+03 0.  0.
         25    1    4    4    0    0  0.17062778534E+02  0.29300873925E+02 -0.32182145688E+03  0.34693837757E+03  0.12509000000E+03 0.  0.
         25    1    3    3    0    0  0.43809652223E+02 -0.84938746939E+02 -0.62533937739E+03  0.64484937882E+03  0.12509000000E+03 0.  0.
<mgrwt>
<rscale>  2 0.44997586E+03</rscale>
<asrwt>0</asrwt>
<pdfrwt beam="1">  1       21 0.56455724E-02 0.44997586E+03</pdfrwt>
<pdfrwt beam="2">  1       21 0.19390662E+00 0.44997586E+03</pdfrwt>
<totfact> 0.28602816E+04</totfact>
</mgrwt>
</event>
<event>
 7    0  0.4784406E-002  0.4540450E+03  0.7546771E-02  0.1026523E+00
         21   -1    0    0  502  501  0.00000000000E+00  0.00000000000E+00  0.13347926255E+03  0.13347926255E+03  0.00000000000E+00 0. -1.
         21   -1    0    0  501  502 -0.00000000000E+00 -0.00000000000E+00 -0.38612150567E+03  0.38612150567E+03  0.00000000000E+00 0. -1.
      99926    2    1    2    0    0  0.00000000000E+00  0.00000000000E+00 -0.25264224312E+03  0.51960076823E+03  0.45404499263E+03 0.  0.
      99925    2    3    3    0    0 -0.87455935372E+02 -0.68143426209E+02 -0.15390022397E+03  0.32546277191E+03  0.26447810835E+03 0.  0.
         25    1    4    4    0    0 -0.38837894364E+01 -0.30809981509E+02 -0.92952430870E+02  0.15890878291E+03  0.12509000000E+03 0.  0.
         25    1    4    4    0    0 -0.83572145935E+02 -0.37333444701E+02 -0.60947793098E+02  0.16655398900E+03  0.12509000000E+03 0.  0.
         25    1    3    3    0    0  0.87455935372E+02  0.68143426209E+02 -0.98742019149E+02  0.19413799631E+03  0.12509000000E+03 0.  0.
<mgrwt>
<rscale>  2 0.45404499E+03</rscale>
<asrwt>0</asrwt>
<pdfrwt beam="1">  1       21 0.19629303E-01 0.45404499E+03</pdfrwt>
<pdfrwt beam="2">  1       21 0.56782575E-01 0.45404499E+03</pdfrwt>
<totfact> 0.64401045E+04</totfact>
</mgrwt>
</event>
<event>
 7    0  0.4784406E-002  0.4555512E+03  0.7546771E-02  0.1026079E+00
         21   -1    0    0  502  501  0.00000000000E+00  0.00000000000E+00  0.16839453775E+04  0.16839453775E+04  0.00000000000E+00 0. -1.
         21   -1    0    0  501  502 -0.00000000000E+00 -0.00000000000E+00 -0.30809627615E+02  0.30809627615E+02  0.00000000000E+00 0. -1.
      99926    2    1    2    0    0  0.00000000000E+00  0.35527136788E-14  0.16531357499E+04  0.17147550052E+04  0.45555122657E+03 0.  0.
      99925    2    3    3    0    0 -0.62860380645E+02  0.22110603423E+02  0.13863706494E+04  0.14126764835E+04  0.26304175242E+03 0.  0.
         25    1    3    3    0    0  0.62860380645E+02 -0.22110603423E+02  0.26676510056E+03  0.30207852161E+03  0.12509000000E+03 0.  0.
         25    1    4    4    0    0 -0.51868565772E+02 -0.12538587007E+02  0.84368443677E+03  0.85457504131E+03  0.12509000000E+03 0.  0.
         25    1    4    4    0    0 -0.10991814873E+02  0.34649190430E+02  0.54268621259E+03  0.55810144224E+03  0.12509000000E+03 0.  0.
<mgrwt>
<rscale>  2 0.45555123E+03</rscale>
<asrwt>0</asrwt>
<pdfrwt beam="1">  1       21 0.24763896E+00 0.45555123E+03</pdfrwt>
<pdfrwt beam="2">  1       21 0.45308287E-02 0.45555123E+03</pdfrwt>
<totfact> 0.18875469E+04</totfact>
</mgrwt>
</event>
<event>
 7    0  0.4784406E-002  0.4537306E+03  0.7546771E-02  0.1026615E+00
         21   -1    0    0  502  501  0.00000000000E+00  0.00000000000E+00  0.14949086025E+04  0.14949086025E+04  0.00000000000E+00 0.  1.
         21   -1    0    0  501  502 -0.00000000000E+00 -0.00000000000E+00 -0.34428762458E+02  0.34428762458E+02  0.00000000000E+00 0.  1.
      99926    2    1    2    0    0  0.00000000000E+00  0.00000000000E+00  0.14604798400E+04  0.15293373650E+04  0.45373055075E+03 0.  0.
      99925    2    3    3    0    0 -0.10452503670E+03 -0.33765302862E+02  0.84708960909E+03  0.89375836711E+03  0.26301641390E+03 0.  0.
         25    1    4    4    0    0 -0.62487356504E+02  0.20852221874E+02  0.38720454711E+03  0.41220668879E+03  0.12509000000E+03 0.  0.
         25    1    3    3    0    0  0.10452503670E+03  0.33765302862E+02  0.61339023095E+03  0.63557899784E+03  0.12509000000E+03 0.  0.
         25    1    4    4    0    0 -0.42037680194E+02 -0.54617524736E+02  0.45988506198E+03  0.48155167832E+03  0.12509000000E+03 0.  0.
<mgrwt>
<rscale>  2 0.45373055E+03</rscale>
<asrwt>0</asrwt>
<pdfrwt beam="1">  1       21 0.21983946E+00 0.45373055E+03</pdfrwt>
<pdfrwt beam="2">  1       21 0.50630543E-02 0.45373055E+03</pdfrwt>
<totfact> 0.23298053E+04</totfact>
</mgrwt>
</event>
<event>
 7    0  0.4784406E-002  0.4559380E+03  0.7546771E-02  0.1025966E+00
         21   -1    0    0  502  501  0.00000000000E+00  0.00000000000E+00  0.40290033567E+03  0.40290033567E+03  0.00000000000E+00 0.  1.
         21   -1    0    0  501  502 -0.00000000000E+00 -0.00000000000E+00 -0.12898935638E+03  0.12898935638E+03  0.00000000000E+00 0.  1.
      99926    2    1    2    0    0  0.00000000000E+00  0.00000000000E+00  0.27391097929E+03  0.53188969206E+03  0.45593795624E+03 0.  0.
      99925    2    3    3    0    0 -0.10588031095E+03 -0.40919340237E+02  0.15958624107E+03  0.32792232574E+03  0.26302138835E+03 0.  0.
         25    1    4    4    0    0 -0.67177701307E+02 -0.58852554744E+02  0.75144668440E+02  0.17108680851E+03  0.12509000000E+03 0.  0.
         25    1    4    4    0    0 -0.38702609644E+02  0.17933214508E+02  0.84441572631E+02  0.15683551723E+03  0.12509000000E+03 0.  0.
         25    1    3    3    0    0  0.10588031095E+03  0.40919340237E+02  0.11432473822E+03  0.20396736631E+03  0.12509000000E+03 0.  0.
<mgrwt>
<rscale>  2 0.45593796E+03</rscale>
<asrwt>0</asrwt>
<pdfrwt beam="1">  1       21 0.59250049E-01 0.45593796E+03</pdfrwt>
<pdfrwt beam="2">  1       21 0.18969023E-01 0.45593796E+03</pdfrwt>
<totfact> 0.62612022E+04</totfact>
</mgrwt>
</event>
<event>
 7    0  0.5367826E-002  0.4182743E+03  0.7546771E-02  0.1037629E+00
         21   -1    0    0  502  501  0.00000000000E+00  0.00000000000E+00  0.19016811220E+03  0.19016811220E+03  0.00000000000E+00 0.  1.
         21   -1    0    0  501  502 -0.00000000000E+00 -0.00000000000E+00 -0.22999827285E+03  0.22999827285E+03  0.00000000000E+00 0.  1.
      99926    2    1    2    0    0 -0.44408920985E-15  0.00000000000E+00 -0.39830160652E+02  0.42016638504E+03  0.41827425145E+03 0.  0.
      99925    2    3    3    0    0  0.34521846058E+01 -0.74005362647E+02 -0.13418454439E+02  0.27240374564E+03  0.26179196787E+03 0.  0.
         25    1    3    3    0    0 -0.34521846058E+01  0.74005362647E+02 -0.26411706213E+02  0.14776263941E+03  0.12509000000E+03 0.  0.
         25    1    4    4    0    0  0.12364017966E+02 -0.74039692724E+02  0.30746498524E+01  0.14591677974E+03  0.12509000000E+03 0.  0.
         25    1    4    4    0    0 -0.89118333606E+01  0.34330076828E-01 -0.16493104292E+02  0.12648696590E+03  0.12509000000E+03 0.  0.
<mgrwt>
<rscale>  2 0.41827425E+03</rscale>
<asrwt>0</asrwt>
<pdfrwt beam="1">  1       21 0.27965899E-01 0.41827425E+03</pdfrwt>
<pdfrwt beam="2">  1       21 0.33823276E-01 0.41827425E+03</pdfrwt>
<totfact> 0.96502759E+04</totfact>
</mgrwt>
</event>
<event>
 7    0  0.4784406E-002  0.4549733E+03  0.7546771E-02  0.1026249E+00
         21   -1    0    0  502  501  0.00000000000E+00  0.00000000000E+00  0.93639631299E+03  0.93639631299E+03  0.00000000000E+00 0.  1.
         21   -1    0    0  501  502 -0.00000000000E+00 -0.00000000000E+00 -0.55265242490E+02  0.55265242490E+02  0.00000000000E+00 0.  1.
      99926    2    1    2    0    0 -0.14210854715E-13 -0.35527136788E-14  0.88113107050E+03  0.99166155548E+03  0.45497327088E+03 0.  0.
      99925    2    3    3    0    0 -0.10949372796E+03 -0.20512482923E+02  0.59656315202E+03  0.66145548838E+03  0.26310859041E+03 0.  0.
         25    1    3    3    0    0  0.10949372796E+03  0.20512482923E+02  0.28456791848E+03  0.33020606709E+03  0.12509000000E+03 0.  0.
         25    1    4    4    0    0 -0.49526794688E+02  0.11585489642E+02  0.36993127780E+03  0.39380678684E+03  0.12509000000E+03 0.  0.
         25    1    4    4    0    0 -0.59966933273E+02 -0.32097972565E+02  0.22663187422E+03  0.26764870155E+03  0.12509000000E+03 0.  0.
<mgrwt>
<rscale>  2 0.45497327E+03</rscale>
<asrwt>0</asrwt>
<pdfrwt beam="1">  1       21 0.13770533E+00 0.45497327E+03</pdfrwt>
<pdfrwt beam="2">  1       21 0.81272421E-02 0.45497327E+03</pdfrwt>
<totfact> 0.39500906E+04</totfact>
</mgrwt>
</event>
<event>
 7    0  0.4784406E-002  0.4523265E+03  0.7546771E-02  0.1027031E+00
         21   -1    0    0  502  501  0.00000000000E+00  0.00000000000E+00  0.13430572213E+04  0.13430572213E+04  0.00000000000E+00 0.  1.
         21   -1    0    0  501  502 -0.00000000000E+00 -0.00000000000E+00 -0.38084616386E+02  0.38084616386E+02  0.00000000000E+00 0.  1.
      99926    2    1    2    0    0  0.00000000000E+00  0.00000000000E+00  0.13049726049E+04  0.13811418377E+04  0.45232651507E+03 0.  0.
      99925    2    3    3    0    0 -0.54268324720E+02  0.20150005073E+02  0.11109051660E+04  0.11431066455E+04  0.26311868309E+03 0.  0.
         25    1    3    3    0    0  0.54268324720E+02 -0.20150005073E+02  0.19406743897E+03  0.23803519223E+03  0.12509000000E+03 0.  0.
         25    1    4    4    0    0 -0.28636137176E+02 -0.30465807738E+02  0.52430046044E+03  0.54063543605E+03  0.12509000000E+03 0.  0.
         25    1    4    4    0    0 -0.25632187544E+02  0.50615812810E+02  0.58660470552E+03  0.60247120942E+03  0.12509000000E+03 0.  0.
<mgrwt>
<rscale>  2 0.45232652E+03</rscale>
<asrwt>0</asrwt>
<pdfrwt beam="1">  1       21 0.19750838E+00 0.45232652E+03</pdfrwt>
<pdfrwt beam="2">  1       21 0.56006798E-02 0.45232652E+03</pdfrwt>
<totfact> 0.27403904E+04</totfact>
</mgrwt>
</event>
<event>
 7    0  0.4784406E-002  0.4572905E+03  0.7546771E-02  0.1025570E+00
         21   -1    0    0  502  501  0.00000000000E+00  0.00000000000E+00  0.19177646490E+03  0.19177646490E+03  0.00000000000E+00 0.  1.
         21   -1    0    0  501  502 -0.00000000000E+00 -0.00000000000E+00 -0.27260207032E+03  0.27260207032E+03  0.00000000000E+00 0.  1.
      99926    2    1    2    0    0  0.14210854715E-13  0.17763568394E-14 -0.80825605420E+02  0.46437853523E+03  0.45729054822E+03 0.  0.
      99925    2    3    3    0    0  0.11453934905E+03  0.91639188512E+01 -0.41145459780E+02  0.28995014893E+03  0.26301121671E+03 0.  0.
         25    1    3    3    0    0 -0.11453934905E+03 -0.91639188512E+01 -0.39680145639E+02  0.17442838630E+03  0.12509000000E+03 0.  0.
         25    1    4    4    0    0  0.47784742082E+02 -0.17458973201E+02 -0.53291074234E+02  0.14517452949E+03  0.12509000000E+03 0.  0.
         25    1    4    4    0    0  0.66754606966E+02  0.26622892052E+02  0.12145614454E+02  0.14477561944E+03  0.12509000000E+03 0.  0.
<mgrwt>
<rscale>  2 0.45729055E+03</rscale>
<asrwt>0</asrwt>
<pdfrwt beam="1">  1       21 0.28202421E-01 0.45729055E+03</pdfrwt>
<pdfrwt beam="2">  1       21 0.40088540E-01 0.45729055E+03</pdfrwt>
<totfact> 0.66634674E+04</totfact>
</mgrwt>
</event>
<event>
 7    0  0.4784406E-002  0.4529309E+03  0.7546771E-02  0.1026852E+00
         21   -1    0    0  502  501  0.00000000000E+00  0.00000000000E+00  0.30231371342E+03  0.30231371342E+03  0.00000000000E+00 0.  1.
         21   -1    0    0  501  502 -0.00000000000E+00 -0.00000000000E+00 -0.16964697344E+03  0.16964697344E+03  0.00000000000E+00 0.  1.
      99926    2    1    2    0    0  0.14210854715E-13 -0.71054273576E-14  0.13266673998E+03  0.47196068685E+03  0.45293092855E+03 0.  0.
      99925    2    3    3    0    0 -0.92995156396E+02  0.45411353671E+02  0.41187574961E+02  0.28561091925E+03  0.26299598991E+03 0.  0.
         25    1    4    4    0    0 -0.36384708186E+02  0.75026255034E+01  0.56802215139E+02  0.14231702682E+03  0.12509000000E+03 0.  0.
         25    1    4    4    0    0 -0.56610448210E+02  0.37908728168E+02 -0.15614640179E+02  0.14329389242E+03  0.12509000000E+03 0.  0.
         25    1    3    3    0    0  0.92995156396E+02 -0.45411353671E+02  0.91479165017E+02  0.18634976761E+03  0.12509000000E+03 0.  0.
<mgrwt>
<rscale>  2 0.45293093E+03</rscale>
<asrwt>0</asrwt>
<pdfrwt beam="1">  1       21 0.44457899E-01 0.45293093E+03</pdfrwt>
<pdfrwt beam="2">  1       21 0.24948084E-01 0.45293093E+03</pdfrwt>
<totfact> 0.68406386E+04</totfact>
</mgrwt>
</event>
<event>
 7    0  0.4784406E-002  0.4366463E+03  0.7546771E-02  0.1031781E+00
         21   -1    0    0  502  501  0.00000000000E+00  0.00000000000E+00  0.13434810234E+03  0.13434810234E+03  0.00000000000E+00 0.  1.
         21   -1    0    0  501  502 -0.00000000000E+00 -0.00000000000E+00 -0.35478731039E+03  0.35478731039E+03  0.00000000000E+00 0.  1.
      99926    2    1    2    0    0  0.00000000000E+00  0.71054273576E-14 -0.22043920805E+03  0.48913541272E+03  0.43664631859E+03 0.  0.
      99925    2    3    3    0    0  0.31457901979E+02  0.58301138787E+02 -0.65006272928E+02  0.27890808862E+03  0.26301194649E+03 0.  0.
         25    1    4    4    0    0  0.31326293418E+02  0.22695532388E+01 -0.44189499096E+01  0.12904852866E+03  0.12509000000E+03 0.  0.
         25    1    3    3    0    0 -0.31457901979E+02 -0.58301138787E+02 -0.15543293512E+03  0.21022732411E+03  0.12509000000E+03 0.  0.
         25    1    4    4    0    0  0.13160856090E+00  0.56031585549E+02 -0.60587323019E+02  0.14985955996E+03  0.12509000000E+03 0.  0.
<mgrwt>
<rscale>  2 0.43664632E+03</rscale>
<asrwt>0</asrwt>
<pdfrwt beam="1">  1       21 0.19757074E-01 0.43664632E+03</pdfrwt>
<pdfrwt beam="2">  1       21 0.52174604E-01 0.43664632E+03</pdfrwt>
<totfact> 0.76608259E+04</totfact>
</mgrwt>
</event>
<event>
 7    0  0.4784406E-002  0.4545541E+03  0.7546771E-02  0.1026373E+00
         21   -1    0    0  502  501  0.00000000000E+00  0.00000000000E+00  0.17338223689E+03  0.17338223689E+03  0.00000000000E+00 0. -1.
         21   -1    0    0  501  502 -0.00000000000E+00 -0.00000000000E+00 -0.29792480214E+03  0.29792480214E+03  0.00000000000E+00 0. -1.
      99926    2    1    2    0    0 -0.71054273576E-14  0.00000000000E+00 -0.12454256525E+03  0.47130703903E+03  0.45455414911E+03 0.  0.
      99925    2    3    3    0    0 -0.53430849110E+02  0.90595019943E+02 -0.12076999572E+03  0.30783210622E+03  0.26289332528E+03 0.  0.
         25    1    4    4    0    0 -0.66561265941E+02  0.39399810993E+02 -0.69659651402E+02  0.16273512947E+03  0.12509000000E+03 0.  0.
         25    1    4    4    0    0  0.13130416831E+02  0.51195208950E+02 -0.51110344321E+02  0.14509697675E+03  0.12509000000E+03 0.  0.
         25    1    3    3    0    0  0.53430849110E+02 -0.90595019943E+02 -0.37725695222E+01  0.16347493281E+03  0.12509000000E+03 0.  0.
<mgrwt>
<rscale>  2 0.45455415E+03</rscale>
<asrwt>0</asrwt>
<pdfrwt beam="1">  1       21 0.25497388E-01 0.45455415E+03</pdfrwt>
<pdfrwt beam="2">  1       21 0.43812471E-01 0.45455415E+03</pdfrwt>
<totfact> 0.67577359E+04</totfact>
</mgrwt>
</event>
<event>
 7    0  0.4784406E-002  0.4547810E+03  0.7546771E-02  0.1026306E+00
         21   -1    0    0  502  501  0.00000000000E+00  0.00000000000E+00  0.68057940805E+02  0.68057940805E+02  0.00000000000E+00 0. -1.
         21   -1    0    0  501  502 -0.00000000000E+00 -0.00000000000E+00 -0.75974138231E+03  0.75974138231E+03  0.00000000000E+00 0. -1.
      99926    2    1    2    0    0  0.00000000000E+00  0.00000000000E+00 -0.69168344151E+03  0.82779932312E+03  0.45478097596E+03 0.  0.
      99925    2    3    3    0    0  0.83460773568E+02 -0.16787078862E+02 -0.57070293005E+03  0.63406935901E+03  0.26285853786E+03 0.  0.
         25    1    3    3    0    0 -0.83460773568E+02  0.16787078862E+02 -0.12098051146E+03  0.19372996411E+03  0.12509000000E+03 0.  0.
         25    1    4    4    0    0  0.12717745715E+02 -0.13127587088E+02 -0.33411097688E+03  0.35722783706E+03  0.12509000000E+03 0.  0.
         25    1    4    4    0    0  0.70743027854E+02 -0.36594917743E+01 -0.23659195317E+03  0.27684152195E+03  0.12509000000E+03 0.  0.
<mgrwt>
<rscale>  2 0.45478098E+03</rscale>
<asrwt>0</asrwt>
<pdfrwt beam="1">  1       21 0.10008521E-01 0.45478098E+03</pdfrwt>
<pdfrwt beam="2">  1       21 0.11172668E+00 0.45478098E+03</pdfrwt>
<totfact> 0.46529314E+04</totfact>
</mgrwt>
</event>
<event>
 7    0  0.4784406E-002  0.4378441E+03  0.7546771E-02  0.1031410E+00
         21   -1    0    0  502  501  0.00000000000E+00  0.00000000000E+00  0.85047742227E+02  0.85047742227E+02  0.00000000000E+00 0.  1.
         21   -1    0    0  501  502 -0.00000000000E+00 -0.00000000000E+00 -0.56352883833E+03  0.56352883833E+03  0.00000000000E+00 0.  1.
      99926    2    1    2    0    0  0.00000000000E+00  0.00000000000E+00 -0.47848109610E+03  0.64857658055E+03  0.43784406073E+03 0.  0.
      99925    2    3    3    0    0  0.23612348721E+02 -0.23267624574E+02 -0.43978706414E+03  0.51350748129E+03  0.26301776783E+03 0.  0.
         25    1    3    3    0    0 -0.23612348721E+02  0.23267624574E+02 -0.38694031963E+02  0.13506909926E+03  0.12509000000E+03 0.  0.
         25    1    4    4    0    0 -0.21977514944E+02 -0.22597799508E+01 -0.25382300581E+03  0.28383400809E+03  0.12509000000E+03 0.  0.
         25    1    4    4    0    0  0.45589863665E+02 -0.21007844623E+02 -0.18596405833E+03  0.22967347321E+03  0.12509000000E+03 0.  0.
<mgrwt>
<rscale>  2 0.43784406E+03</rscale>
<asrwt>0</asrwt>
<pdfrwt beam="1">  1       21 0.12507021E-01 0.43784406E+03</pdfrwt>
<pdfrwt beam="2">  1       21 0.82871885E-01 0.43784406E+03</pdfrwt>
<totfact> 0.64014488E+04</totfact>
</mgrwt>
</event>
<event>
 7    0  0.4784406E-002  0.4585766E+03  0.7546771E-02  0.1025195E+00
         21   -1    0    0  502  501  0.00000000000E+00  0.00000000000E+00  0.24608511807E+03  0.24608511807E+03  0.00000000000E+00 0.  1.
         21   -1    0    0  501  502 -0.00000000000E+00 -0.00000000000E+00 -0.21363793475E+03  0.21363793475E+03  0.00000000000E+00 0.  1.
      99926    2    1    2    0    0 -0.71054273576E-14 -0.35527136788E-14  0.32447183313E+02  0.45972305282E+03  0.45857656459E+03 0.  0.
      99925    2    3    3    0    0  0.63508111009E+02  0.28623389528E+02  0.11347234266E+03  0.29520811995E+03  0.26347539343E+03 0.  0.
         25    1    3    3    0    0 -0.63508111009E+02 -0.28623389528E+02 -0.81025159348E+02  0.16451493288E+03  0.12509000000E+03 0.  0.
         25    1    4    4    0    0 -0.72168668075E+01 -0.15248986742E+01  0.60165636586E+02  0.13900295108E+03  0.12509000000E+03 0.  0.
         25    1    4    4    0    0  0.70724977816E+02  0.30148288203E+02  0.53306706075E+02  0.15620516887E+03  0.12509000000E+03 0.  0.
<mgrwt>
<rscale>  2 0.45857656E+03</rscale>
<asrwt>0</asrwt>
<pdfrwt beam="1">  1       21 0.36188988E-01 0.45857656E+03</pdfrwt>
<pdfrwt beam="2">  1       21 0.31417343E-01 0.45857656E+03</pdfrwt>
<totfact> 0.66289239E+04</totfact>
</mgrwt>
</event>
<event>
 7    0  0.4784406E-002  0.4567840E+03  0.7546771E-02  0.1025718E+00
         21   -1    0    0  502  501  0.00000000000E+00  0.00000000000E+00  0.10002593976E+03  0.10002593976E+03  0.00000000000E+00 0. -1.
         21   -1    0    0  501  502 -0.00000000000E+00 -0.00000000000E+00 -0.52149381097E+03  0.52149381097E+03  0.00000000000E+00 0. -1.
      99926    2    1    2    0    0  0.71054273576E-14  0.00000000000E+00 -0.42146787121E+03  0.62151975072E+03  0.45678401250E+03 0.  0.
      99925    2    3    3    0    0 -0.63538965979E+02  0.74007789999E+02 -0.34726284718E+03  0.44639623183E+03  0.26299003324E+03 0.  0.
         25    1    3    3    0    0  0.63538965979E+02 -0.74007789999E+02 -0.74205024034E+02  0.17512351889E+03  0.12509000000E+03 0.  0.
         25    1    4    4    0    0  0.16363264027E+01  0.58223124690E+02 -0.15686208993E+03  0.20891585189E+03  0.12509000000E+03 0.  0.
         25    1    4    4    0    0 -0.65175292382E+02  0.15784665309E+02 -0.19040075725E+03  0.23748037994E+03  0.12509000000E+03 0.  0.
<mgrwt>
<rscale>  2 0.45678401E+03</rscale>
<asrwt>0</asrwt>
<pdfrwt beam="1">  1       21 0.14709697E-01 0.45678401E+03</pdfrwt>
<pdfrwt beam="2">  1       21 0.76690265E-01 0.45678401E+03</pdfrwt>
<totfact> 0.56571698E+04</totfact>
</mgrwt>
</event>
<event>
 7    0  0.4784406E-002  0.4717486E+03  0.7546771E-02  0.1021428E+00
         21   -1    0    0  502  501  0.00000000000E+00  0.00000000000E+00  0.48552187272E+03  0.48552187272E+03  0.00000000000E+00 0.  1.
         21   -1    0    0  501  502 -0.00000000000E+00 -0.00000000000E+00 -0.11459151326E+03  0.11459151326E+03  0.00000000000E+00 0.  1.
      99926    2    1    2    0    0  0.00000000000E+00 -0.17763568394E-14  0.37093035947E+03  0.60011338598E+03  0.47174860303E+03 0.  0.
      99925    2    3    3    0    0  0.86260584783E+02  0.89512156588E+00  0.35103026441E+03  0.44686453080E+03  0.26272413788E+03 0.  0.
         25    1    4    4    0    0  0.55583087364E+02  0.17985677473E+02  0.23558989324E+03  0.27306239231E+03  0.12509000000E+03 0.  0.
         25    1    3    3    0    0 -0.86260584783E+02 -0.89512156588E+00  0.19900095052E+02  0.15324885518E+03  0.12509000000E+03 0.  0.
         25    1    4    4    0    0  0.30677497419E+02 -0.17090555907E+02  0.11544037117E+03  0.17380213849E+03  0.12509000000E+03 0.  0.
<mgrwt>
<rscale>  2 0.47174860E+03</rscale>
<asrwt>0</asrwt>
<pdfrwt beam="1">  1       21 0.71400275E-01 0.47174860E+03</pdfrwt>
<pdfrwt beam="2">  1       21 0.16851693E-01 0.47174860E+03</pdfrwt>
<totfact> 0.51508324E+04</totfact>
</mgrwt>
</event>
<event>
 7    0  0.4784406E-002  0.4545196E+03  0.7546771E-02  0.1026383E+00
         21   -1    0    0  502  501  0.00000000000E+00  0.00000000000E+00  0.36728853989E+02  0.36728853989E+02  0.00000000000E+00 0. -1.
         21   -1    0    0  501  502 -0.00000000000E+00 -0.00000000000E+00 -0.14061699337E+04  0.14061699337E+04  0.00000000000E+00 0. -1.
      99926    2    1    2    0    0 -0.71054273576E-14  0.00000000000E+00 -0.13694410797E+04  0.14428987877E+04  0.45451957132E+03 0.  0.
      99925    2    3    3    0    0  0.38185205143E+02  0.56249256105E+02 -0.11469873016E+04  0.11787865385E+04  0.26331681389E+03 0.  0.
         25    1    3    3    0    0 -0.38185205143E+02 -0.56249256105E+02 -0.22245377808E+03  0.26411224922E+03  0.12509000000E+03 0.  0.
         25    1    4    4    0    0 -0.20103806317E+02  0.39006018101E+02 -0.58794729599E+03  0.60270653177E+03  0.12509000000E+03 0.  0.
         25    1    4    4    0    0  0.58289011461E+02  0.17243238003E+02 -0.55904000563E+03  0.57608000669E+03  0.12509000000E+03 0.  0.
<mgrwt>
<rscale>  2 0.45451957E+03</rscale>
<asrwt>0</asrwt>
<pdfrwt beam="1">  1       21 0.54013020E-02 0.45451957E+03</pdfrwt>
<pdfrwt beam="2">  1       21 0.20678970E+00 0.45451957E+03</pdfrwt>
<totfact> 0.25305248E+04</totfact>
</mgrwt>
</event>
<event>
 7    0  0.4784406E-002  0.4530338E+03  0.7546771E-02  0.1026821E+00
         21   -1    0    0  502  501  0.00000000000E+00  0.00000000000E+00  0.63626373853E+02  0.63626373853E+02  0.00000000000E+00 0. -1.
         21   -1    0    0  501  502 -0.00000000000E+00 -0.00000000000E+00 -0.80642523060E+03  0.80642523060E+03  0.00000000000E+00 0. -1.
      99926    2    1    2    0    0  0.00000000000E+00  0.00000000000E+00 -0.74279885675E+03  0.87005160445E+03  0.45303383188E+03 0.  0.
      99925    2    3    3    0    0 -0.71920330908E+02 -0.37863821274E+02 -0.32234814860E+03  0.42392100806E+03  0.26304845410E+03 0.  0.
         25    1    4    4    0    0  0.84020022685E+00  0.21079569876E+01 -0.14152040868E+03  0.18889331272E+03  0.12509000000E+03 0.  0.
         25    1    3    3    0    0  0.71920330908E+02  0.37863821274E+02 -0.42045070815E+03  0.44613059640E+03  0.12509000000E+03 0.  0.
         25    1    4    4    0    0 -0.72760531135E+02 -0.39971778262E+02 -0.18082773992E+03  0.23502769533E+03  0.12509000000E+03 0.  0.
<mgrwt>
<rscale>  2 0.45303383E+03</rscale>
<asrwt>0</asrwt>
<pdfrwt beam="1">  1       21 0.93568204E-02 0.45303383E+03</pdfrwt>
<pdfrwt beam="2">  1       21 0.11859194E+00 0.45303383E+03</pdfrwt>
<totfact> 0.45246749E+04</totfact>
</mgrwt>
</event>
<event>
 7    0  0.4784406E-002  0.4560869E+03  0.7546771E-02  0.1025922E+00
         21   -1    0    0  502  501  0.00000000000E+00  0.00000000000E+00  0.10001257805E+04  0.10001257805E+04  0.00000000000E+00 0. -1.
         21   -1    0    0  501  502 -0.00000000000E+00 -0.00000000000E+00 -0.51997284054E+02  0.51997284054E+02  0.00000000000E+00 0. -1.
      99926    2    1    2    0    0  0.35527136788E-14  0.00000000000E+00  0.94812849641E+03  0.10521230645E+04  0.45608694038E+03 0.  0.
      99925    2    3    3    0    0 -0.29891131048E+01  0.81086334007E+02  0.78127947183E+03  0.82835972198E+03  0.26305567384E+03 0.  0.
         25    1    3    3    0    0  0.29891131048E+01 -0.81086334007E+02  0.16684902457E+03  0.22376334253E+03  0.12509000000E+03 0.  0.
         25    1    4    4    0    0  0.37991476822E+02  0.34572307847E+02  0.40813483270E+03  0.42995365627E+03  0.12509000000E+03 0.  0.
         25    1    4    4    0    0 -0.40980589927E+02  0.46514026159E+02  0.37314463913E+03  0.39840606571E+03  0.12509000000E+03 0.  0.
<mgrwt>
<rscale>  2 0.45608694E+03</rscale>
<asrwt>0</asrwt>
<pdfrwt beam="1">  1       21 0.14707731E+00 0.45608694E+03</pdfrwt>
<pdfrwt beam="2">  1       21 0.76466601E-02 0.45608694E+03</pdfrwt>
<totfact> 0.36885663E+04</totfact>
</mgrwt>
</event>
<event>
 7    0  0.4784406E-002  0.4493981E+03  0.7546771E-02  0.1027902E+00
         21   -1    0    0  502  501  0.00000000000E+00  0.00000000000E+00  0.52654545803E+03  0.52654545803E+03  0.00000000000E+00 0. -1.
         21   -1    0    0  501  502 -0.00000000000E+00 -0.00000000000E+00 -0.95888535204E+02  0.95888535204E+02  0.00000000000E+00 0. -1.
      99926    2    1    2    0    0  0.00000000000E+00  0.00000000000E+00  0.43065692283E+03  0.62243399324E+03  0.44939814280E+03 0.  0.
      99925    2    3    3    0    0  0.80789985192E+02  0.64161196385E+02  0.31591139545E+03  0.42379430692E+03  0.26297894206E+03 0.  0.
         25    1    4    4    0    0  0.81152613852E+02  0.44719540115E+02  0.16570445886E+03  0.22735667967E+03  0.12509000000E+03 0.  0.
         25    1    3    3    0    0 -0.80789985192E+02 -0.64161196385E+02  0.11474552737E+03  0.19863968632E+03  0.12509000000E+03 0.  0.
         25    1    4    4    0    0 -0.36262866037E+00  0.19441656270E+02  0.15020693660E+03  0.19643762725E+03  0.12509000000E+03 0.  0.
<mgrwt>
<rscale>  2 0.44939814E+03</rscale>
<asrwt>0</asrwt>
<pdfrwt beam="1">  1       21 0.77433154E-01 0.44939814E+03</pdfrwt>
<pdfrwt beam="2">  1       21 0.14101255E-01 0.44939814E+03</pdfrwt>
<totfact> 0.59925059E+04</totfact>
</mgrwt>
</event>
<event>
 7    0  0.4784406E-002  0.4569278E+03  0.7546771E-02  0.1025676E+00
         21   -1    0    0  502  501  0.00000000000E+00  0.00000000000E+00  0.61275132270E+03  0.61275132270E+03  0.00000000000E+00 0. -1.
         21   -1    0    0  501  502 -0.00000000000E+00 -0.00000000000E+00 -0.85182594157E+02  0.85182594157E+02  0.00000000000E+00 0. -1.
      99926    2    1    2    0    0  0.71054273576E-14  0.00000000000E+00  0.52756872854E+03  0.69793391686E+03  0.45692777215E+03 0.  0.
      99925    2    3    3    0    0 -0.47601216132E+02  0.83685816227E+02  0.23553532061E+03  0.36596974550E+03  0.26303569293E+03 0.  0.
         25    1    3    3    0    0  0.47601216132E+02 -0.83685816227E+02  0.29203340793E+03  0.33196417135E+03  0.12509000000E+03 0.  0.
         25    1    4    4    0    0 -0.44653729073E+02  0.36451491320E+02  0.16445057544E+03  0.21450912942E+03  0.12509000000E+03 0.  0.
         25    1    4    4    0    0 -0.29474870595E+01  0.47234324907E+02  0.71084745167E+02  0.15146061608E+03  0.12509000000E+03 0.  0.
<mgrwt>
<rscale>  2 0.45692777E+03</rscale>
<asrwt>0</asrwt>
<pdfrwt beam="1">  1       21 0.90110486E-01 0.45692777E+03</pdfrwt>
<pdfrwt beam="2">  1       21 0.12526852E-01 0.45692777E+03</pdfrwt>
<totfact> 0.52218498E+04</totfact>
</mgrwt>
</event>
<event>
 7    0  0.4784406E-002  0.4542847E+03  0.7546771E-02  0.1026452E+00
         21   -1    0    0  502  501  0.00000000000E+00  0.00000000000E+00  0.24277785874E+03  0.24277785874E+03  0.00000000000E+00 0. -1.
         21   -1    0    0  501  502 -0.00000000000E+00 -0.00000000000E+00 -0.21251376158E+03  0.21251376158E+03  0.00000000000E+00 0. -1.
      99926    2    1    2    0    0  0.00000000000E+00 -0.15543122345E-14  0.30264097160E+02  0.45529162031E+03  0.45428465080E+03 0.  0.
      99925    2    3    3    0    0  0.15228199767E+02 -0.37299982490E+00  0.13071163555E+03  0.29414183513E+03  0.26306244565E+03 0.  0.
         25    1    3    3    0    0 -0.15228199767E+02  0.37299982490E+00 -0.10044753839E+03  0.16114978518E+03  0.12509000000E+03 0.  0.
         25    1    4    4    0    0  0.30650121992E+02  0.33316815629E+02  0.67347149413E+02  0.14910595835E+03  0.12509000000E+03 0.  0.
         25    1    4    4    0    0 -0.15421922225E+02 -0.33689815453E+02  0.63364486132E+02  0.14503587678E+03  0.12509000000E+03 0.  0.
<mgrwt>
<rscale>  2 0.45428465E+03</rscale>
<asrwt>0</asrwt>
<pdfrwt beam="1">  1       21 0.35702626E-01 0.45428465E+03</pdfrwt>
<pdfrwt beam="2">  1       21 0.31252024E-01 0.45428465E+03</pdfrwt>
<totfact> 0.68916983E+04</totfact>
</mgrwt>
</event>
<event>
 7    0  0.4784406E-002  0.4368838E+03  0.7546771E-02  0.1031707E+00
         21   -1    0    0  502  501  0.00000000000E+00  0.00000000000E+00  0.25502091618E+03  0.25502091618E+03  0.00000000000E+00 0. -1.
         21   -1    0    0  501  502 -0.00000000000E+00 -0.00000000000E+00 -0.18710956663E+03  0.18710956663E+03  0.00000000000E+00 0. -1.
      99926    2    1    2    0    0  0.00000000000E+00  0.00000000000E+00  0.67911349554E+02  0.44213048281E+03  0.43688375162E+03 0.  0.
      99925    2    3    3    0    0 -0.44424751221E+02 -0.75071537009E+02  0.52675598718E+01  0.27726372850E+03  0.26313140019E+03 0.  0.
         25    1    4    4    0    0  0.11722317535E+02 -0.54006112416E+02  0.18114640223E+02  0.13794825551E+03  0.12509000000E+03 0.  0.
         25    1    4    4    0    0 -0.56147068756E+02 -0.21065424593E+02 -0.12847080351E+02  0.13931547300E+03  0.12509000000E+03 0.  0.
         25    1    3    3    0    0  0.44424751221E+02  0.75071537009E+02  0.62643789682E+02  0.16486675431E+03  0.12509000000E+03 0.  0.
<mgrwt>
<rscale>  2 0.43688375E+03</rscale>
<asrwt>0</asrwt>
<pdfrwt beam="1">  1       21 0.37503076E-01 0.43688375E+03</pdfrwt>
<pdfrwt beam="2">  1       21 0.27516113E-01 0.43688375E+03</pdfrwt>
<totfact> 0.80522120E+04</totfact>
</mgrwt>
</event>
<event>
 7    0  0.4784406E-002  0.4606083E+03  0.7546771E-02  0.1024605E+00
         21   -1    0    0  502  501  0.00000000000E+00  0.00000000000E+00  0.28673334386E+02  0.28673334386E+02  0.00000000000E+00 0.  1.
         21   -1    0    0  501  502 -0.00000000000E+00 -0.00000000000E+00 -0.18498023357E+04  0.18498023357E+04  0.00000000000E+00 0.  1.
      99926    2    1    2    0    0  0.00000000000E+00  0.00000000000E+00 -0.18211290013E+04  0.18784756701E+04  0.46060829745E+03 0.  0.
      99925    2    3    3    0    0  0.41923749076E+02  0.10650997707E+03 -0.10169288222E+04  0.10565952578E+04  0.26295880549E+03 0.  0.
         25    1    4    4    0    0  0.21350305946E+02  0.11950456394E+02 -0.50183741366E+03  0.51777113363E+03  0.12509000000E+03 0.  0.
         25    1    3    3    0    0 -0.41923749076E+02 -0.10650997707E+03 -0.80420017909E+03  0.82188041229E+03  0.12509000000E+03 0.  0.
         25    1    4    4    0    0  0.20573443130E+02  0.94559520671E+02 -0.51509140857E+03  0.53882412418E+03  0.12509000000E+03 0.  0.
<mgrwt>
<rscale>  2 0.46060830E+03</rscale>
<asrwt>0</asrwt>
<pdfrwt beam="1">  1       21 0.42166644E-02 0.46060830E+03</pdfrwt>
<pdfrwt beam="2">  1       21 0.27202991E+00 0.46060830E+03</pdfrwt>
<totfact> 0.15127876E+04</totfact>
</mgrwt>
</event>
<event>
 7    0  0.4784406E-002  0.5053621E+03  0.7546771E-02  0.1012389E+00
         21   -1    0    0  502  501  0.00000000000E+00  0.00000000000E+00  0.47496517363E+03  0.47496517363E+03  0.00000000000E+00 0. -1.
         21   -1    0    0  501  502 -0.00000000000E+00 -0.00000000000E+00 -0.13442606868E+03  0.13442606868E+03  0.00000000000E+00 0. -1.
      99926    2    1    2    0    0  0.00000000000E+00  0.00000000000E+00  0.34053910495E+03  0.60939124230E+03  0.50536205259E+03 0.  0.
      99925    2    3    3    0    0  0.32083725985E+02  0.15149261961E+03  0.22538433572E+03  0.37941839989E+03  0.26302251637E+03 0.  0.
         25    1    4    4    0    0  0.50185460531E+02  0.55090096838E+02  0.95363256388E+02  0.17405504298E+03  0.12509000000E+03 0.  0.
         25    1    3    3    0    0 -0.32083725985E+02 -0.15149261961E+03  0.11515476923E+03  0.22997284241E+03  0.12509000000E+03 0.  0.
         25    1    4    4    0    0 -0.18101734546E+02  0.96402522773E+02  0.13002107933E+03  0.20536335691E+03  0.12509000000E+03 0.  0.
<mgrwt>
<rscale>  2 0.50536205E+03</rscale>
<asrwt>0</asrwt>
<pdfrwt beam="1">  1       21 0.69847819E-01 0.50536205E+03</pdfrwt>
<pdfrwt beam="2">  1       21 0.19768540E-01 0.50536205E+03</pdfrwt>
<totfact> 0.39756204E+04</totfact>
</mgrwt>
</event>
<event>
 7    0  0.4784406E-002  0.4570039E+03  0.7546771E-02  0.1025654E+00
         21   -1    0    0  502  501  0.00000000000E+00  0.00000000000E+00  0.23209082706E+03  0.23209082706E+03  0.00000000000E+00 0.  1.
         21   -1    0    0  501  502 -0.00000000000E+00 -0.00000000000E+00 -0.22496859881E+03  0.22496859881E+03  0.00000000000E+00 0.  1.
      99926    2    1    2    0    0  0.00000000000E+00 -0.35527136788E-14  0.71222282520E+01  0.45705942587E+03  0.45700393066E+03 0.  0.
      99925    2    3    3    0    0 -0.10103546086E+03 -0.31523386171E+02  0.50192128687E+02  0.28763565938E+03  0.26270351071E+03 0.  0.
         25    1    4    4    0    0 -0.37651980187E+02  0.18034900178E+02  0.43092544083E+02  0.13873501610E+03  0.12509000000E+03 0.  0.
         25    1    4    4    0    0 -0.63383480675E+02 -0.49558286349E+02  0.70995846043E+01  0.14890064328E+03  0.12509000000E+03 0.  0.
         25    1    3    3    0    0  0.10103546086E+03  0.31523386171E+02 -0.43069900435E+02  0.16942376649E+03  0.12509000000E+03 0.  0.
<mgrwt>
<rscale>  2 0.45700393E+03</rscale>
<asrwt>0</asrwt>
<pdfrwt beam="1">  1       21 0.34131004E-01 0.45700393E+03</pdfrwt>
<pdfrwt beam="2">  1       21 0.33083617E-01 0.45700393E+03</pdfrwt>
<totfact> 0.67312452E+04</totfact>
</mgrwt>
</event>
<event>
 7    0  0.4784406E-002  0.4521723E+03  0.7546771E-02  0.1027076E+00
         21   -1    0    0  502  501  0.00000000000E+00  0.00000000000E+00  0.14560790043E+03  0.14560790043E+03  0.00000000000E+00 0. -1.
         21   -1    0    0  501  502 -0.00000000000E+00 -0.00000000000E+00 -0.35104521742E+03  0.35104521742E+03  0.00000000000E+00 0. -1.
      99926    2    1    2    0    0  0.35527136788E-14  0.71054273576E-14 -0.20543731699E+03  0.49665311786E+03  0.45217234354E+03 0.  0.
      99925    2    3    3    0    0 -0.27920010923E+02 -0.32931447748E+02 -0.24131130927E+03  0.35954564657E+03  0.26301695141E+03 0.  0.
         25    1    4    4    0    0  0.18764126413E+02 -0.35234188028E+02 -0.13988937114E+03  0.19185954421E+03  0.12509000000E+03 0.  0.
         25    1    3    3    0    0  0.27920010923E+02  0.32931447748E+02  0.35873992273E+02  0.13710747129E+03  0.12509000000E+03 0.  0.
         25    1    4    4    0    0 -0.46684137336E+02  0.23027402798E+01 -0.10142193812E+03  0.16768610236E+03  0.12509000000E+03 0.  0.
<mgrwt>
<rscale>  2 0.45217234E+03</rscale>
<asrwt>0</asrwt>
<pdfrwt beam="1">  1       21 0.21412927E-01 0.45217234E+03</pdfrwt>
<pdfrwt beam="2">  1       21 0.51624296E-01 0.45217234E+03</pdfrwt>
<totfact> 0.66997724E+04</totfact>
</mgrwt>
</event>
<event>
 7    0  0.4784406E-002  0.4543771E+03  0.7546771E-02  0.1026425E+00
         21   -1    0    0  502  501  0.00000000000E+00  0.00000000000E+00  0.14042272172E+03  0.14042272172E+03  0.00000000000E+00 0. -1.
         21   -1    0    0  501  502 -0.00000000000E+00 -0.00000000000E+00 -0.36756608420E+03  0.36756608420E+03  0.00000000000E+00 0. -1.
      99926    2    1    2    0    0  0.26645352591E-14  0.00000000000E+00 -0.22714336249E+03  0.50798880592E+03  0.45437706788E+03 0.  0.
      99925    2    3    3    0    0 -0.50726631841E+01 -0.51636529146E+02 -0.25473201574E+03  0.36978350594E+03  0.26298170729E+03 0.  0.
         25    1    3    3    0    0  0.50726631841E+01  0.51636529146E+02  0.27588653254E+02  0.13820529998E+03  0.12509000000E+03 0.  0.
         25    1    4    4    0    0 -0.32605279177E+02 -0.47003109753E+02 -0.15611394319E+03  0.20806601816E+03  0.12509000000E+03 0.  0.
         25    1    4    4    0    0  0.27532615993E+02 -0.46334193922E+01 -0.98618072557E+02  0.16171748778E+03  0.12509000000E+03 0.  0.
<mgrwt>
<rscale>  2 0.45437707E+03</rscale>
<asrwt>0</asrwt>
<pdfrwt beam="1">  1       21 0.20650400E-01 0.45437707E+03</pdfrwt>
<pdfrwt beam="2">  1       21 0.54053836E-01 0.45437707E+03</pdfrwt>
<totfact> 0.65033922E+04</totfact>
</mgrwt>
</event>
<event>
 7    0  0.4784406E-002  0.4586650E+03  0.7546771E-02  0.1025169E+00
         21   -1    0    0  502  501  0.00000000000E+00  0.00000000000E+00  0.66123148228E+03  0.66123148228E+03  0.00000000000E+00 0.  1.
         21   -1    0    0  501  502 -0.00000000000E+00 -0.00000000000E+00 -0.79538543406E+02  0.79538543406E+02  0.00000000000E+00 0.  1.
      99926    2    1    2    0    0 -0.71054273576E-14  0.00000000000E+00  0.58169293887E+03  0.74077002568E+03  0.45866497121E+03 0.  0.
      99925    2    3    3    0    0  0.63560862889E+02 -0.87704266340E+02  0.43470545849E+03  0.51944481448E+03  0.26291074155E+03 0.  0.
         25    1    4    4    0    0  0.71045834901E+02 -0.54550916766E+02  0.25604482459E+03  0.29871353079E+03  0.12509000000E+03 0.  0.
         25    1    4    4    0    0 -0.74849720119E+01 -0.33153349575E+02  0.17866063390E+03  0.22073128369E+03  0.12509000000E+03 0.  0.
         25    1    3    3    0    0 -0.63560862889E+02  0.87704266340E+02  0.14698748038E+03  0.22132521120E+03  0.12509000000E+03 0.  0.
<mgrwt>
<rscale>  2 0.45866497E+03</rscale>
<asrwt>0</asrwt>
<pdfrwt beam="1">  1       21 0.97239921E-01 0.45866497E+03</pdfrwt>
<pdfrwt beam="2">  1       21 0.11696845E-01 0.45866497E+03</pdfrwt>
<totfact> 0.49308581E+04</totfact>
</mgrwt>
</event>
<event>
 7    0  0.4784406E-002  0.4534105E+03  0.7546771E-02  0.1026710E+00
         21   -1    0    0  502  501  0.00000000000E+00  0.00000000000E+00  0.10206989512E+03  0.10206989512E+03  0.00000000000E+00 0. -1.
         21   -1    0    0  501  502 -0.00000000000E+00 -0.00000000000E+00 -0.50353021040E+03  0.50353021040E+03  0.00000000000E+00 0. -1.
      99926    2    1    2    0    0  0.00000000000E+00  0.00000000000E+00 -0.40146031528E+03  0.60560010551E+03  0.45341052375E+03 0.  0.
      99925    2    3    3    0    0 -0.71466625635E+02  0.85225623655E+02 -0.26707209475E+03  0.39094086992E+03  0.26293796697E+03 0.  0.
         25    1    4    4    0    0  0.33131013066E+01  0.53747909349E+02 -0.12005463707E+03  0.18155009882E+03  0.12509000000E+03 0.  0.
         25    1    3    3    0    0  0.71466625635E+02 -0.85225623655E+02 -0.13438822054E+03  0.21465923559E+03  0.12509000000E+03 0.  0.
         25    1    4    4    0    0 -0.74779726942E+02  0.31477714306E+02 -0.14701745768E+03  0.20939077110E+03  0.12509000000E+03 0.  0.
<mgrwt>
<rscale>  2 0.45341052E+03</rscale>
<asrwt>0</asrwt>
<pdfrwt beam="1">  1       21 0.15010279E-01 0.45341052E+03</pdfrwt>
<pdfrwt beam="2">  1       21 0.74048560E-01 0.45341052E+03</pdfrwt>
<totfact> 0.59073162E+04</totfact>
</mgrwt>
</event>
<event>
 7    0  0.4784406E-002  0.4587561E+03  0.7546771E-02  0.1025143E+00
         21   -1    0    0  502  501  0.00000000000E+00  0.00000000000E+00  0.16702902475E+03  0.16702902475E+03  0.00000000000E+00 0.  1.
         21   -1    0    0  501  502 -0.00000000000E+00 -0.00000000000E+00 -0.31500085231E+03  0.31500085231E+03  0.00000000000E+00 0.  1.
      99926    2    1    2    0    0  0.71054273576E-14 -0.14210854715E-13 -0.14797182756E+03  0.48202987706E+03  0.45875607966E+03 0.  0.
      99925    2    3    3    0    0 -0.55530068302E+02  0.10234816964E+03 -0.86770609284E+02  0.30050347806E+03  0.26308642188E+03 0.  0.
         25    1    4    4    0    0 -0.66673127936E+02  0.55105211242E+02 -0.31074527613E+02  0.15522572165E+03  0.12509000000E+03 0.  0.
         25    1    3    3    0    0  0.55530068302E+02 -0.10234816964E+03 -0.61201218274E+02  0.18152639899E+03  0.12509000000E+03 0.  0.
         25    1    4    4    0    0  0.11143059634E+02  0.47242958394E+02 -0.55696081670E+02  0.14527775642E+03  0.12509000000E+03 0.  0.
<mgrwt>
<rscale>  2 0.45875608E+03</rscale>
<asrwt>0</asrwt>
<pdfrwt beam="1">  1       21 0.24563092E-01 0.45875608E+03</pdfrwt>
<pdfrwt beam="2">  1       21 0.46323654E-01 0.45875608E+03</pdfrwt>
<totfact> 0.64604942E+04</totfact>
</mgrwt>
</event>
<event>
 7    0  0.4784406E-002  0.4547204E+03  0.7546771E-02  0.1026324E+00
         21   -1    0    0  502  501  0.00000000000E+00  0.00000000000E+00  0.21969994961E+04  0.21969994961E+04  0.00000000000E+00 0.  1.
         21   -1    0    0  501  502 -0.00000000000E+00 -0.00000000000E+00 -0.23528749327E+02  0.23528749327E+02  0.00000000000E+00 0.  1.
      99926    2    1    2    0    0  0.00000000000E+00  0.00000000000E+00  0.21734707467E+04  0.22205282454E+04  0.45472035545E+03 0.  0.
      99925    2    3    3    0    0  0.82095691693E+02 -0.61136284281E+02  0.16006734063E+04  0.16253630169E+04  0.26300615076E+03 0.  0.
         25    1    4    4    0    0  0.39510489924E+02 -0.22555962765E+02  0.10171502021E+04  0.10258225441E+04  0.12509000000E+03 0.  0.
         25    1    4    4    0    0  0.42585201769E+02 -0.38580321516E+02  0.58352320422E+03  0.59954047285E+03  0.12509000000E+03 0.  0.
         25    1    3    3    0    0 -0.82095691693E+02  0.61136284281E+02  0.57279734043E+03  0.59516522845E+03  0.12509000000E+03 0.  0.
<mgrwt>
<rscale>  2 0.45472036E+03</rscale>
<asrwt>0</asrwt>
<pdfrwt beam="1">  1       21 0.32308802E+00 0.45472036E+03</pdfrwt>
<pdfrwt beam="2">  1       21 0.34601117E-02 0.45472036E+03</pdfrwt>
<totfact> 0.10454679E+04</totfact>
</mgrwt>
</event>
<event>
 7    0  0.4784406E-002  0.4529754E+03  0.7546771E-02  0.1026838E+00
         21   -1    0    0  502  501  0.00000000000E+00  0.00000000000E+00  0.99200746198E+03  0.99200746198E+03  0.00000000000E+00 0.  1.
         21   -1    0    0  501  502 -0.00000000000E+00 -0.00000000000E+00 -0.51709969344E+02  0.51709969344E+02  0.00000000000E+00 0.  1.
      99926    2    1    2    0    0  0.00000000000E+00 -0.71054273576E-14  0.94029749264E+03  0.10437174313E+04  0.45297538762E+03 0.  0.
      99925    2    3    3    0    0  0.83257839021E+02  0.40623862292E+02  0.45091085937E+03  0.53017196025E+03  0.26302003419E+03 0.  0.
         25    1    3    3    0    0 -0.83257839021E+02 -0.40623862292E+02  0.48938663327E+03  0.51354547108E+03  0.12509000000E+03 0.  0.
         25    1    4    4    0    0  0.29932717422E+02  0.59151290120E+02  0.22401058649E+03  0.26499640310E+03  0.12509000000E+03 0.  0.
         25    1    4    4    0    0  0.53325121599E+02 -0.18527427828E+02  0.22690027288E+03  0.26517555715E+03  0.12509000000E+03 0.  0.
<mgrwt>
<rscale>  2 0.45297539E+03</rscale>
<asrwt>0</asrwt>
<pdfrwt beam="1">  1       21 0.14588344E+00 0.45297539E+03</pdfrwt>
<pdfrwt beam="2">  1       21 0.76044079E-02 0.45297539E+03</pdfrwt>
<totfact> 0.38107448E+04</totfact>
</mgrwt>
</event>
<event>
 7    0  0.4784406E-002  0.4549549E+03  0.7546771E-02  0.1026255E+00
         21   -1    0    0  502  501  0.00000000000E+00  0.00000000000E+00  0.26315977526E+03  0.26315977526E+03  0.00000000000E+00 0. -1.
         21   -1    0    0  501  502 -0.00000000000E+00 -0.00000000000E+00 -0.19663337322E+03  0.19663337322E+03  0.00000000000E+00 0. -1.
      99926    2    1    2    0    0  0.14210854715E-13  0.00000000000E+00  0.66526402043E+02  0.45979314847E+03  0.45495491778E+03 0.  0.
      99925    2    3    3    0    0  0.10534170943E+03 -0.40989878739E+02  0.44089231676E+02  0.28971087244E+03  0.26308075444E+03 0.  0.
         25    1    4    4    0    0  0.79463203482E+02  0.74833636924E+01  0.36854948579E+02  0.15289276234E+03  0.12509000000E+03 0.  0.
         25    1    4    4    0    0  0.25878505950E+02 -0.48473242432E+02  0.72342830964E+01  0.13681811011E+03  0.12509000000E+03 0.  0.
         25    1    3    3    0    0 -0.10534170943E+03  0.40989878739E+02  0.22437170367E+02  0.17008227603E+03  0.12509000000E+03 0.  0.
<mgrwt>
<rscale>  2 0.45495492E+03</rscale>
<asrwt>0</asrwt>
<pdfrwt beam="1">  1       21 0.38699967E-01 0.45495492E+03</pdfrwt>
<pdfrwt beam="2">  1       21 0.28916672E-01 0.45495492E+03</pdfrwt>
<totfact> 0.68220175E+04</totfact>
</mgrwt>
</event>
<event>
 7    0  0.4784406E-002  0.4574278E+03  0.7546771E-02  0.1025530E+00
         21   -1    0    0  502  501  0.00000000000E+00  0.00000000000E+00  0.53726649459E+03  0.53726649459E+03  0.00000000000E+00 0. -1.
         21   -1    0    0  501  502 -0.00000000000E+00 -0.00000000000E+00 -0.97363300979E+02  0.97363300979E+02  0.00000000000E+00 0. -1.
      99926    2    1    2    0    0  0.00000000000E+00  0.00000000000E+00  0.43990319362E+03  0.63462979557E+03  0.45742776225E+03 0.  0.
      99925    2    3    3    0    0 -0.80166474675E+01  0.53954223313E+02  0.41739520864E+03  0.49632056834E+03  0.26294490205E+03 0.  0.
         25    1    4    4    0    0 -0.91104542095E+01  0.18952811756E+02  0.27917351653E+03  0.30663915255E+03  0.12509000000E+03 0.  0.
         25    1    4    4    0    0  0.10938067420E+01  0.35001411557E+02  0.13822169212E+03  0.18968141579E+03  0.12509000000E+03 0.  0.
         25    1    3    3    0    0  0.80166474675E+01 -0.53954223313E+02  0.22507984975E+02  0.13830922723E+03  0.12509000000E+03 0.  0.
<mgrwt>
<rscale>  2 0.45742776E+03</rscale>
<asrwt>0</asrwt>
<pdfrwt beam="1">  1       21 0.79009777E-01 0.45742776E+03</pdfrwt>
<pdfrwt beam="2">  1       21 0.14318133E-01 0.45742776E+03</pdfrwt>
<totfact> 0.55524119E+04</totfact>
</mgrwt>
</event>
<event>
 7    0  0.4784406E-002  0.4538272E+03  0.7546771E-02  0.1026587E+00
         21   -1    0    0  502  501  0.00000000000E+00  0.00000000000E+00  0.13367805066E+04  0.13367805066E+04  0.00000000000E+00 0.  1.
         21   -1    0    0  501  502 -0.00000000000E+00 -0.00000000000E+00 -0.38517753774E+02  0.38517753774E+02  0.00000000000E+00 0.  1.
      99926    2    1    2    0    0  0.00000000000E+00  0.00000000000E+00  0.12982627529E+04  0.13752982604E+04  0.45382720238E+03 0.  0.
      99925    2    3    3    0    0  0.67407891203E+02  0.40470460345E+02  0.57376404773E+03  0.63588797931E+03  0.26261503729E+03 0.  0.
         25    1    4    4    0    0  0.34095433479E+02  0.60583105729E+02  0.29574680562E+03  0.32855211523E+03  0.12509000000E+03 0.  0.
         25    1    3    3    0    0 -0.67407891203E+02 -0.40470460345E+02  0.72449870514E+03  0.73941028111E+03  0.12509000000E+03 0.  0.
         25    1    4    4    0    0  0.33312457724E+02 -0.20112645384E+02  0.27801724210E+03  0.30733586408E+03  0.12509000000E+03 0.  0.
<mgrwt>
<rscale>  2 0.45382720E+03</rscale>
<asrwt>0</asrwt>
<pdfrwt beam="1">  1       21 0.19658534E+00 0.45382720E+03</pdfrwt>
<pdfrwt beam="2">  1       21 0.56643764E-02 0.45382720E+03</pdfrwt>
<totfact> 0.27245273E+04</totfact>
</mgrwt>
</event>
<event>
 7    0  0.4784406E-002  0.4569886E+03  0.7546771E-02  0.1025658E+00
         21   -1    0    0  502  501  0.00000000000E+00  0.00000000000E+00  0.53685739265E+02  0.53685739265E+02  0.00000000000E+00 0. -1.
         21   -1    0    0  501  502 -0.00000000000E+00 -0.00000000000E+00 -0.97250489108E+03  0.97250489108E+03  0.00000000000E+00 0. -1.
      99926    2    1    2    0    0  0.00000000000E+00 -0.31086244690E-14 -0.91881915181E+03  0.10261906303E+04  0.45698859511E+03 0.  0.
      99925    2    3    3    0    0  0.77173160083E+02 -0.15095285320E+01 -0.38686001759E+03  0.47429752122E+03  0.26332392621E+03 0.  0.
         25    1    4    4    0    0  0.32224373107E+02  0.30999178612E+02 -0.14685107227E+03  0.19802046567E+03  0.12509000000E+03 0.  0.
         25    1    4    4    0    0  0.44948786976E+02 -0.32508707144E+02 -0.24000894532E+03  0.27627705555E+03  0.12509000000E+03 0.  0.
         25    1    3    3    0    0 -0.77173160083E+02  0.15095285320E+01 -0.53195913422E+03  0.55189310912E+03  0.12509000000E+03 0.  0.
<mgrwt>
<rscale>  2 0.45698860E+03</rscale>
<asrwt>0</asrwt>
<pdfrwt beam="1">  1       21 0.78949629E-02 0.45698860E+03</pdfrwt>
<pdfrwt beam="2">  1       21 0.14301540E+00 0.45698860E+03</pdfrwt>
<totfact> 0.37576551E+04</totfact>
</mgrwt>
</event>
<event>
 7    0  0.4784406E-002  0.4525041E+03  0.7546771E-02  0.1026978E+00
         21   -1    0    0  502  501  0.00000000000E+00  0.00000000000E+00  0.42532529828E+02  0.42532529828E+02  0.00000000000E+00 0.  1.
         21   -1    0    0  501  502 -0.00000000000E+00 -0.00000000000E+00 -0.12035491372E+04  0.12035491372E+04  0.00000000000E+00 0.  1.
      99926    2    1    2    0    0  0.35527136788E-14  0.00000000000E+00 -0.11610166074E+04  0.12460816670E+04  0.45250409756E+03 0.  0.
      99925    2    3    3    0    0  0.17454177961E+02 -0.87345253544E+02 -0.55055906383E+03  0.61660588337E+03  0.26297089382E+03 0.  0.
         25    1    4    4    0    0 -0.30032895915E+02 -0.52635261687E+02 -0.29300986220E+03  0.32430654180E+03  0.12509000000E+03 0.  0.
         25    1    4    4    0    0  0.47487073876E+02 -0.34709991857E+02 -0.25754920163E+03  0.29229934157E+03  0.12509000000E+03 0.  0.
         25    1    3    3    0    0 -0.17454177961E+02  0.87345253544E+02 -0.61045754352E+03  0.62947578364E+03  0.12509000000E+03 0.  0.
<mgrwt>
<rscale>  2 0.45250410E+03</rscale>
<asrwt>0</asrwt>
<pdfrwt beam="1">  1       21 0.62547845E-02 0.45250410E+03</pdfrwt>
<pdfrwt beam="2">  1       21 0.17699250E+00 0.45250410E+03</pdfrwt>
<totfact> 0.31325914E+04</totfact>
</mgrwt>
</event>
<event>
 7    0  0.4784406E-002  0.4498683E+03  0.7546771E-02  0.1027761E+00
         21   -1    0    0  502  501  0.00000000000E+00  0.00000000000E+00  0.81774513869E+02  0.81774513869E+02  0.00000000000E+00 0.  1.
         21   -1    0    0  501  502 -0.00000000000E+00 -0.00000000000E+00 -0.61871806576E+03  0.61871806576E+03  0.00000000000E+00 0.  1.
      99926    2    1    2    0    0  0.00000000000E+00  0.00000000000E+00 -0.53694355189E+03  0.70049257963E+03  0.44986828761E+03 0.  0.
      99925    2    3    3    0    0  0.10007908664E+02  0.71315881142E+02 -0.46575529296E+03  0.53955349349E+03  0.26268586996E+03 0.  0.
         25    1    3    3    0    0 -0.10007908664E+02 -0.71315881142E+02 -0.71188258938E+02  0.16093908615E+03  0.12509000000E+03 0.  0.
         25    1    4    4    0    0  0.16967278912E+02  0.25833206837E+01 -0.17755499315E+03  0.21787116787E+03  0.12509000000E+03 0.  0.
         25    1    4    4    0    0 -0.69593702481E+01  0.68732560459E+02 -0.28820029981E+03  0.32168232561E+03  0.12509000000E+03 0.  0.
<mgrwt>
<rscale>  2 0.44986829E+03</rscale>
<asrwt>0</asrwt>
<pdfrwt beam="1">  1       21 0.12025663E-01 0.44986829E+03</pdfrwt>
<pdfrwt beam="2">  1       21 0.90987954E-01 0.44986829E+03</pdfrwt>
<totfact> 0.55066585E+04</totfact>
</mgrwt>
</event>
<event>
 7    0  0.4784406E-002  0.4554100E+03  0.7546771E-02  0.1026121E+00
         21   -1    0    0  502  501  0.00000000000E+00  0.00000000000E+00  0.75978096593E+03  0.75978096593E+03  0.00000000000E+00 0. -1.
         21   -1    0    0  501  502 -0.00000000000E+00 -0.00000000000E+00 -0.68242788843E+02  0.68242788843E+02  0.00000000000E+00 0. -1.
      99926    2    1    2    0    0  0.00000000000E+00  0.00000000000E+00  0.69153817709E+03  0.82802375477E+03  0.45541002196E+03 0.  0.
      99925    2    3    3    0    0 -0.76704082540E+02  0.54457853521E+02  0.31889773748E+03  0.42384857070E+03  0.26287386676E+03 0.  0.
         25    1    4    4    0    0 -0.24499382585E+02  0.36268057780E+02  0.10115753752E+03  0.16672116620E+03  0.12509000000E+03 0.  0.
         25    1    3    3    0    0  0.76704082540E+02 -0.54457853521E+02  0.37264043961E+03  0.40417518407E+03  0.12509000000E+03 0.  0.
         25    1    4    4    0    0 -0.52204699955E+02  0.18189795740E+02  0.21774019996E+03  0.25712740450E+03  0.12509000000E+03 0.  0.
<mgrwt>
<rscale>  2 0.45541002E+03</rscale>
<asrwt>0</asrwt>
<pdfrwt beam="1">  1       21 0.11173249E+00 0.45541002E+03</pdfrwt>
<pdfrwt beam="2">  1       21 0.10035705E-01 0.45541002E+03</pdfrwt>
<totfact> 0.46289921E+04</totfact>
</mgrwt>
</event>
<event>
 7    0  0.4784406E-002  0.4670368E+03  0.7546771E-02  0.1022760E+00
         21   -1    0    0  502  501  0.00000000000E+00  0.00000000000E+00  0.21256400658E+03  0.21256400658E+03  0.00000000000E+00 0. -1.
         21   -1    0    0  501  502 -0.00000000000E+00 -0.00000000000E+00 -0.25653842108E+03  0.25653842108E+03  0.00000000000E+00 0. -1.
      99926    2    1    2    0    0 -0.71054273576E-14  0.00000000000E+00 -0.43974414501E+02  0.46910242765E+03  0.46703676354E+03 0.  0.
      99925    2    3    3    0    0  0.62547561405E+02  0.93980503130E+02 -0.79337583757E+02  0.29693217980E+03  0.26292534073E+03 0.  0.
         25    1    3    3    0    0 -0.62547561405E+02 -0.93980503130E+02  0.35363169256E+02  0.17217024785E+03  0.12509000000E+03 0.  0.
         25    1    4    4    0    0  0.23544611881E+02  0.61061643978E+02 -0.18512750474E+01  0.14118713976E+03  0.12509000000E+03 0.  0.
         25    1    4    4    0    0  0.39002949524E+02  0.32918859152E+02 -0.77486308710E+02  0.15574504004E+03  0.12509000000E+03 0.  0.
<mgrwt>
<rscale>  2 0.46703676E+03</rscale>
<asrwt>0</asrwt>
<pdfrwt beam="1">  1       21 0.31259413E-01 0.46703676E+03</pdfrwt>
<pdfrwt beam="2">  1       21 0.37726238E-01 0.46703676E+03</pdfrwt>
<totfact> 0.61411667E+04</totfact>
</mgrwt>
</event>
<event>
 7    0  0.4784406E-002  0.4736784E+03  0.7546771E-02  0.1020887E+00
         21   -1    0    0  502  501  0.00000000000E+00  0.00000000000E+00  0.12792735874E+04  0.12792735874E+04  0.00000000000E+00 0.  1.
         21   -1    0    0  501  502 -0.00000000000E+00 -0.00000000000E+00 -0.43847381962E+02  0.43847381962E+02  0.00000000000E+00 0.  1.
      99926    2    1    2    0    0  0.00000000000E+00  0.35527136788E-14  0.12354262054E+04  0.13231209694E+04  0.47367836185E+03 0.  0.
      99925    2    3    3    0    0  0.68361003368E+02 -0.17734503423E+02  0.46048802885E+03  0.53498111817E+03  0.26299778079E+03 0.  0.
         25    1    4    4    0    0  0.37568138328E+02  0.30129855763E+02  0.24845994512E+03  0.28231015861E+03  0.12509000000E+03 0.  0.
         25    1    3    3    0    0 -0.68361003368E+02  0.17734503423E+02  0.77493817660E+03  0.78813985119E+03  0.12509000000E+03 0.  0.
         25    1    4    4    0    0  0.30792865040E+02 -0.47864359187E+02  0.21202808373E+03  0.25267095957E+03  0.12509000000E+03 0.  0.
<mgrwt>
<rscale>  2 0.47367836E+03</rscale>
<asrwt>0</asrwt>
<pdfrwt beam="1">  1       21 0.18812844E+00 0.47367836E+03</pdfrwt>
<pdfrwt beam="2">  1       21 0.64481453E-02 0.47367836E+03</pdfrwt>
<totfact> 0.24667159E+04</totfact>
</mgrwt>
</event>
<event>
 7    0  0.4784406E-002  0.4456417E+03  0.7546771E-02  0.1029030E+00
         21   -1    0    0  502  501  0.00000000000E+00  0.00000000000E+00  0.13126626011E+03  0.13126626011E+03  0.00000000000E+00 0. -1.
         21   -1    0    0  501  502 -0.00000000000E+00 -0.00000000000E+00 -0.37823223948E+03  0.37823223948E+03  0.00000000000E+00 0. -1.
      99926    2    1    2    0    0  0.00000000000E+00  0.00000000000E+00 -0.24696597937E+03  0.50949849959E+03  0.44564170150E+03 0.  0.
      99925    2    3    3    0    0 -0.95849223652E+01 -0.86815917637E+02 -0.22154415574E+03  0.35482900839E+03  0.26304550549E+03 0.  0.
         25    1    3    3    0    0  0.95849223652E+01  0.86815917637E+02 -0.25421823627E+02  0.15466949120E+03  0.12509000000E+03 0.  0.
         25    1    4    4    0    0 -0.27183080489E+02 -0.11878580389E+02 -0.12325209828E+03  0.17809718798E+03  0.12509000000E+03 0.  0.
         25    1    4    4    0    0  0.17598158124E+02 -0.74937337248E+02 -0.98292057462E+02  0.17673182040E+03  0.12509000000E+03 0.  0.
<mgrwt>
<rscale>  2 0.44564170E+03</rscale>
<asrwt>0</asrwt>
<pdfrwt beam="1">  1       21 0.19303862E-01 0.44564170E+03</pdfrwt>
<pdfrwt beam="2">  1       21 0.55622388E-01 0.44564170E+03</pdfrwt>
<totfact> 0.69637686E+04</totfact>
</mgrwt>
</event>
<event>
 7    0  0.4784406E-002  0.4307459E+03  0.7546771E-02  0.1033625E+00
         21   -1    0    0  502  501  0.00000000000E+00  0.00000000000E+00  0.54633040612E+03  0.54633040612E+03  0.00000000000E+00 0. -1.
         21   -1    0    0  501  502 -0.00000000000E+00 -0.00000000000E+00 -0.84903761003E+02  0.84903761003E+02  0.00000000000E+00 0. -1.
      99926    2    1    2    0    0  0.88817841970E-15  0.00000000000E+00  0.46142664512E+03  0.63123416713E+03  0.43074589368E+03 0.  0.
      99925    2    3    3    0    0 -0.25860805515E+01 -0.64070683105E+02  0.20796131151E+03  0.34139986328E+03  0.26304794110E+03 0.  0.
         25    1    4    4    0    0 -0.27870073769E+02 -0.13529906217E+02  0.13219079110E+03  0.18461233091E+03  0.12509000000E+03 0.  0.
         25    1    4    4    0    0  0.25283993217E+02 -0.50540776888E+02  0.75770520417E+02  0.15678753237E+03  0.12509000000E+03 0.  0.
         25    1    3    3    0    0  0.25860805515E+01  0.64070683105E+02  0.25346533361E+03  0.28983430385E+03  0.12509000000E+03 0.  0.
<mgrwt>
<rscale>  2 0.43074589E+03</rscale>
<asrwt>0</asrwt>
<pdfrwt beam="1">  1       21 0.80342705E-01 0.43074589E+03</pdfrwt>
<pdfrwt beam="2">  1       21 0.12485847E-01 0.43074589E+03</pdfrwt>
<totfact> 0.69101031E+04</totfact>
</mgrwt>
</event>
<event>
 7    0  0.4784406E-002  0.4648368E+03  0.7546771E-02  0.1023388E+00
         21   -1    0    0  502  501  0.00000000000E+00  0.00000000000E+00  0.22588189359E+03  0.22588189359E+03  0.00000000000E+00 0. -1.
         21   -1    0    0  501  502 -0.00000000000E+00 -0.00000000000E+00 -0.23914410761E+03  0.23914410761E+03  0.00000000000E+00 0. -1.
      99926    2    1    2    0    0  0.00000000000E+00  0.00000000000E+00 -0.13262214022E+02  0.46502600121E+03  0.46483684823E+03 0.  0.
      99925    2    3    3    0    0  0.87138055376E+02 -0.76059649328E+02  0.31282327122E+02  0.28892990472E+03  0.26291404470E+03 0.  0.
         25    1    4    4    0    0  0.82121463460E+02 -0.53982215220E+02  0.52156340040E+01  0.15916257493E+03  0.12509000000E+03 0.  0.
         25    1    3    3    0    0 -0.87138055376E+02  0.76059649328E+02 -0.44544541143E+02  0.17609609648E+03  0.12509000000E+03 0.  0.
         25    1    4    4    0    0  0.50165919165E+01 -0.22077434108E+02  0.26066693118E+02  0.12976732979E+03  0.12509000000E+03 0.  0.
<mgrwt>
<rscale>  2 0.46483685E+03</rscale>
<asrwt>0</asrwt>
<pdfrwt beam="1">  1       21 0.33217926E-01 0.46483685E+03</pdfrwt>
<pdfrwt beam="2">  1       21 0.35168251E-01 0.46483685E+03</pdfrwt>
<totfact> 0.62746154E+04</totfact>
</mgrwt>
</event>
<event>
 7    0  0.4784406E-002  0.4560818E+03  0.7546771E-02  0.1025924E+00
         21   -1    0    0  502  501  0.00000000000E+00  0.00000000000E+00  0.62301730558E+03  0.62301730558E+03  0.00000000000E+00 0. -1.
         21   -1    0    0  501  502 -0.00000000000E+00 -0.00000000000E+00 -0.83469043859E+02  0.83469043859E+02  0.00000000000E+00 0. -1.
      99926    2    1    2    0    0  0.00000000000E+00  0.00000000000E+00  0.53954826172E+03  0.70648634944E+03  0.45608182952E+03 0.  0.
      99925    2    3    3    0    0  0.51545633434E+02 -0.78754481244E+02  0.43920796080E+03  0.52054306580E+03  0.26306316709E+03 0.  0.
         25    1    3    3    0    0 -0.51545633434E+02  0.78754481244E+02  0.10034030092E+03  0.18594328364E+03  0.12509000000E+03 0.  0.
         25    1    4    4    0    0  0.47611015281E+02 -0.15396192211E+02  0.26127040514E+03  0.29396187544E+03  0.12509000000E+03 0.  0.
         25    1    4    4    0    0  0.39346181531E+01 -0.63358289033E+02  0.17793755566E+03  0.22658119036E+03  0.12509000000E+03 0.  0.
<mgrwt>
<rscale>  2 0.45608183E+03</rscale>
<asrwt>0</asrwt>
<pdfrwt beam="1">  1       21 0.91620190E-01 0.45608183E+03</pdfrwt>
<pdfrwt beam="2">  1       21 0.12274860E-01 0.45608183E+03</pdfrwt>
<totfact> 0.52107235E+04</totfact>
</mgrwt>
</event>
<event>
 7    0  0.4784406E-002  0.4565480E+03  0.7546771E-02  0.1025787E+00
         21   -1    0    0  502  501  0.00000000000E+00  0.00000000000E+00  0.62190134252E+02  0.62190134252E+02  0.00000000000E+00 0.  1.
         21   -1    0    0  501  502 -0.00000000000E+00 -0.00000000000E+00 -0.83789844423E+03  0.83789844423E+03  0.00000000000E+00 0.  1.
      99926    2    1    2    0    0  0.35527136788E-14  0.14210854715E-13 -0.77570830997E+03  0.90008857848E+03  0.45654798975E+03 0.  0.
      99925    2    3    3    0    0  0.22949423444E+02  0.81521463199E+02 -0.63993863731E+03  0.69697940312E+03  0.26284292621E+03 0.  0.
         25    1    4    4    0    0  0.11410837819E+02  0.43914522377E+02 -0.22068578363E+03  0.25769830363E+03  0.12509000000E+03 0.  0.
         25    1    3    3    0    0 -0.22949423444E+02 -0.81521463199E+02 -0.13576967267E+03  0.20310917536E+03  0.12509000000E+03 0.  0.
         25    1    4    4    0    0  0.11538585625E+02  0.37606940822E+02 -0.41925285368E+03  0.43928109949E+03  0.12509000000E+03 0.  0.
<mgrwt>
<rscale>  2 0.45654799E+03</rscale>
<asrwt>0</asrwt>
<pdfrwt beam="1">  1       21 0.91456073E-02 0.45654799E+03</pdfrwt>
<pdfrwt beam="2">  1       21 0.12322037E+00 0.45654799E+03</pdfrwt>
<totfact> 0.42709855E+04</totfact>
</mgrwt>
</event>
<event>
 7    0  0.4784406E-002  0.4515375E+03  0.7546771E-02  0.1027265E+00
         21   -1    0    0  502  501  0.00000000000E+00  0.00000000000E+00  0.18873378708E+03  0.18873378708E+03  0.00000000000E+00 0.  1.
         21   -1    0    0  501  502 -0.00000000000E+00 -0.00000000000E+00 -0.27007101529E+03  0.27007101529E+03  0.00000000000E+00 0.  1.
      99926    2    1    2    0    0  0.00000000000E+00  0.00000000000E+00 -0.81337228208E+02  0.45880480238E+03  0.45153748681E+03 0.  0.
      99925    2    3    3    0    0  0.82137146953E+02 -0.72935471064E+02 -0.47870938219E+02  0.28900022495E+03  0.26298937136E+03 0.  0.
         25    1    4    4    0    0  0.12130080291E+02 -0.36069132894E+02 -0.52546798612E+02  0.14091414173E+03  0.12509000000E+03 0.  0.
         25    1    4    4    0    0  0.70007066662E+02 -0.36866338170E+02  0.46758603934E+01  0.14808608322E+03  0.12509000000E+03 0.  0.
         25    1    3    3    0    0 -0.82137146953E+02  0.72935471064E+02 -0.33466289990E+02  0.16980457743E+03  0.12509000000E+03 0.  0.
<mgrwt>
<rscale>  2 0.45153749E+03</rscale>
<asrwt>0</asrwt>
<pdfrwt beam="1">  1       21 0.27754969E-01 0.45153749E+03</pdfrwt>
<pdfrwt beam="2">  1       21 0.39716326E-01 0.45153749E+03</pdfrwt>
<totfact> 0.70184494E+04</totfact>
</mgrwt>
</event>
<event>
 7    0  0.4784406E-002  0.4572735E+03  0.7546771E-02  0.1025575E+00
         21   -1    0    0  502  501  0.00000000000E+00  0.00000000000E+00  0.74099836957E+03  0.74099836957E+03  0.00000000000E+00 0. -1.
         21   -1    0    0  501  502 -0.00000000000E+00 -0.00000000000E+00 -0.70546392870E+02  0.70546392870E+02  0.00000000000E+00 0. -1.
      99926    2    1    2    0    0  0.00000000000E+00  0.00000000000E+00  0.67045197670E+03  0.81154476244E+03  0.45727349407E+03 0.  0.
      99925    2    3    3    0    0 -0.73361972398E+02 -0.79421300100E+02  0.34975120430E+03  0.45073149298E+03  0.26295104477E+03 0.  0.
         25    1    4    4    0    0 -0.16374068355E+02 -0.26635641641E+02  0.21732408915E+03  0.25269514310E+03  0.12509000000E+03 0.  0.
         25    1    3    3    0    0  0.73361972398E+02  0.79421300100E+02  0.32070077240E+03  0.36081326946E+03  0.12509000000E+03 0.  0.
         25    1    4    4    0    0 -0.56987904044E+02 -0.52785658459E+02  0.13242711515E+03  0.19803634988E+03  0.12509000000E+03 0.  0.
<mgrwt>
<rscale>  2 0.45727349E+03</rscale>
<asrwt>0</asrwt>
<pdfrwt beam="1">  1       21 0.10897034E+00 0.45727349E+03</pdfrwt>
<pdfrwt beam="2">  1       21 0.10374470E-01 0.45727349E+03</pdfrwt>
<totfact> 0.46378505E+04</totfact>
</mgrwt>
</event>
<event>
 7    0  0.4784406E-002  0.4311677E+03  0.7546771E-02  0.1033492E+00
         21   -1    0    0  502  501  0.00000000000E+00  0.00000000000E+00  0.44984873007E+03  0.44984873007E+03  0.00000000000E+00 0.  1.
         21   -1    0    0  501  502 -0.00000000000E+00 -0.00000000000E+00 -0.10331558738E+03  0.10331558738E+03  0.00000000000E+00 0.  1.
      99926    2    1    2    0    0  0.00000000000E+00  0.00000000000E+00  0.34653314269E+03  0.55316431746E+03  0.43116765083E+03 0.  0.
      99925    2    3    3    0    0  0.80361192913E+02 -0.34020826870E+02  0.24521334583E+03  0.37005629654E+03  0.26305273169E+03 0.  0.
         25    1    4    4    0    0  0.76621216633E+02 -0.23925610475E+02  0.10579439006E+03  0.18243685687E+03  0.12509000000E+03 0.  0.
         25    1    4    4    0    0  0.37399762799E+01 -0.10095216395E+02  0.13941895577E+03  0.18761943968E+03  0.12509000000E+03 0.  0.
         25    1    3    3    0    0 -0.80361192913E+02  0.34020826870E+02  0.10131979686E+03  0.18310802091E+03  0.12509000000E+03 0.  0.
<mgrwt>
<rscale>  2 0.43116765E+03</rscale>
<asrwt>0</asrwt>
<pdfrwt beam="1">  1       21 0.66154224E-01 0.43116765E+03</pdfrwt>
<pdfrwt beam="2">  1       21 0.15193469E-01 0.43116765E+03</pdfrwt>
<totfact> 0.74792979E+04</totfact>
</mgrwt>
</event>
<event>
 7    0  0.4784406E-002  0.4569407E+03  0.7546771E-02  0.1025672E+00
         21   -1    0    0  502  501  0.00000000000E+00  0.00000000000E+00  0.22086459526E+03  0.22086459526E+03  0.00000000000E+00 0. -1.
         21   -1    0    0  501  502 -0.00000000000E+00 -0.00000000000E+00 -0.23633803628E+03  0.23633803628E+03  0.00000000000E+00 0. -1.
      99926    2    1    2    0    0  0.00000000000E+00  0.00000000000E+00 -0.15473441015E+02  0.45720263154E+03  0.45694071706E+03 0.  0.
      99925    2    3    3    0    0 -0.82926770456E+02 -0.78752379215E+02 -0.20785626417E+02  0.28763107170E+03  0.26309846950E+03 0.  0.
         25    1    4    4    0    0 -0.59325236805E+02 -0.24726482553E+01 -0.88255588832E+01  0.13874795963E+03  0.12509000000E+03 0.  0.
         25    1    3    3    0    0  0.82926770456E+02  0.78752379215E+02  0.53121854016E+01  0.16957155983E+03  0.12509000000E+03 0.  0.
         25    1    4    4    0    0 -0.23601533651E+02 -0.76279730959E+02 -0.11960067533E+02  0.14888311208E+03  0.12509000000E+03 0.  0.
<mgrwt>
<rscale>  2 0.45694072E+03</rscale>
<asrwt>0</asrwt>
<pdfrwt beam="1">  1       21 0.32480088E-01 0.45694072E+03</pdfrwt>
<pdfrwt beam="2">  1       21 0.34755594E-01 0.45694072E+03</pdfrwt>
<totfact> 0.67336002E+04</totfact>
</mgrwt>
</event>
<event>
 7    0  0.4784406E-002  0.4522746E+03  0.7546771E-02  0.1027046E+00
         21   -1    0    0  502  501  0.00000000000E+00  0.00000000000E+00  0.37109752990E+02  0.37109752990E+02  0.00000000000E+00 0. -1.
         21   -1    0    0  501  502 -0.00000000000E+00 -0.00000000000E+00 -0.13780224090E+04  0.13780224090E+04  0.00000000000E+00 0. -1.
      99926    2    1    2    0    0 -0.53290705182E-14  0.14210854715E-13 -0.13409126560E+04  0.14151321620E+04  0.45227456799E+03 0.  0.
      99925    2    3    3    0    0  0.11154199400E+02 -0.96478760183E+02 -0.10110580686E+04  0.10492303661E+04  0.26308435080E+03 0.  0.
         25    1    3    3    0    0 -0.11154199400E+02  0.96478760183E+02 -0.32985458736E+03  0.36590179589E+03  0.12509000000E+03 0.  0.
         25    1    4    4    0    0  0.45353347958E+02 -0.39736978862E+02 -0.50737860084E+03  0.52603850273E+03  0.12509000000E+03 0.  0.
         25    1    4    4    0    0 -0.34199148558E+02 -0.56741781321E+02 -0.50367946780E+03  0.52319186336E+03  0.12509000000E+03 0.  0.
<mgrwt>
<rscale>  2 0.45227457E+03</rscale>
<asrwt>0</asrwt>
<pdfrwt beam="1">  1       21 0.54573156E-02 0.45227457E+03</pdfrwt>
<pdfrwt beam="2">  1       21 0.20265039E+00 0.45227457E+03</pdfrwt>
<totfact> 0.26488087E+04</totfact>
</mgrwt>
</event>
<event>
 7    0  0.4784406E-002  0.4549219E+03  0.7546771E-02  0.1026264E+00
         21   -1    0    0  502  501  0.00000000000E+00  0.00000000000E+00  0.10385646274E+03  0.10385646274E+03  0.00000000000E+00 0.  1.
         21   -1    0    0  501  502 -0.00000000000E+00 -0.00000000000E+00 -0.49817306873E+03  0.49817306873E+03  0.00000000000E+00 0.  1.
      99926    2    1    2    0    0  0.00000000000E+00  0.00000000000E+00 -0.39431660599E+03  0.60202953147E+03  0.45492193946E+03 0.  0.
      99925    2    3    3    0    0  0.33969453171E+02  0.11868862984E+02 -0.10616663681E+03  0.28584492322E+03  0.26294708917E+03 0.  0.
         25    1    4    4    0    0  0.44266756565E+02  0.36203822481E+02 -0.55935450687E+02  0.14848079082E+03  0.12509000000E+03 0.  0.
         25    1    3    3    0    0 -0.33969453171E+02 -0.11868862984E+02 -0.28814996917E+03  0.31618460825E+03  0.12509000000E+03 0.  0.
         25    1    4    4    0    0 -0.10297303394E+02 -0.24334959497E+02 -0.50231186125E+02  0.13736413240E+03  0.12509000000E+03 0.  0.
<mgrwt>
<rscale>  2 0.45492194E+03</rscale>
<asrwt>0</asrwt>
<pdfrwt beam="1">  1       21 0.15273009E-01 0.45492194E+03</pdfrwt>
<pdfrwt beam="2">  1       21 0.73260747E-01 0.45492194E+03</pdfrwt>
<totfact> 0.58589644E+04</totfact>
</mgrwt>
</event>
<event>
 7    0  0.4784406E-002  0.4560195E+03  0.7546771E-02  0.1025942E+00
         21   -1    0    0  502  501  0.00000000000E+00  0.00000000000E+00  0.46949069518E+02  0.46949069518E+02  0.00000000000E+00 0. -1.
         21   -1    0    0  501  502 -0.00000000000E+00 -0.00000000000E+00 -0.11073372520E+04  0.11073372520E+04  0.00000000000E+00 0. -1.
      99926    2    1    2    0    0  0.14210854715E-13  0.71054273576E-14 -0.10603881825E+04  0.11542863216E+04  0.45601953303E+03 0.  0.
      99925    2    3    3    0    0  0.10995057953E+03  0.27518076577E+02 -0.69819530509E+03  0.75468957102E+03  0.26312219610E+03 0.  0.
         25    1    4    4    0    0  0.33152199075E+02 -0.16059077460E+02 -0.37580611611E+03  0.39778726385E+03  0.12509000000E+03 0.  0.
         25    1    4    4    0    0  0.76798380455E+02  0.43577154037E+02 -0.32238918898E+03  0.35690230717E+03  0.12509000000E+03 0.  0.
         25    1    3    3    0    0 -0.10995057953E+03 -0.27518076577E+02 -0.36219287743E+03  0.39959675053E+03  0.12509000000E+03 0.  0.
<mgrwt>
<rscale>  2 0.45601953E+03</rscale>
<asrwt>0</asrwt>
<pdfrwt beam="1">  1       21 0.69042745E-02 0.45601953E+03</pdfrwt>
<pdfrwt beam="2">  1       21 0.16284372E+00 0.45601953E+03</pdfrwt>
<totfact> 0.33373611E+04</totfact>
</mgrwt>
</event>
<event>
 7    0  0.4784406E-002  0.4538913E+03  0.7546771E-02  0.1026568E+00
         21   -1    0    0  502  501  0.00000000000E+00  0.00000000000E+00  0.28914991773E+04  0.28914991773E+04  0.00000000000E+00 0.  1.
         21   -1    0    0  501  502 -0.00000000000E+00 -0.00000000000E+00 -0.17812330038E+02  0.17812330038E+02  0.00000000000E+00 0.  1.
      99926    2    1    2    0    0  0.00000000000E+00  0.00000000000E+00  0.28736868473E+04  0.29093115074E+04  0.45389134229E+03 0.  0.
      99925    2    3    3    0    0  0.99511502599E+02 -0.13637616877E+02  0.14937803987E+04  0.15201110760E+04  0.26319057711E+03 0.  0.
         25    1    4    4    0    0  0.69670765174E+02  0.28362703646E+02  0.81829522002E+03  0.83121178631E+03  0.12509000000E+03 0.  0.
         25    1    4    4    0    0  0.29840737425E+02 -0.42000320523E+02  0.67548517872E+03  0.68889928967E+03  0.12509000000E+03 0.  0.
         25    1    3    3    0    0 -0.99511502599E+02  0.13637616877E+02  0.13799064486E+04  0.13892004314E+04  0.12509000000E+03 0.  0.
<mgrwt>
<rscale>  2 0.45389134E+03</rscale>
<asrwt>0</asrwt>
<pdfrwt beam="1">  1       21 0.42522014E+00 0.45389134E+03</pdfrwt>
<pdfrwt beam="2">  1       21 0.26194623E-02 0.45389134E+03</pdfrwt>
<totfact> 0.38174562E+03</totfact>
</mgrwt>
</event>
<event>
 7    0  0.4784406E-002  0.4498801E+03  0.7546771E-02  0.1027758E+00
         21   -1    0    0  502  501  0.00000000000E+00  0.00000000000E+00  0.23985679934E+03  0.23985679934E+03  0.00000000000E+00 0. -1.
         21   -1    0    0  501  502 -0.00000000000E+00 -0.00000000000E+00 -0.21095094996E+03  0.21095094996E+03  0.00000000000E+00 0. -1.
      99926    2    1    2    0    0  0.35527136788E-14  0.00000000000E+00  0.28905849371E+02  0.45080774930E+03  0.44988007146E+03 0.  0.
      99925    2    3    3    0    0  0.20270055621E+02  0.76162110085E+02  0.92701482993E+02  0.28978311411E+03  0.26300027777E+03 0.  0.
         25    1    4    4    0    0  0.13715756706E+02  0.14873500594E+01  0.63872462068E+02  0.14112949268E+03  0.12509000000E+03 0.  0.
         25    1    3    3    0    0 -0.20270055621E+02 -0.76162110085E+02 -0.63795633622E+02  0.16102463519E+03  0.12509000000E+03 0.  0.
         25    1    4    4    0    0  0.65542989156E+01  0.74674760026E+02  0.28829020926E+02  0.14865362144E+03  0.12509000000E+03 0.  0.
<mgrwt>
<rscale>  2 0.44988007E+03</rscale>
<asrwt>0</asrwt>
<pdfrwt beam="1">  1       21 0.35273059E-01 0.44988007E+03</pdfrwt>
<pdfrwt beam="2">  1       21 0.31022198E-01 0.44988007E+03</pdfrwt>
<totfact> 0.71740207E+04</totfact>
</mgrwt>
</event>
<event>
 6    0  0.4784406E-002  0.4532501E+03  0.7546771E-02  0.1026757E+00
         21   -1    0    0  502  501  0.00000000000E+00  0.00000000000E+00  0.68386073509E+03  0.68386073509E+03  0.00000000000E+00 0. -1.
         21   -1    0    0  501  502 -0.00000000000E+00 -0.00000000000E+00 -0.75101412564E+02  0.75101412564E+02  0.00000000000E+00 0. -1.
      99926    2    1    2    0    0  0.00000000000E+00  0.00000000000E+00  0.60875932253E+03  0.75896214766E+03  0.45325007315E+03 0.  0.
         25    1    3    3    0    0  0.23161059575E+02  0.53330828202E+02  0.14381032439E+03  0.19927250040E+03  0.12509000000E+03 0.  0.
         25    1    3    3    0    0 -0.31602111962E+02  0.16525347798E+02  0.89902043697E+02  0.15811915179E+03  0.12509000000E+03 0.  0.
         25    1    3    3    0    0  0.84410523871E+01 -0.69856176000E+02  0.37504695444E+03  0.40157049547E+03  0.12509000000E+03 0.  0.
<mgrwt>
<rscale>  2 0.45325007E+03</rscale>
<asrwt>0</asrwt>
<pdfrwt beam="1">  1       21 0.10056775E+00 0.45325007E+03</pdfrwt>
<pdfrwt beam="2">  1       21 0.11044326E-01 0.45325007E+03</pdfrwt>
<totfact> 0.50503617E+04</totfact>
</mgrwt>
</event>
<event>
 7    0  0.4784406E-002  0.4552849E+03  0.7546771E-02  0.1026158E+00
         21   -1    0    0  502  501  0.00000000000E+00  0.00000000000E+00  0.31597890232E+03  0.31597890232E+03  0.00000000000E+00 0. -1.
         21   -1    0    0  501  502 -0.00000000000E+00 -0.00000000000E+00 -0.16400175843E+03  0.16400175843E+03  0.00000000000E+00 0. -1.
      99926    2    1    2    0    0  0.00000000000E+00  0.00000000000E+00  0.15197714389E+03  0.47998066076E+03  0.45528494642E+03 0.  0.
      99925    2    3    3    0    0 -0.40787820902E+02  0.94581318979E+02  0.45576786721E+02  0.28613067665E+03  0.26302898775E+03 0.  0.
         25    1    4    4    0    0  0.90150542864E+00  0.76271488917E+02  0.44094015442E+02  0.15300308177E+03  0.12509000000E+03 0.  0.
         25    1    4    4    0    0 -0.41689326330E+02  0.18309830061E+02  0.14827712787E+01  0.13312759488E+03  0.12509000000E+03 0.  0.
         25    1    3    3    0    0  0.40787820902E+02 -0.94581318979E+02  0.10640035717E+03  0.19384998411E+03  0.12509000000E+03 0.  0.
<mgrwt>
<rscale>  2 0.45528495E+03</rscale>
<asrwt>0</asrwt>
<pdfrwt beam="1">  1       21 0.46467486E-01 0.45528495E+03</pdfrwt>
<pdfrwt beam="2">  1       21 0.24117906E-01 0.45528495E+03</pdfrwt>
<totfact> 0.66550857E+04</totfact>
</mgrwt>
</event>
<event>
 7    0  0.4784406E-002  0.4486255E+03  0.7546771E-02  0.1028133E+00
         21   -1    0    0  502  501  0.00000000000E+00  0.00000000000E+00  0.65107350283E+03  0.65107350283E+03  0.00000000000E+00 0. -1.
         21   -1    0    0  501  502 -0.00000000000E+00 -0.00000000000E+00 -0.77281931584E+02  0.77281931584E+02  0.00000000000E+00 0. -1.
      99926    2    1    2    0    0  0.00000000000E+00  0.00000000000E+00  0.57379157125E+03  0.72835543442E+03  0.44862553606E+03 0.  0.
      99925    2    3    3    0    0  0.79360366056E+02 -0.66417906023E+02  0.40753053411E+03  0.49597719423E+03  0.26306431728E+03 0.  0.
         25    1    4    4    0    0  0.22488019349E+02 -0.36552281515E+02  0.26270889369E+03  0.29411775060E+03  0.12509000000E+03 0.  0.
         25    1    4    4    0    0  0.56872346707E+02 -0.29865624507E+02  0.14482164042E+03  0.20185944363E+03  0.12509000000E+03 0.  0.
         25    1    3    3    0    0 -0.79360366056E+02  0.66417906023E+02  0.16626103714E+03  0.23237824019E+03  0.12509000000E+03 0.  0.
<mgrwt>
<rscale>  2 0.44862554E+03</rscale>
<asrwt>0</asrwt>
<pdfrwt beam="1">  1       21 0.95746100E-01 0.44862554E+03</pdfrwt>
<pdfrwt beam="2">  1       21 0.11364990E-01 0.44862554E+03</pdfrwt>
<totfact> 0.54049192E+04</totfact>
</mgrwt>
</event>
<event>
 7    0  0.4784406E-002  0.4495788E+03  0.7546771E-02  0.1027848E+00
         21   -1    0    0  502  501  0.00000000000E+00  0.00000000000E+00  0.12918080588E+03  0.12918080588E+03  0.00000000000E+00 0.  1.
         21   -1    0    0  501  502 -0.00000000000E+00 -0.00000000000E+00 -0.39115922017E+03  0.39115922017E+03  0.00000000000E+00 0.  1.
      99926    2    1    2    0    0  0.00000000000E+00  0.00000000000E+00 -0.26197841429E+03  0.52034002606E+03  0.44957875079E+03 0.  0.
      99925    2    3    3    0    0  0.46667659203E+02  0.90869427507E+02 -0.12503996738E+03  0.30859780161E+03  0.26298761652E+03 0.  0.
         25    1    4    4    0    0  0.26334662974E+02  0.80160127917E+02 -0.41704291231E+02  0.15654365713E+03  0.12509000000E+03 0.  0.
         25    1    3    3    0    0 -0.46667659203E+02 -0.90869427507E+02 -0.13693844691E+03  0.21174222445E+03  0.12509000000E+03 0.  0.
         25    1    4    4    0    0  0.20332996229E+02  0.10709299590E+02 -0.83335676147E+02  0.15205414448E+03  0.12509000000E+03 0.  0.
<mgrwt>
<rscale>  2 0.44957875E+03</rscale>
<asrwt>0</asrwt>
<pdfrwt beam="1">  1       21 0.18997178E-01 0.44957875E+03</pdfrwt>
<pdfrwt beam="2">  1       21 0.57523413E-01 0.44957875E+03</pdfrwt>
<totfact> 0.66685371E+04</totfact>
</mgrwt>
</event>
<event>
 7    0  0.4784406E-002  0.4162851E+03  0.7546771E-02  0.1038282E+00
         21   -1    0    0  502  501  0.00000000000E+00  0.00000000000E+00  0.13657769377E+03  0.13657769377E+03  0.00000000000E+00 0. -1.
         21   -1    0    0  501  502 -0.00000000000E+00 -0.00000000000E+00 -0.31720639403E+03  0.31720639403E+03  0.00000000000E+00 0. -1.
      99926    2    1    2    0    0 -0.17763568394E-14  0.00000000000E+00 -0.18062870026E+03  0.45378408780E+03  0.41628508379E+03 0.  0.
      99925    2    3    3    0    0 -0.14514134966E+02  0.23999370117E+02 -0.47074950771E+02  0.26866050210E+03  0.26301289801E+03 0.  0.
         25    1    3    3    0    0  0.14514134966E+02 -0.23999370117E+02 -0.13355374949E+03  0.18512358570E+03  0.12509000000E+03 0.  0.
         25    1    4    4    0    0  0.20167911163E+02  0.38363456502E+02 -0.38061432285E+02  0.13774861220E+03  0.12509000000E+03 0.  0.
         25    1    4    4    0    0 -0.34682046129E+02 -0.14364086385E+02 -0.90135184851E+01  0.13091188990E+03  0.12509000000E+03 0.  0.
<mgrwt>
<rscale>  2 0.41628508E+03</rscale>
<asrwt>0</asrwt>
<pdfrwt beam="1">  1       21 0.20084955E-01 0.41628508E+03</pdfrwt>
<pdfrwt beam="2">  1       21 0.46647998E-01 0.41628508E+03</pdfrwt>
<totfact> 0.94535725E+04</totfact>
</mgrwt>
</event>
<event>
 7    0  0.4784406E-002  0.4283703E+03  0.7546771E-02  0.1034376E+00
         21   -1    0    0  502  501  0.00000000000E+00  0.00000000000E+00  0.97148262917E+02  0.97148262917E+02  0.00000000000E+00 0.  1.
         21   -1    0    0  501  502 -0.00000000000E+00 -0.00000000000E+00 -0.47221927518E+03  0.47221927518E+03  0.00000000000E+00 0.  1.
      99926    2    1    2    0    0 -0.13322676296E-14  0.17763568394E-14 -0.37507101226E+03  0.56936753809E+03  0.42837031783E+03 0.  0.
      99925    2    3    3    0    0 -0.28781836058E+01  0.52808787749E+01 -0.12877963158E+03  0.29306494325E+03  0.26318566798E+03 0.  0.
         25    1    3    3    0    0  0.28781836058E+01 -0.52808787749E+01 -0.24629138068E+03  0.27630259485E+03  0.12509000000E+03 0.  0.
         25    1    4    4    0    0 -0.35617451657E+02 -0.81177461788E+01 -0.86318640632E+02  0.15631032111E+03  0.12509000000E+03 0.  0.
         25    1    4    4    0    0  0.32739268051E+02  0.13398624954E+02 -0.42460990948E+02  0.13675462214E+03  0.12509000000E+03 0.  0.
<mgrwt>
<rscale>  2 0.42837032E+03</rscale>
<asrwt>0</asrwt>
<pdfrwt beam="1">  1       21 0.14286509E-01 0.42837032E+03</pdfrwt>
<pdfrwt beam="2">  1       21 0.69444010E-01 0.42837032E+03</pdfrwt>
<totfact> 0.75240032E+04</totfact>
</mgrwt>
</event>
<event>
 7    0  0.4784406E-002  0.4532317E+03  0.7546771E-02  0.1026763E+00
         21   -1    0    0  502  501  0.00000000000E+00  0.00000000000E+00  0.22940438216E+03  0.22940438216E+03  0.00000000000E+00 0. -1.
         21   -1    0    0  501  502 -0.00000000000E+00 -0.00000000000E+00 -0.22386123088E+03  0.22386123088E+03  0.00000000000E+00 0. -1.
      99926    2    1    2    0    0  0.00000000000E+00  0.00000000000E+00  0.55431512737E+01  0.45326561304E+03  0.45323171716E+03 0.  0.
      99925    2    3    3    0    0 -0.55989556122E+02  0.27071266518E+02  0.96032791886E+02  0.28682172753E+03  0.26301468096E+03 0.  0.
         25    1    4    4    0    0 -0.56805749664E+02  0.12741524139E+02  0.19156532396E+02  0.13929723783E+03  0.12509000000E+03 0.  0.
         25    1    4    4    0    0  0.81619354221E+00  0.14329742378E+02  0.76876259489E+02  0.14752448970E+03  0.12509000000E+03 0.  0.
         25    1    3    3    0    0  0.55989556122E+02 -0.27071266518E+02 -0.90489640612E+02  0.16644388551E+03  0.12509000000E+03 0.  0.
<mgrwt>
<rscale>  2 0.45323172E+03</rscale>
<asrwt>0</asrwt>
<pdfrwt beam="1">  1       21 0.33735939E-01 0.45323172E+03</pdfrwt>
<pdfrwt beam="2">  1       21 0.32920769E-01 0.45323172E+03</pdfrwt>
<totfact> 0.69650567E+04</totfact>
</mgrwt>
</event>
<event>
 7    0  0.4784406E-002  0.4473076E+03  0.7546771E-02  0.1028528E+00
         21   -1    0    0  502  501  0.00000000000E+00  0.00000000000E+00  0.28726331574E+03  0.28726331574E+03  0.00000000000E+00 0.  1.
         21   -1    0    0  501  502 -0.00000000000E+00 -0.00000000000E+00 -0.17412948867E+03  0.17412948867E+03  0.00000000000E+00 0.  1.
      99926    2    1    2    0    0 -0.35527136788E-14 -0.71054273576E-14  0.11313382707E+03  0.46139280442E+03  0.44730756437E+03 0.  0.
      99925    2    3    3    0    0  0.21685609154E+02  0.45080902718E+02  0.16775081327E+03  0.31602060379E+03  0.26310859589E+03 0.  0.
         25    1    4    4    0    0  0.41410109659E+02  0.47907477950E+02  0.74819704442E+02  0.15891953907E+03  0.12509000000E+03 0.  0.
         25    1    4    4    0    0 -0.19724500505E+02 -0.28265752323E+01  0.92931108825E+02  0.15710106472E+03  0.12509000000E+03 0.  0.
         25    1    3    3    0    0 -0.21685609154E+02 -0.45080902718E+02 -0.54616986198E+02  0.14537220063E+03  0.12509000000E+03 0.  0.
<mgrwt>
<rscale>  2 0.44730756E+03</rscale>
<asrwt>0</asrwt>
<pdfrwt beam="1">  1       21 0.42244605E-01 0.44730756E+03</pdfrwt>
<pdfrwt beam="2">  1       21 0.25607278E-01 0.44730756E+03</pdfrwt>
<totfact> 0.72399241E+04</totfact>
</mgrwt>
</event>
<event>
 7    0  0.4784406E-002  0.4482850E+03  0.7546771E-02  0.1028235E+00
         21   -1    0    0  502  501  0.00000000000E+00  0.00000000000E+00  0.20970938694E+03  0.20970938694E+03  0.00000000000E+00 0. -1.
         21   -1    0    0  501  502 -0.00000000000E+00 -0.00000000000E+00 -0.23956901604E+03  0.23956901604E+03  0.00000000000E+00 0. -1.
      99926    2    1    2    0    0 -0.22204460493E-14  0.14210854715E-13 -0.29859629099E+02  0.44927840298E+03  0.44828504987E+03 0.  0.
      99925    2    3    3    0    0  0.15474819903E+01  0.10610235796E+03 -0.28482853626E+02  0.28523722316E+03  0.26322783945E+03 0.  0.
         25    1    3    3    0    0 -0.15474819903E+01 -0.10610235796E+03 -0.13767754727E+01  0.16404117982E+03  0.12509000000E+03 0.  0.
         25    1    4    4    0    0  0.31539828370E+02  0.68197084356E+02 -0.38023932837E+02  0.15079433231E+03  0.12509000000E+03 0.  0.
         25    1    4    4    0    0 -0.29992346380E+02  0.37905273605E+02  0.95410792115E+01  0.13444289085E+03  0.12509000000E+03 0.  0.
<mgrwt>
<rscale>  2 0.44828505E+03</rscale>
<asrwt>0</asrwt>
<pdfrwt beam="1">  1       21 0.30839616E-01 0.44828505E+03</pdfrwt>
<pdfrwt beam="2">  1       21 0.35230737E-01 0.44828505E+03</pdfrwt>
<totfact> 0.72789405E+04</totfact>
</mgrwt>
</event>
<event>
 7    0  0.4784406E-002  0.4583163E+03  0.7546771E-02  0.1025271E+00
         21   -1    0    0  502  501  0.00000000000E+00  0.00000000000E+00  0.33003880793E+03  0.33003880793E+03  0.00000000000E+00 0. -1.
         21   -1    0    0  501  502 -0.00000000000E+00 -0.00000000000E+00 -0.15911298799E+03  0.15911298799E+03  0.00000000000E+00 0. -1.
      99926    2    1    2    0    0  0.00000000000E+00  0.00000000000E+00  0.17092581994E+03  0.48915179591E+03  0.45831631383E+03 0.  0.
      99925    2    3    3    0    0 -0.75161038807E+02 -0.87960134472E+02  0.93829337893E+02  0.30212895598E+03  0.26285318028E+03 0.  0.
         25    1    3    3    0    0  0.75161038807E+02  0.87960134472E+02  0.77096482046E+02  0.18702283993E+03  0.12509000000E+03 0.  0.
         25    1    4    4    0    0 -0.11926810874E+02 -0.70525608314E+02  0.30262545076E+02  0.14723939683E+03  0.12509000000E+03 0.  0.
         25    1    4    4    0    0 -0.63234227932E+02 -0.17434526158E+02  0.63566792817E+02  0.15488955915E+03  0.12509000000E+03 0.  0.
<mgrwt>
<rscale>  2 0.45831631E+03</rscale>
<asrwt>0</asrwt>
<pdfrwt beam="1">  1       21 0.48535119E-01 0.45831631E+03</pdfrwt>
<pdfrwt beam="2">  1       21 0.23398969E-01 0.45831631E+03</pdfrwt>
<totfact> 0.64329373E+04</totfact>
</mgrwt>
</event>
<event>
 7    0  0.4784406E-002  0.4229435E+03  0.7546771E-02  0.1036113E+00
         21   -1    0    0  502  501  0.00000000000E+00  0.00000000000E+00  0.10113736404E+04  0.10113736404E+04  0.00000000000E+00 0.  1.
         21   -1    0    0  501  502 -0.00000000000E+00 -0.00000000000E+00 -0.44217382730E+02  0.44217382730E+02  0.00000000000E+00 0.  1.
      99926    2    1    2    0    0  0.17763568394E-14  0.00000000000E+00  0.96715625766E+03  0.10555910231E+04  0.42294347301E+03 0.  0.
      99925    2    3    3    0    0 -0.92351806114E+01 -0.74792927806E+02  0.56704263938E+03  0.62965947199E+03  0.26316235518E+03 0.  0.
         25    1    4    4    0    0  0.25831804469E+02 -0.14405786396E+02  0.23102265809E+03  0.26437432829E+03  0.12509000000E+03 0.  0.
         25    1    4    4    0    0 -0.35066985080E+02 -0.60387141410E+02  0.33601998128E+03  0.36528514370E+03  0.12509000000E+03 0.  0.
         25    1    3    3    0    0  0.92351806114E+01  0.74792927806E+02  0.40011361828E+03  0.42593155113E+03  0.12509000000E+03 0.  0.
<mgrwt>
<rscale>  2 0.42294347E+03</rscale>
<asrwt>0</asrwt>
<pdfrwt beam="1">  1       21 0.14873140E+00 0.42294347E+03</pdfrwt>
<pdfrwt beam="2">  1       21 0.65025569E-02 0.42294347E+03</pdfrwt>
<totfact> 0.48005067E+04</totfact>
</mgrwt>
</event>
<event>
 7    0  0.4784406E-002  0.4572776E+03  0.7546771E-02  0.1025574E+00
         21   -1    0    0  502  501  0.00000000000E+00  0.00000000000E+00  0.30447453332E+02  0.30447453332E+02  0.00000000000E+00 0.  1.
         21   -1    0    0  501  502 -0.00000000000E+00 -0.00000000000E+00 -0.17169156395E+04  0.17169156395E+04  0.00000000000E+00 0.  1.
      99926    2    1    2    0    0  0.00000000000E+00  0.00000000000E+00 -0.16864681862E+04  0.17473630929E+04  0.45727763475E+03 0.  0.
      99925    2    3    3    0    0 -0.10864625845E+03 -0.37845357527E+02 -0.10847153904E+04  0.11220709884E+04  0.26305806253E+03 0.  0.
         25    1    3    3    0    0  0.10864625845E+03  0.37845357527E+02 -0.60175279577E+03  0.62529210444E+03  0.12509000000E+03 0.  0.
         25    1    4    4    0    0 -0.56951303282E+02 -0.50001038212E+02 -0.45778631529E+03  0.48058232732E+03  0.12509000000E+03 0.  0.
         25    1    4    4    0    0 -0.51694955171E+02  0.12155680685E+02 -0.62692907514E+03  0.64148866110E+03  0.12509000000E+03 0.  0.
<mgrwt>
<rscale>  2 0.45727763E+03</rscale>
<asrwt>0</asrwt>
<pdfrwt beam="1">  1       21 0.44775674E-02 0.45727763E+03</pdfrwt>
<pdfrwt beam="2">  1       21 0.25248755E+00 0.45727763E+03</pdfrwt>
<totfact> 0.17973240E+04</totfact>
</mgrwt>
</event>
<event>
 7    0  0.4784406E-002  0.4519182E+03  0.7546771E-02  0.1027152E+00
         21   -1    0    0  502  501  0.00000000000E+00  0.00000000000E+00  0.82569742224E+03  0.82569742224E+03  0.00000000000E+00 0. -1.
         21   -1    0    0  501  502 -0.00000000000E+00 -0.00000000000E+00 -0.61835614895E+02  0.61835614895E+02  0.00000000000E+00 0. -1.
      99926    2    1    2    0    0  0.00000000000E+00 -0.71054273576E-14  0.76386180735E+03  0.88753303714E+03  0.45191816879E+03 0.  0.
      99925    2    3    3    0    0 -0.40700574456E+02 -0.29804323826E+02  0.67465266965E+03  0.72582152602E+03  0.26289889404E+03 0.  0.
         25    1    4    4    0    0 -0.23526347905E+02 -0.43840651915E+02  0.27008673189E+03  0.30177780344E+03  0.12509000000E+03 0.  0.
         25    1    4    4    0    0 -0.17174226551E+02  0.14036328089E+02  0.40456593776E+03  0.42404372258E+03  0.12509000000E+03 0.  0.
         25    1    3    3    0    0  0.40700574456E+02  0.29804323826E+02  0.89209137703E+02  0.16171151112E+03  0.12509000000E+03 0.  0.
<mgrwt>
<rscale>  2 0.45191817E+03</rscale>
<asrwt>0</asrwt>
<pdfrwt beam="1">  1       21 0.12142609E+00 0.45191817E+03</pdfrwt>
<pdfrwt beam="2">  1       21 0.90934733E-02 0.45191817E+03</pdfrwt>
<totfact> 0.44849743E+04</totfact>
</mgrwt>
</event>
<event>
 7    0  0.4784406E-002  0.4478449E+03  0.7546771E-02  0.1028367E+00
         21   -1    0    0  502  501  0.00000000000E+00  0.00000000000E+00  0.48340702638E+02  0.48340702638E+02  0.00000000000E+00 0. -1.
         21   -1    0    0  501  502 -0.00000000000E+00 -0.00000000000E+00 -0.10372475372E+04  0.10372475372E+04  0.00000000000E+00 0. -1.
      99926    2    1    2    0    0  0.00000000000E+00 -0.35527136788E-14 -0.98890683457E+03  0.10855882399E+04  0.44784494977E+03 0.  0.
      99925    2    3    3    0    0  0.21084380249E+02  0.19504458449E+02 -0.87277184243E+03  0.91249918910E+03  0.26476235793E+03 0.  0.
         25    1    3    3    0    0 -0.21084380249E+02 -0.19504458449E+02 -0.11613499214E+03  0.17308905075E+03  0.12509000000E+03 0.  0.
         25    1    4    4    0    0  0.38936066811E+02  0.40883128306E+02 -0.48913642656E+03  0.50802499876E+03  0.12509000000E+03 0.  0.
         25    1    4    4    0    0 -0.17851686562E+02 -0.21378669857E+02 -0.38363541588E+03  0.40447419034E+03  0.12509000000E+03 0.  0.
<mgrwt>
<rscale>  2 0.44784495E+03</rscale>
<asrwt>0</asrwt>
<pdfrwt beam="1">  1       21 0.71089270E-02 0.44784495E+03</pdfrwt>
<pdfrwt beam="2">  1       21 0.15253640E+00 0.44784495E+03</pdfrwt>
<totfact> 0.38079807E+04</totfact>
</mgrwt>
</event>
<event>
 7    0  0.4784406E-002  0.4552185E+03  0.7546771E-02  0.1026177E+00
         21   -1    0    0  502  501  0.00000000000E+00  0.00000000000E+00  0.19892500918E+04  0.19892500918E+04  0.00000000000E+00 0. -1.
         21   -1    0    0  501  502 -0.00000000000E+00 -0.00000000000E+00 -0.26042964071E+02  0.26042964071E+02  0.00000000000E+00 0. -1.
      99926    2    1    2    0    0  0.00000000000E+00  0.00000000000E+00  0.19632071278E+04  0.20152930559E+04  0.45521849114E+03 0.  0.
      99925    2    3    3    0    0 -0.52928350375E+02  0.47456203896E+02  0.84341592574E+03  0.88629644573E+03  0.26290200523E+03 0.  0.
         25    1    3    3    0    0  0.52928350375E+02 -0.47456203896E+02  0.11197912020E+04  0.11289966102E+04  0.12509000000E+03 0.  0.
         25    1    4    4    0    0  0.74203097171E+01  0.27141813264E+02  0.32981238996E+03  0.35385796543E+03  0.12509000000E+03 0.  0.
         25    1    4    4    0    0 -0.60348660092E+02  0.20314390632E+02  0.51360353578E+03  0.53243848030E+03  0.12509000000E+03 0.  0.
<mgrwt>
<rscale>  2 0.45521849E+03</rscale>
<asrwt>0</asrwt>
<pdfrwt beam="1">  1       21 0.29253667E+00 0.45521849E+03</pdfrwt>
<pdfrwt beam="2">  1       21 0.38298490E-02 0.45521849E+03</pdfrwt>
<totfact> 0.13438763E+04</totfact>
</mgrwt>
</event>
<event>
 7    0  0.4784406E-002  0.4587635E+03  0.7546771E-02  0.1025140E+00
         21   -1    0    0  502  501  0.00000000000E+00  0.00000000000E+00  0.12280879830E+03  0.12280879830E+03  0.00000000000E+00 0. -1.
         21   -1    0    0  501  502 -0.00000000000E+00 -0.00000000000E+00 -0.42843830170E+03  0.42843830170E+03  0.00000000000E+00 0. -1.
      99926    2    1    2    0    0 -0.35527136788E-14  0.13322676296E-14 -0.30562950340E+03  0.55124709999E+03  0.45876352503E+03 0.  0.
      99925    2    3    3    0    0 -0.30362405579E+02 -0.37575441069E+01 -0.56692915099E+02  0.27097414749E+03  0.26320506677E+03 0.  0.
         25    1    4    4    0    0  0.42601505527E+01 -0.18133934648E+02  0.49566917723E+01  0.12656644643E+03  0.12509000000E+03 0.  0.
         25    1    4    4    0    0 -0.34622556132E+02  0.14376390541E+02 -0.61649606871E+02  0.14440770106E+03  0.12509000000E+03 0.  0.
         25    1    3    3    0    0  0.30362405579E+02  0.37575441069E+01 -0.24893658830E+03  0.28027295250E+03  0.12509000000E+03 0.  0.
<mgrwt>
<rscale>  2 0.45876353E+03</rscale>
<asrwt>0</asrwt>
<pdfrwt beam="1">  1       21 0.18060117E-01 0.45876353E+03</pdfrwt>
<pdfrwt beam="2">  1       21 0.63005632E-01 0.45876353E+03</pdfrwt>
<totfact> 0.59978217E+04</totfact>
</mgrwt>
</event>
<event>
 7    0  0.4784406E-002  0.4618895E+03  0.7546771E-02  0.1024235E+00
         21   -1    0    0  502  501  0.00000000000E+00  0.00000000000E+00  0.16623708064E+04  0.16623708064E+04  0.00000000000E+00 0.  1.
         21   -1    0    0  501  502 -0.00000000000E+00 -0.00000000000E+00 -0.32083984357E+02  0.32083984357E+02  0.00000000000E+00 0.  1.
      99926    2    1    2    0    0 -0.14210854715E-13  0.00000000000E+00  0.16302868221E+04  0.16944547908E+04  0.46188950605E+03 0.  0.
      99925    2    3    3    0    0  0.89778716337E+02 -0.71718939028E+02  0.11407437337E+04  0.11762812990E+04  0.26294030552E+03 0.  0.
         25    1    4    4    0    0  0.66529734166E+02 -0.68529690573E+02  0.55592477270E+03  0.57777364514E+03  0.12509000000E+03 0.  0.
         25    1    3    3    0    0 -0.89778716337E+02  0.71718939028E+02  0.48954308841E+03  0.51817349182E+03  0.12509000000E+03 0.  0.
         25    1    4    4    0    0  0.23248982171E+02 -0.31892484550E+01  0.58481896097E+03  0.59850765382E+03  0.12509000000E+03 0.  0.
<mgrwt>
<rscale>  2 0.46188951E+03</rscale>
<asrwt>0</asrwt>
<pdfrwt beam="1">  1       21 0.24446624E+00 0.46188951E+03</pdfrwt>
<pdfrwt beam="2">  1       21 0.47182341E-02 0.46188951E+03</pdfrwt>
<totfact> 0.18374533E+04</totfact>
</mgrwt>
</event>
<event>
 7    0  0.4784406E-002  0.4534157E+03  0.7546771E-02  0.1026708E+00
         21   -1    0    0  502  501  0.00000000000E+00  0.00000000000E+00  0.10261325909E+03  0.10261325909E+03  0.00000000000E+00 0.  1.
         21   -1    0    0  501  502 -0.00000000000E+00 -0.00000000000E+00 -0.50087535193E+03  0.50087535193E+03  0.00000000000E+00 0.  1.
      99926    2    1    2    0    0  0.00000000000E+00 -0.71054273576E-14 -0.39826209283E+03  0.60348861102E+03  0.45341571327E+03 0.  0.
      99925    2    3    3    0    0  0.26214703697E+01 -0.59350968830E+02 -0.12535851418E+03  0.29746037548E+03  0.26313211186E+03 0.  0.
         25    1    4    4    0    0 -0.19144613160E+02 -0.56531389812E+02 -0.91312207489E+02  0.16597512339E+03  0.12509000000E+03 0.  0.
         25    1    4    4    0    0  0.21766083529E+02 -0.28195790182E+01 -0.34046306695E+02  0.13148525209E+03  0.12509000000E+03 0.  0.
         25    1    3    3    0    0 -0.26214703697E+01  0.59350968830E+02 -0.27290357865E+03  0.30602823554E+03  0.12509000000E+03 0.  0.
<mgrwt>
<rscale>  2 0.45341571E+03</rscale>
<asrwt>0</asrwt>
<pdfrwt beam="1">  1       21 0.15090185E-01 0.45341571E+03</pdfrwt>
<pdfrwt beam="2">  1       21 0.73658139E-01 0.45341571E+03</pdfrwt>
<totfact> 0.59201571E+04</totfact>
</mgrwt>
</event>
<event>
 7    0  0.4784406E-002  0.4605388E+03  0.7546771E-02  0.1024625E+00
         21   -1    0    0  502  501  0.00000000000E+00  0.00000000000E+00  0.36633724413E+03  0.36633724413E+03  0.00000000000E+00 0.  1.
         21   -1    0    0  501  502 -0.00000000000E+00 -0.00000000000E+00 -0.14474092686E+03  0.14474092686E+03  0.00000000000E+00 0.  1.
      99926    2    1    2    0    0  0.00000000000E+00 -0.71054273576E-14  0.22159631726E+03  0.51107817099E+03  0.46053878126E+03 0.  0.
      99925    2    3    3    0    0 -0.36852814955E+02 -0.35083999552E+02  0.19930553100E+02  0.26837340068E+03  0.26275090533E+03 0.  0.
         25    1    4    4    0    0 -0.35720349437E+02  0.13985220713E+02  0.27829537842E+02  0.13376666640E+03  0.12509000000E+03 0.  0.
         25    1    3    3    0    0  0.36852814955E+02  0.35083999552E+02  0.20166576416E+03  0.24270477031E+03  0.12509000000E+03 0.  0.
         25    1    4    4    0    0 -0.11324655175E+01 -0.49069220266E+02 -0.78989847419E+01  0.13460673429E+03  0.12509000000E+03 0.  0.
<mgrwt>
<rscale>  2 0.46053878E+03</rscale>
<asrwt>0</asrwt>
<pdfrwt beam="1">  1       21 0.53873124E-01 0.46053878E+03</pdfrwt>
<pdfrwt beam="2">  1       21 0.21285430E-01 0.46053878E+03</pdfrwt>
<totfact> 0.61740133E+04</totfact>
</mgrwt>
</event>
<event>
 7    0  0.4784406E-002  0.4572332E+03  0.7546771E-02  0.1025587E+00
         21   -1    0    0  502  501  0.00000000000E+00  0.00000000000E+00  0.48828566354E+03  0.48828566354E+03  0.00000000000E+00 0.  1.
         21   -1    0    0  501  502 -0.00000000000E+00 -0.00000000000E+00 -0.10703889623E+03  0.10703889623E+03  0.00000000000E+00 0.  1.
      99926    2    1    2    0    0  0.17763568394E-14  0.14210854715E-13  0.38124676731E+03  0.59532455978E+03  0.45723323795E+03 0.  0.
      99925    2    3    3    0    0 -0.81932965661E+01 -0.75049954106E+02  0.35308155167E+03  0.44652801011E+03  0.26271858702E+03 0.  0.
         25    1    4    4    0    0 -0.16888404503E+02 -0.25940025532E+01  0.19335028373E+03  0.23091943915E+03  0.12509000000E+03 0.  0.
         25    1    4    4    0    0  0.86951079372E+01 -0.72455951553E+02  0.15973126793E+03  0.21560857096E+03  0.12509000000E+03 0.  0.
         25    1    3    3    0    0  0.81932965661E+01  0.75049954106E+02  0.28165215641E+02  0.14879654966E+03  0.12509000000E+03 0.  0.
<mgrwt>
<rscale>  2 0.45723324E+03</rscale>
<asrwt>0</asrwt>
<pdfrwt beam="1">  1       21 0.71806714E-01 0.45723324E+03</pdfrwt>
<pdfrwt beam="2">  1       21 0.15741014E-01 0.45723324E+03</pdfrwt>
<totfact> 0.57937707E+04</totfact>
</mgrwt>
</event>
<event>
 7    0  0.4784406E-002  0.4576739E+03  0.7546771E-02  0.1025458E+00
         21   -1    0    0  502  501  0.00000000000E+00  0.00000000000E+00  0.40472587062E+02  0.40472587062E+02  0.00000000000E+00 0. -1.
         21   -1    0    0  501  502 -0.00000000000E+00 -0.00000000000E+00 -0.12938720089E+04  0.12938720089E+04  0.00000000000E+00 0. -1.
      99926    2    1    2    0    0  0.00000000000E+00  0.00000000000E+00 -0.12533994218E+04  0.13343445959E+04  0.45767389057E+03 0.  0.
      99925    2    3    3    0    0  0.53705300655E+02  0.54700426588E+02 -0.53336608102E+03  0.59951678213E+03  0.26280144537E+03 0.  0.
         25    1    3    3    0    0 -0.53705300655E+02 -0.54700426588E+02 -0.72003334079E+03  0.73482781380E+03  0.12509000000E+03 0.  0.
         25    1    4    4    0    0 -0.11881057960E+02  0.38848440447E+02 -0.26461729784E+03  0.29549988711E+03  0.12509000000E+03 0.  0.
         25    1    4    4    0    0  0.65586358615E+02  0.15851986141E+02 -0.26874878317E+03  0.30401689502E+03  0.12509000000E+03 0.  0.
<mgrwt>
<rscale>  2 0.45767389E+03</rscale>
<asrwt>0</asrwt>
<pdfrwt beam="1">  1       21 0.59518514E-02 0.45767389E+03</pdfrwt>
<pdfrwt beam="2">  1       21 0.19027528E+00 0.45767389E+03</pdfrwt>
<totfact> 0.27556032E+04</totfact>
</mgrwt>
</event>
<event>
 7    0  0.4784406E-002  0.4633914E+03  0.7546771E-02  0.1023802E+00
         21   -1    0    0  502  501  0.00000000000E+00  0.00000000000E+00  0.78070382508E+02  0.78070382508E+02  0.00000000000E+00 0. -1.
         21   -1    0    0  501  502 -0.00000000000E+00 -0.00000000000E+00 -0.68762168747E+03  0.68762168747E+03  0.00000000000E+00 0. -1.
      99926    2    1    2    0    0  0.00000000000E+00  0.00000000000E+00 -0.60955130496E+03  0.76569206998E+03  0.46339136013E+03 0.  0.
      99925    2    3    3    0    0  0.38517298386E+02  0.19346641465E+02 -0.19415232470E+03  0.32973141153E+03  0.26300152804E+03 0.  0.
         25    1    4    4    0    0  0.24111042768E+02 -0.28596806105E+02 -0.11126699043E+03  0.17154291289E+03  0.12509000000E+03 0.  0.
         25    1    4    4    0    0  0.14406255618E+02  0.47943447570E+02 -0.82885334275E+02  0.15818849865E+03  0.12509000000E+03 0.  0.
         25    1    3    3    0    0 -0.38517298386E+02 -0.19346641465E+02 -0.41539898026E+03  0.43596065845E+03  0.12509000000E+03 0.  0.
<mgrwt>
<rscale>  2 0.46339136E+03</rscale>
<asrwt>0</asrwt>
<pdfrwt beam="1">  1       21 0.11480939E-01 0.46339136E+03</pdfrwt>
<pdfrwt beam="2">  1       21 0.10112084E+00 0.46339136E+03</pdfrwt>
<totfact> 0.46339867E+04</totfact>
</mgrwt>
</event>
<event>
 7    0  0.4784406E-002  0.4589555E+03  0.7546771E-02  0.1025085E+00
         21   -1    0    0  502  501  0.00000000000E+00  0.00000000000E+00  0.97111894989E+03  0.97111894989E+03  0.00000000000E+00 0.  1.
         21   -1    0    0  501  502 -0.00000000000E+00 -0.00000000000E+00 -0.54226155520E+02  0.54226155520E+02  0.00000000000E+00 0.  1.
      99926    2    1    2    0    0  0.00000000000E+00  0.14210854715E-13  0.91689279437E+03  0.10253451054E+04  0.45895554123E+03 0.  0.
      99925    2    3    3    0    0 -0.99941066697E+01  0.68012214306E+02  0.78626960453E+03  0.83186262742E+03  0.26277366010E+03 0.  0.
         25    1    3    3    0    0  0.99941066697E+01 -0.68012214306E+02  0.13062318985E+03  0.19348247799E+03  0.12509000000E+03 0.  0.
         25    1    4    4    0    0 -0.64305072066E+01  0.34944814321E+02  0.27099865766E+03  0.30058321980E+03  0.12509000000E+03 0.  0.
         25    1    4    4    0    0 -0.35635994631E+01  0.33067399985E+02  0.51527094687E+03  0.53127940763E+03  0.12509000000E+03 0.  0.
<mgrwt>
<rscale>  2 0.45895554E+03</rscale>
<asrwt>0</asrwt>
<pdfrwt beam="1">  1       21 0.14281160E+00 0.45895554E+03</pdfrwt>
<pdfrwt beam="2">  1       21 0.79744353E-02 0.45895554E+03</pdfrwt>
<totfact> 0.37038146E+04</totfact>
</mgrwt>
</event>
<event>
 7    0  0.4784406E-002  0.4547012E+03  0.7546771E-02  0.1026329E+00
         21   -1    0    0  502  501  0.00000000000E+00  0.00000000000E+00  0.69039254969E+02  0.69039254969E+02  0.00000000000E+00 0. -1.
         21   -1    0    0  501  502 -0.00000000000E+00 -0.00000000000E+00 -0.74867963288E+03  0.74867963288E+03  0.00000000000E+00 0. -1.
      99926    2    1    2    0    0 -0.14210854715E-13  0.88817841970E-15 -0.67964037791E+03  0.81771888784E+03  0.45470115049E+03 0.  0.
      99925    2    3    3    0    0  0.11290553102E+03  0.41119533847E+01 -0.43572672144E+03  0.52122951703E+03  0.26278863474E+03 0.  0.
         25    1    4    4    0    0  0.75543210000E+02  0.21836929302E+02 -0.17443380946E+03  0.22860072187E+03  0.12509000000E+03 0.  0.
         25    1    3    3    0    0 -0.11290553102E+03 -0.41119533847E+01 -0.24391365646E+03  0.29648937081E+03  0.12509000000E+03 0.  0.
         25    1    4    4    0    0  0.37362321020E+02 -0.17724975918E+02 -0.26129291198E+03  0.29262879516E+03  0.12509000000E+03 0.  0.
<mgrwt>
<rscale>  2 0.45470115E+03</rscale>
<asrwt>0</asrwt>
<pdfrwt beam="1">  1       21 0.10152831E-01 0.45470115E+03</pdfrwt>
<pdfrwt beam="2">  1       21 0.11009995E+00 0.45470115E+03</pdfrwt>
<totfact> 0.47029874E+04</totfact>
</mgrwt>
</event>
<event>
 7    0  0.4784406E-002  0.4558387E+03  0.7546771E-02  0.1025995E+00
         21   -1    0    0  502  501  0.00000000000E+00  0.00000000000E+00  0.64590974205E+02  0.64590974205E+02  0.00000000000E+00 0.  1.
         21   -1    0    0  501  502 -0.00000000000E+00 -0.00000000000E+00 -0.80424896053E+03  0.80424896053E+03  0.00000000000E+00 0.  1.
      99926    2    1    2    0    0  0.17763568394E-14 -0.14210854715E-13 -0.73965798632E+03  0.86883993473E+03  0.45583867262E+03 0.  0.
      99925    2    3    3    0    0  0.42926149846E+01 -0.11239638448E+03 -0.43038343728E+03  0.51677512739E+03  0.26301189215E+03 0.  0.
         25    1    4    4    0    0  0.17345261752E+02 -0.17962181943E+02 -0.21663864706E+03  0.25140268413E+03  0.12509000000E+03 0.  0.
         25    1    4    4    0    0 -0.13052646767E+02 -0.94434202535E+02 -0.21374479022E+03  0.26537244326E+03  0.12509000000E+03 0.  0.
         25    1    3    3    0    0 -0.42926149846E+01  0.11239638448E+03 -0.30927454904E+03  0.35206480734E+03  0.12509000000E+03 0.  0.
<mgrwt>
<rscale>  2 0.45583867E+03</rscale>
<asrwt>0</asrwt>
<pdfrwt beam="1">  1       21 0.94986734E-02 0.45583867E+03</pdfrwt>
<pdfrwt beam="2">  1       21 0.11827190E+00 0.45583867E+03</pdfrwt>
<totfact> 0.44315656E+04</totfact>
</mgrwt>
</event>
<event>
 7    0  0.4784406E-002  0.4552477E+03  0.7546771E-02  0.1026169E+00
         21   -1    0    0  502  501  0.00000000000E+00  0.00000000000E+00  0.26712912805E+03  0.26712912805E+03  0.00000000000E+00 0.  1.
         21   -1    0    0  501  502 -0.00000000000E+00 -0.00000000000E+00 -0.19396093435E+03  0.19396093435E+03  0.00000000000E+00 0.  1.
      99926    2    1    2    0    0  0.00000000000E+00  0.00000000000E+00  0.73168193706E+02  0.46109006240E+03  0.45524769200E+03 0.  0.
      99925    2    3    3    0    0  0.44056577756E+02 -0.32375819560E+01  0.15176314672E+03  0.30689493044E+03  0.26306079458E+03 0.  0.
         25    1    3    3    0    0 -0.44056577756E+02  0.32375819560E+01 -0.78594953017E+02  0.15419513196E+03  0.12509000000E+03 0.  0.
         25    1    4    4    0    0 -0.36227537946E+01 -0.14926597362E+02  0.40331690838E+02  0.13232566282E+03  0.12509000000E+03 0.  0.
         25    1    4    4    0    0  0.47679331551E+02  0.11689015406E+02  0.11143145589E+03  0.17456926762E+03  0.12509000000E+03 0.  0.
<mgrwt>
<rscale>  2 0.45524769E+03</rscale>
<asrwt>0</asrwt>
<pdfrwt beam="1">  1       21 0.39283695E-01 0.45524769E+03</pdfrwt>
<pdfrwt beam="2">  1       21 0.28523667E-01 0.45524769E+03</pdfrwt>
<totfact> 0.67966809E+04</totfact>
</mgrwt>
</event>
<event>
 7    0  0.4784406E-002  0.4555790E+03  0.7546771E-02  0.1026071E+00
         21   -1    0    0  502  501  0.00000000000E+00  0.00000000000E+00  0.70317388083E+02  0.70317388083E+02  0.00000000000E+00 0.  1.
         21   -1    0    0  501  502 -0.00000000000E+00 -0.00000000000E+00 -0.73791227868E+03  0.73791227868E+03  0.00000000000E+00 0.  1.
      99926    2    1    2    0    0  0.00000000000E+00  0.71054273576E-14 -0.66759489059E+03  0.80822966676E+03  0.45557903407E+03 0.  0.
      99925    2    3    3    0    0 -0.96692356086E+02  0.44900321535E+02 -0.34976802692E+03  0.45042123482E+03  0.26301362230E+03 0.  0.
         25    1    4    4    0    0 -0.28757809634E+02 -0.65257083806E+01 -0.12378841991E+03  0.17843956257E+03  0.12509000000E+03 0.  0.
         25    1    3    3    0    0  0.96692356086E+02 -0.44900321535E+02 -0.31782686367E+03  0.35780843194E+03  0.12509000000E+03 0.  0.
         25    1    4    4    0    0 -0.67934546452E+02  0.51426029916E+02 -0.22597960701E+03  0.27198167225E+03  0.12509000000E+03 0.  0.
<mgrwt>
<rscale>  2 0.45557903E+03</rscale>
<asrwt>0</asrwt>
<pdfrwt beam="1">  1       21 0.10340792E-01 0.45557903E+03</pdfrwt>
<pdfrwt beam="2">  1       21 0.10851651E+00 0.45557903E+03</pdfrwt>
<totfact> 0.47154692E+04</totfact>
</mgrwt>
</event>
<event>
 7    0  0.4784406E-002  0.4428058E+03  0.7546771E-02  0.1029889E+00
         21   -1    0    0  502  501  0.00000000000E+00  0.00000000000E+00  0.31273324957E+03  0.31273324957E+03  0.00000000000E+00 0. -1.
         21   -1    0    0  501  502 -0.00000000000E+00 -0.00000000000E+00 -0.15674459514E+03  0.15674459514E+03  0.00000000000E+00 0. -1.
      99926    2    1    2    0    0  0.00000000000E+00  0.00000000000E+00  0.15598865442E+03  0.46947784471E+03  0.44280581112E+03 0.  0.
      99925    2    3    3    0    0 -0.99987632406E+02  0.16244990847E+02  0.10368122831E+03  0.30022950265E+03  0.26291924768E+03 0.  0.
         25    1    4    4    0    0 -0.56915377410E+02  0.19865321757E+02  0.12304724280E+02  0.13940195671E+03  0.12509000000E+03 0.  0.
         25    1    3    3    0    0  0.99987632406E+02 -0.16244990847E+02  0.52307426114E+02  0.16924834206E+03  0.12509000000E+03 0.  0.
         25    1    4    4    0    0 -0.43072254996E+02 -0.36203309100E+01  0.91376504030E+02  0.16082754595E+03  0.12509000000E+03 0.  0.
<mgrwt>
<rscale>  2 0.44280581E+03</rscale>
<asrwt>0</asrwt>
<pdfrwt beam="1">  1       21 0.45990184E-01 0.44280581E+03</pdfrwt>
<pdfrwt beam="2">  1       21 0.23050676E-01 0.44280581E+03</pdfrwt>
<totfact> 0.74419922E+04</totfact>
</mgrwt>
</event>
<event>
 7    0  0.4784406E-002  0.4542835E+03  0.7546771E-02  0.1026452E+00
         21   -1    0    0  502  501  0.00000000000E+00  0.00000000000E+00  0.11781180504E+03  0.11781180504E+03  0.00000000000E+00 0.  1.
         21   -1    0    0  501  502 -0.00000000000E+00 -0.00000000000E+00 -0.43793050890E+03  0.43793050890E+03  0.00000000000E+00 0.  1.
      99926    2    1    2    0    0  0.00000000000E+00  0.00000000000E+00 -0.32011870386E+03  0.55574231393E+03  0.45428354024E+03 0.  0.
      99925    2    3    3    0    0 -0.76363246737E+02  0.78170858785E+02 -0.23423369498E+03  0.36875094658E+03  0.26300153635E+03 0.  0.
         25    1    4    4    0    0 -0.25489616597E+02  0.62812445899E+02 -0.80177362500E+02  0.16331271069E+03  0.12509000000E+03 0.  0.
         25    1    3    3    0    0  0.76363246737E+02 -0.78170858785E+02 -0.85885008886E+02  0.18699136736E+03  0.12509000000E+03 0.  0.
         25    1    4    4    0    0 -0.50873630139E+02  0.15358412886E+02 -0.15405633247E+03  0.20543823589E+03  0.12509000000E+03 0.  0.
<mgrwt>
<rscale>  2 0.45428354E+03</rscale>
<asrwt>0</asrwt>
<pdfrwt beam="1">  1       21 0.17325265E-01 0.45428354E+03</pdfrwt>
<pdfrwt beam="2">  1       21 0.64401546E-01 0.45428354E+03</pdfrwt>
<totfact> 0.61838381E+04</totfact>
</mgrwt>
</event>
<event>
 7    0  0.4784406E-002  0.4535718E+03  0.7546771E-02  0.1026662E+00
         21   -1    0    0  502  501  0.00000000000E+00  0.00000000000E+00  0.34911520338E+02  0.34911520338E+02  0.00000000000E+00 0. -1.
         21   -1    0    0  501  502 -0.00000000000E+00 -0.00000000000E+00 -0.14732054540E+04  0.14732054540E+04  0.00000000000E+00 0. -1.
      99926    2    1    2    0    0  0.00000000000E+00  0.71054273576E-14 -0.14382939336E+04  0.15081169743E+04  0.45357178999E+03 0.  0.
      99925    2    3    3    0    0 -0.98043611290E+02  0.40379198109E+02 -0.10245930480E+04  0.10631012890E+04  0.26296465004E+03 0.  0.
         25    1    4    4    0    0 -0.31829010650E+02  0.45767258203E+02 -0.40508912667E+03  0.42761248402E+03  0.12509000000E+03 0.  0.
         25    1    4    4    0    0 -0.66214600641E+02 -0.53880600939E+01 -0.61950392134E+03  0.63548880493E+03  0.12509000000E+03 0.  0.
         25    1    3    3    0    0  0.98043611290E+02 -0.40379198109E+02 -0.41370088560E+03  0.44501568534E+03  0.12509000000E+03 0.  0.
<mgrwt>
<rscale>  2 0.45357179E+03</rscale>
<asrwt>0</asrwt>
<pdfrwt beam="1">  1       21 0.51340473E-02 0.45357179E+03</pdfrwt>
<pdfrwt beam="2">  1       21 0.21664785E+00 0.45357179E+03</pdfrwt>
<totfact> 0.23844296E+04</totfact>
</mgrwt>
</event>
<event>
 7    0  0.4784406E-002  0.4545929E+03  0.7546771E-02  0.1026361E+00
         21   -1    0    0  502  501  0.00000000000E+00  0.00000000000E+00  0.11903229495E+03  0.11903229495E+03  0.00000000000E+00 0.  1.
         21   -1    0    0  501  502 -0.00000000000E+00 -0.00000000000E+00 -0.43403080520E+03  0.43403080520E+03  0.00000000000E+00 0.  1.
      99926    2    1    2    0    0  0.00000000000E+00  0.00000000000E+00 -0.31499851025E+03  0.55306310016E+03  0.45459292922E+03 0.  0.
      99925    2    3    3    0    0 -0.76808878727E+02 -0.81711725178E+02 -0.21278018721E+03  0.35640984300E+03  0.26301360847E+03 0.  0.
         25    1    4    4    0    0 -0.53348485968E+02 -0.60565764866E+02 -0.71707952950E+02  0.16523864997E+03  0.12509000000E+03 0.  0.
         25    1    4    4    0    0 -0.23460392758E+02 -0.21145960312E+02 -0.14107223426E+03  0.19117119303E+03  0.12509000000E+03 0.  0.
         25    1    3    3    0    0  0.76808878727E+02  0.81711725178E+02 -0.10221832304E+03  0.19665325715E+03  0.12509000000E+03 0.  0.
<mgrwt>
<rscale>  2 0.45459293E+03</rscale>
<asrwt>0</asrwt>
<pdfrwt beam="1">  1       21 0.17504749E-01 0.45459293E+03</pdfrwt>
<pdfrwt beam="2">  1       21 0.63828061E-01 0.45459293E+03</pdfrwt>
<totfact> 0.61863540E+04</totfact>
</mgrwt>
</event>
<event>
 7    0  0.4784406E-002  0.4581343E+03  0.7546771E-02  0.1025324E+00
         21   -1    0    0  502  501  0.00000000000E+00  0.00000000000E+00  0.42172708169E+03  0.42172708169E+03  0.00000000000E+00 0.  1.
         21   -1    0    0  501  502 -0.00000000000E+00 -0.00000000000E+00 -0.12442111615E+03  0.12442111615E+03  0.00000000000E+00 0.  1.
      99926    2    1    2    0    0  0.00000000000E+00  0.28865798640E-14  0.29730596554E+03  0.54614819785E+03  0.45813427821E+03 0.  0.
      99925    2    3    3    0    0 -0.10701486026E+02  0.15623639190E+01  0.32433835965E+03  0.41771447480E+03  0.26300769596E+03 0.  0.
         25    1    4    4    0    0  0.90409356491E+01 -0.34933148652E+02  0.18149390480E+03  0.22335981951E+03  0.12509000000E+03 0.  0.
         25    1    3    3    0    0  0.10701486026E+02 -0.15623639190E+01 -0.27032394112E+02  0.12843372305E+03  0.12509000000E+03 0.  0.
         25    1    4    4    0    0 -0.19742421675E+02  0.36495512571E+02  0.14284445485E+03  0.19435465529E+03  0.12509000000E+03 0.  0.
<mgrwt>
<rscale>  2 0.45813428E+03</rscale>
<asrwt>0</asrwt>
<pdfrwt beam="1">  1       21 0.62018688E-01 0.45813428E+03</pdfrwt>
<pdfrwt beam="2">  1       21 0.18297223E-01 0.45813428E+03</pdfrwt>
<totfact> 0.60604678E+04</totfact>
</mgrwt>
</event>
<event>
 7    0  0.4784406E-002  0.4148167E+03  0.7546771E-02  0.1038767E+00
         21   -1    0    0  502  501  0.00000000000E+00  0.00000000000E+00  0.12245457502E+04  0.12245457502E+04  0.00000000000E+00 0.  1.
         21   -1    0    0  501  502 -0.00000000000E+00 -0.00000000000E+00 -0.35129952080E+02  0.35129952080E+02  0.00000000000E+00 0.  1.
      99926    2    1    2    0    0  0.00000000000E+00  0.00000000000E+00  0.11894157981E+04  0.12596757022E+04  0.41481674760E+03 0.  0.
      99925    2    3    3    0    0  0.60942451981E+02  0.32244779563E+02  0.79532983936E+03  0.84050394839E+03  0.26295175532E+03 0.  0.
         25    1    3    3    0    0 -0.60942451981E+02 -0.32244779563E+02  0.39408595872E+03  0.41917175384E+03  0.12509000000E+03 0.  0.
         25    1    4    4    0    0  0.13831153007E+02  0.23328027151E+02  0.50149428798E+03  0.51757079383E+03  0.12509000000E+03 0.  0.
         25    1    4    4    0    0  0.47111298973E+02  0.89167524122E+01  0.29383555138E+03  0.32293315456E+03  0.12509000000E+03 0.  0.
<mgrwt>
<rscale>  2 0.41481675E+03</rscale>
<asrwt>0</asrwt>
<pdfrwt beam="1">  1       21 0.18008023E+00 0.41481675E+03</pdfrwt>
<pdfrwt beam="2">  1       21 0.51661702E-02 0.41481675E+03</pdfrwt>
<totfact> 0.41976272E+04</totfact>
</mgrwt>
</event>
<event>
 7    0  0.4784406E-002  0.4334227E+03  0.7546771E-02  0.1032784E+00
         21   -1    0    0  502  501  0.00000000000E+00  0.00000000000E+00  0.91237490880E+03  0.91237490880E+03  0.00000000000E+00 0.  1.
         21   -1    0    0  501  502 -0.00000000000E+00 -0.00000000000E+00 -0.51474252757E+02  0.51474252757E+02  0.00000000000E+00 0.  1.
      99926    2    1    2    0    0  0.00000000000E+00  0.00000000000E+00  0.86090065604E+03  0.96384916156E+03  0.43342273436E+03 0.  0.
      99925    2    3    3    0    0  0.88297535862E+02  0.20202245872E+02  0.51892002410E+03  0.58861210808E+03  0.26264355463E+03 0.  0.
         25    1    3    3    0    0 -0.88297535862E+02 -0.20202245872E+02  0.34198063194E+03  0.37523705347E+03  0.12509000000E+03 0.  0.
         25    1    4    4    0    0  0.49202036324E+02 -0.66805009244E+00  0.34186926315E+03  0.36734641397E+03  0.12509000000E+03 0.  0.
         25    1    4    4    0    0  0.39095499538E+02  0.20870295964E+02  0.17705076095E+03  0.22126569411E+03  0.12509000000E+03 0.  0.
<mgrwt>
<rscale>  2 0.43342273E+03</rscale>
<asrwt>0</asrwt>
<pdfrwt beam="1">  1       21 0.13417277E+00 0.43342273E+03</pdfrwt>
<pdfrwt beam="2">  1       21 0.75697436E-02 0.43342273E+03</pdfrwt>
<totfact> 0.48220227E+04</totfact>
</mgrwt>
</event>
<event>
 7    0  0.4784406E-002  0.3954070E+03  0.7546771E-02  0.1045382E+00
         21   -1    0    0  502  501  0.00000000000E+00  0.00000000000E+00  0.27826202242E+02  0.27826202242E+02  0.00000000000E+00 0.  1.
         21   -1    0    0  501  502 -0.00000000000E+00 -0.00000000000E+00 -0.14046714079E+04  0.14046714079E+04  0.00000000000E+00 0.  1.
      99926    2    1    2    0    0  0.00000000000E+00 -0.17763568394E-14 -0.13768452057E+04  0.14324976101E+04  0.39540698365E+03 0.  0.
      99925    2    3    3    0    0 -0.30288446555E+02  0.15066104799E+02 -0.96248350098E+03  0.99834612976E+03  0.26301355032E+03 0.  0.
         25    1    3    3    0    0  0.30288446555E+02 -0.15066104799E+02 -0.41436170468E+03  0.43415148038E+03  0.12509000000E+03 0.  0.
         25    1    4    4    0    0 -0.94343267256E+01  0.30348080077E+02 -0.35906738707E+03  0.38155852636E+03  0.12509000000E+03 0.  0.
         25    1    4    4    0    0 -0.20854119829E+02 -0.15281975277E+02 -0.60341611391E+03  0.61678760340E+03  0.12509000000E+03 0.  0.
<mgrwt>
<rscale>  2 0.39540698E+03</rscale>
<asrwt>0</asrwt>
<pdfrwt beam="1">  1       21 0.40920876E-02 0.39540698E+03</pdfrwt>
<pdfrwt beam="2">  1       21 0.20656937E+00 0.39540698E+03</pdfrwt>
<totfact> 0.41705796E+04</totfact>
</mgrwt>
</event>
<event>
 7    0  0.4784406E-002  0.4464765E+03  0.7546771E-02  0.1028778E+00
         21   -1    0    0  502  501  0.00000000000E+00  0.00000000000E+00  0.18797175086E+03  0.18797175086E+03  0.00000000000E+00 0.  1.
         21   -1    0    0  501  502 -0.00000000000E+00 -0.00000000000E+00 -0.26512130720E+03  0.26512130720E+03  0.00000000000E+00 0.  1.
      99926    2    1    2    0    0  0.00000000000E+00  0.00000000000E+00 -0.77149556342E+02  0.45309305805E+03  0.44647650018E+03 0.  0.
      99925    2    3    3    0    0 -0.83932022337E+02  0.23830332058E+02 -0.10836446099E+03  0.29741920838E+03  0.26287422849E+03 0.  0.
         25    1    3    3    0    0  0.83932022337E+02 -0.23830332058E+02  0.31214904652E+02  0.15567384967E+03  0.12509000000E+03 0.  0.
         25    1    4    4    0    0 -0.24756023852E+02  0.48252174709E+02 -0.57661338770E+02  0.14803199374E+03  0.12509000000E+03 0.  0.
         25    1    4    4    0    0 -0.59175998485E+02 -0.24421842651E+02 -0.50703122224E+02  0.14938721464E+03  0.12509000000E+03 0.  0.
<mgrwt>
<rscale>  2 0.44647650E+03</rscale>
<asrwt>0</asrwt>
<pdfrwt beam="1">  1       21 0.27642905E-01 0.44647650E+03</pdfrwt>
<pdfrwt beam="2">  1       21 0.38988427E-01 0.44647650E+03</pdfrwt>
<totfact> 0.73560935E+04</totfact>
</mgrwt>
</event>
<event>
 7    0  0.4784406E-002  0.4672750E+03  0.7546771E-02  0.1022692E+00
         21   -1    0    0  502  501  0.00000000000E+00  0.00000000000E+00  0.69612322433E+02  0.69612322433E+02  0.00000000000E+00 0.  1.
         21   -1    0    0  501  502 -0.00000000000E+00 -0.00000000000E+00 -0.78414983949E+03  0.78414983949E+03  0.00000000000E+00 0.  1.
      99926    2    1    2    0    0  0.14210854715E-13  0.00000000000E+00 -0.71453751706E+03  0.85376216193E+03  0.46727504304E+03 0.  0.
      99925    2    3    3    0    0 -0.99639572550E+02 -0.48423424070E+02 -0.54816535734E+03  0.61796547822E+03  0.26291291499E+03 0.  0.
         25    1    4    4    0    0 -0.19509594850E+02 -0.16225824039E+02 -0.19012837999E+03  0.22899827649E+03  0.12509000000E+03 0.  0.
         25    1    3    3    0    0  0.99639572550E+02  0.48423424070E+02 -0.16637215972E+03  0.23579668371E+03  0.12509000000E+03 0.  0.
         25    1    4    4    0    0 -0.80129977701E+02 -0.32197600031E+02 -0.35803697735E+03  0.38896720173E+03  0.12509000000E+03 0.  0.
<mgrwt>
<rscale>  2 0.46727504E+03</rscale>
<asrwt>0</asrwt>
<pdfrwt beam="1">  1       21 0.10237107E-01 0.46727504E+03</pdfrwt>
<pdfrwt beam="2">  1       21 0.11531615E+00 0.46727504E+03</pdfrwt>
<totfact> 0.41162478E+04</totfact>
</mgrwt>
</event>
<event>
 7    0  0.4784406E-002  0.4573420E+03  0.7546771E-02  0.1025555E+00
         21   -1    0    0  502  501  0.00000000000E+00  0.00000000000E+00  0.24800031201E+03  0.24800031201E+03  0.00000000000E+00 0. -1.
         21   -1    0    0  501  502 -0.00000000000E+00 -0.00000000000E+00 -0.21084825962E+03  0.21084825962E+03  0.00000000000E+00 0. -1.
      99926    2    1    2    0    0  0.00000000000E+00  0.00000000000E+00  0.37152052396E+02  0.45884857163E+03  0.45734203468E+03 0.  0.
      99925    2    3    3    0    0 -0.17312826756E+02 -0.91396058627E+02 -0.45068355138E+02  0.28260817609E+03  0.26302709187E+03 0.  0.
         25    1    4    4    0    0  0.11952498404E+02 -0.69090449024E+02  0.35609697252E+01  0.14344525426E+03  0.12509000000E+03 0.  0.
         25    1    4    4    0    0 -0.29265325160E+02 -0.22305609603E+02 -0.48629324863E+02  0.13916292183E+03  0.12509000000E+03 0.  0.
         25    1    3    3    0    0  0.17312826756E+02  0.91396058627E+02  0.82220407534E+02  0.17624039553E+03  0.12509000000E+03 0.  0.
<mgrwt>
<rscale>  2 0.45734203E+03</rscale>
<asrwt>0</asrwt>
<pdfrwt beam="1">  1       21 0.36470634E-01 0.45734203E+03</pdfrwt>
<pdfrwt beam="2">  1       21 0.31007097E-01 0.45734203E+03</pdfrwt>
<totfact> 0.67003953E+04</totfact>
</mgrwt>
</event>
<event>
 7    0  0.4784406E-002  0.4602899E+03  0.7546771E-02  0.1024697E+00
         21   -1    0    0  502  501  0.00000000000E+00  0.00000000000E+00  0.59266129019E+03  0.59266129019E+03  0.00000000000E+00 0. -1.
         21   -1    0    0  501  502 -0.00000000000E+00 -0.00000000000E+00 -0.89370940516E+02  0.89370940516E+02  0.00000000000E+00 0. -1.
      99926    2    1    2    0    0  0.35527136788E-14  0.00000000000E+00  0.50329034967E+03  0.68203223070E+03  0.46028989522E+03 0.  0.
      99925    2    3    3    0    0 -0.27686489281E+02  0.10367200858E+03  0.38810667104E+03  0.48096205645E+03  0.26302715560E+03 0.  0.
         25    1    4    4    0    0  0.81137424069E+01  0.14428088925E+02  0.17930032398E+03  0.21924898368E+03  0.12509000000E+03 0.  0.
         25    1    4    4    0    0 -0.35800231688E+02  0.89243919655E+02  0.20880634706E+03  0.26171307277E+03  0.12509000000E+03 0.  0.
         25    1    3    3    0    0  0.27686489281E+02 -0.10367200858E+03  0.11518367863E+03  0.20107017425E+03  0.12509000000E+03 0.  0.
<mgrwt>
<rscale>  2 0.46028990E+03</rscale>
<asrwt>0</asrwt>
<pdfrwt beam="1">  1       21 0.87156070E-01 0.46028990E+03</pdfrwt>
<pdfrwt beam="2">  1       21 0.13142786E-01 0.46028990E+03</pdfrwt>
<totfact> 0.51701190E+04</totfact>
</mgrwt>
</event>
<event>
 7    0  0.4784406E-002  0.4484820E+03  0.7546771E-02  0.1028176E+00
         21   -1    0    0  502  501  0.00000000000E+00  0.00000000000E+00  0.56363683456E+02  0.56363683456E+02  0.00000000000E+00 0. -1.
         21   -1    0    0  501  502 -0.00000000000E+00 -0.00000000000E+00 -0.89213517336E+03  0.89213517336E+03  0.00000000000E+00 0. -1.
      99926    2    1    2    0    0 -0.35527136788E-14  0.00000000000E+00 -0.83577148990E+03  0.94849885681E+03  0.44848199300E+03 0.  0.
      99925    2    3    3    0    0  0.31069844759E+02  0.71296516993E+02 -0.68402783470E+03  0.73702267948E+03  0.26317261032E+03 0.  0.
         25    1    4    4    0    0  0.23524620070E+02  0.55227635863E+01 -0.25150415857E+03  0.28193218785E+03  0.12509000000E+03 0.  0.
         25    1    4    4    0    0  0.75452246889E+01  0.65773753407E+02 -0.43252367613E+03  0.45509049162E+03  0.12509000000E+03 0.  0.
         25    1    3    3    0    0 -0.31069844759E+02 -0.71296516993E+02 -0.15174365520E+03  0.21147617734E+03  0.12509000000E+03 0.  0.
<mgrwt>
<rscale>  2 0.44848199E+03</rscale>
<asrwt>0</asrwt>
<pdfrwt beam="1">  1       21 0.82887775E-02 0.44848199E+03</pdfrwt>
<pdfrwt beam="2">  1       21 0.13119634E+00 0.44848199E+03</pdfrwt>
<totfact> 0.43370388E+04</totfact>
</mgrwt>
</event>
<event>
 7    0  0.4784406E-002  0.4582751E+03  0.7546771E-02  0.1025283E+00
         21   -1    0    0  502  501  0.00000000000E+00  0.00000000000E+00  0.15429595757E+03  0.15429595757E+03  0.00000000000E+00 0.  1.
         21   -1    0    0  501  502 -0.00000000000E+00 -0.00000000000E+00 -0.34028119731E+03  0.34028119731E+03  0.00000000000E+00 0.  1.
      99926    2    1    2    0    0 -0.17763568394E-14  0.00000000000E+00 -0.18598523974E+03  0.49457715488E+03  0.45827508412E+03 0.  0.
      99925    2    3    3    0    0 -0.11225206443E+02 -0.52610859548E+02 -0.48467085629E+01  0.26796607090E+03  0.26246602974E+03 0.  0.
         25    1    4    4    0    0 -0.30924378186E+01 -0.17159048340E+02 -0.40972522449E+02  0.13277895845E+03  0.12509000000E+03 0.  0.
         25    1    3    3    0    0  0.11225206443E+02  0.52610859548E+02 -0.18113853118E+03  0.22661108398E+03  0.12509000000E+03 0.  0.
         25    1    4    4    0    0 -0.81327686240E+01 -0.35451811208E+02  0.36125813886E+02  0.13518711245E+03  0.12509000000E+03 0.  0.
<mgrwt>
<rscale>  2 0.45827508E+03</rscale>
<asrwt>0</asrwt>
<pdfrwt beam="1">  1       21 0.22690582E-01 0.45827508E+03</pdfrwt>
<pdfrwt beam="2">  1       21 0.50041352E-01 0.45827508E+03</pdfrwt>
<totfact> 0.63973782E+04</totfact>
</mgrwt>
</event>
<event>
 7    0  0.4784406E-002  0.4533577E+03  0.7546771E-02  0.1026725E+00
         21   -1    0    0  502  501  0.00000000000E+00  0.00000000000E+00  0.51095164500E+03  0.51095164500E+03  0.00000000000E+00 0. -1.
         21   -1    0    0  501  502 -0.00000000000E+00 -0.00000000000E+00 -0.10056392532E+03  0.10056392532E+03  0.00000000000E+00 0. -1.
      99926    2    1    2    0    0  0.44408920985E-15 -0.71054273576E-14  0.41038771968E+03  0.61151557032E+03  0.45335770897E+03 0.  0.
      99925    2    3    3    0    0 -0.34328457301E+01 -0.62666920302E+02  0.38312188591E+03  0.46893274835E+03  0.26301447808E+03 0.  0.
         25    1    4    4    0    0 -0.19934070796E+02 -0.64200961072E+02  0.17284008086E+03  0.22369696519E+03  0.12509000000E+03 0.  0.
         25    1    4    4    0    0  0.16501225065E+02  0.15340407698E+01  0.21028180504E+03  0.24523578316E+03  0.12509000000E+03 0.  0.
         25    1    3    3    0    0  0.34328457301E+01  0.62666920302E+02  0.27265833771E+02  0.14258282197E+03  0.12509000000E+03 0.  0.
<mgrwt>
<rscale>  2 0.45335771E+03</rscale>
<asrwt>0</asrwt>
<pdfrwt beam="1">  1       21 0.75139947E-01 0.45335771E+03</pdfrwt>
<pdfrwt beam="2">  1       21 0.14788813E-01 0.45335771E+03</pdfrwt>
<totfact> 0.58733162E+04</totfact>
</mgrwt>
</event>
<event>
 7    0  0.4784406E-002  0.4430541E+03  0.7546771E-02  0.1029814E+00
         21   -1    0    0  502  501  0.00000000000E+00  0.00000000000E+00  0.36316166990E+03  0.36316166990E+03  0.00000000000E+00 0.  1.
         21   -1    0    0  501  502 -0.00000000000E+00 -0.00000000000E+00 -0.13513056516E+03  0.13513056516E+03  0.00000000000E+00 0.  1.
      99926    2    1    2    0    0  0.00000000000E+00  0.00000000000E+00  0.22803110474E+03  0.49829223505E+03  0.44305413527E+03 0.  0.
      99925    2    3    3    0    0 -0.46070784263E+02  0.62985686789E+02  0.21820754676E+03  0.35052984371E+03  0.26299605314E+03 0.  0.
         25    1    4    4    0    0 -0.40556032026E+02  0.48570800446E+02  0.72325148721E+02  0.15774140112E+03  0.12509000000E+03 0.  0.
         25    1    4    4    0    0 -0.55147522374E+01  0.14414886342E+02  0.14588239804E+03  0.19278844259E+03  0.12509000000E+03 0.  0.
         25    1    3    3    0    0  0.46070784263E+02 -0.62985686789E+02  0.98235579838E+01  0.14776239134E+03  0.12509000000E+03 0.  0.
<mgrwt>
<rscale>  2 0.44305414E+03</rscale>
<asrwt>0</asrwt>
<pdfrwt beam="1">  1       21 0.53406128E-01 0.44305414E+03</pdfrwt>
<pdfrwt beam="2">  1       21 0.19872142E-01 0.44305414E+03</pdfrwt>
<totfact> 0.71977141E+04</totfact>
</mgrwt>
</event>
<event>
 7    0  0.4784406E-002  0.4535195E+03  0.7546771E-02  0.1026678E+00
         21   -1    0    0  502  501  0.00000000000E+00  0.00000000000E+00  0.48108958654E+03  0.48108958654E+03  0.00000000000E+00 0.  1.
         21   -1    0    0  501  502 -0.00000000000E+00 -0.00000000000E+00 -0.10688235401E+03  0.10688235401E+03  0.00000000000E+00 0.  1.
      99926    2    1    2    0    0  0.00000000000E+00  0.00000000000E+00  0.37420723252E+03  0.58797194055E+03  0.45351951446E+03 0.  0.
      99925    2    3    3    0    0 -0.76499376117E+02 -0.68610895574E+02  0.29189688758E+03  0.40636216514E+03  0.26337578998E+03 0.  0.
         25    1    4    4    0    0  0.14661019775E+01 -0.44522917390E+02  0.15033293056E+03  0.20057900623E+03  0.12509000000E+03 0.  0.
         25    1    3    3    0    0  0.76499376117E+02  0.68610895574E+02  0.82310344947E+02  0.18160977541E+03  0.12509000000E+03 0.  0.
         25    1    4    4    0    0 -0.77965478095E+02 -0.24087978184E+02  0.14156395701E+03  0.20578315891E+03  0.12509000000E+03 0.  0.
<mgrwt>
<rscale>  2 0.45351951E+03</rscale>
<asrwt>0</asrwt>
<pdfrwt beam="1">  1       21 0.70748468E-01 0.45351951E+03</pdfrwt>
<pdfrwt beam="2">  1       21 0.15717993E-01 0.45351951E+03</pdfrwt>
<totfact> 0.60125282E+04</totfact>
</mgrwt>
</event>
<event>
 7    0  0.4784406E-002  0.4504579E+03  0.7546771E-02  0.1027586E+00
         21   -1    0    0  502  501  0.00000000000E+00  0.00000000000E+00  0.38380679417E+03  0.38380679417E+03  0.00000000000E+00 0.  1.
         21   -1    0    0  501  502 -0.00000000000E+00 -0.00000000000E+00 -0.13217088572E+03  0.13217088572E+03  0.00000000000E+00 0.  1.
      99926    2    1    2    0    0  0.71054273576E-14 -0.71054273576E-14  0.25163590845E+03  0.51597767989E+03  0.45045791782E+03 0.  0.
      99925    2    3    3    0    0 -0.44609178388E+02  0.56012120338E+02  0.25271751194E+03  0.37183880801E+03  0.26319312659E+03 0.  0.
         25    1    4    4    0    0 -0.60103217621E+02  0.17969085304E+02  0.14729349202E+03  0.20317028741E+03  0.12509000000E+03 0.  0.
         25    1    3    3    0    0  0.44609178388E+02 -0.56012120338E+02 -0.10816034913E+01  0.14413887188E+03  0.12509000000E+03 0.  0.
         25    1    4    4    0    0  0.15494039233E+02  0.38043035034E+02  0.10542401992E+03  0.16866852060E+03  0.12509000000E+03 0.  0.
<mgrwt>
<rscale>  2 0.45045792E+03</rscale>
<asrwt>0</asrwt>
<pdfrwt beam="1">  1       21 0.56442175E-01 0.45045792E+03</pdfrwt>
<pdfrwt beam="2">  1       21 0.19436895E-01 0.45045792E+03</pdfrwt>
<totfact> 0.66527488E+04</totfact>
</mgrwt>
</event>
<event>
 7    0  0.4784406E-002  0.4798857E+03  0.7546771E-02  0.1019167E+00
         21   -1    0    0  502  501  0.00000000000E+00  0.00000000000E+00  0.26781942781E+03  0.26781942781E+03  0.00000000000E+00 0.  1.
         21   -1    0    0  501  502 -0.00000000000E+00 -0.00000000000E+00 -0.21496790708E+03  0.21496790708E+03  0.00000000000E+00 0.  1.
      99926    2    1    2    0    0  0.71054273576E-14  0.14210854715E-13  0.52851520735E+02  0.48278733489E+03  0.47988574420E+03 0.  0.
      99925    2    3    3    0    0 -0.63733709053E+02 -0.64519887567E+02 -0.69152810505E+02  0.28591842800E+03  0.26218778520E+03 0.  0.
         25    1    4    4    0    0 -0.41407816898E+01 -0.85743195993E+01 -0.50881006946E+02  0.13537743533E+03  0.12509000000E+03 0.  0.
         25    1    4    4    0    0 -0.59592927363E+02 -0.55945567968E+02 -0.18271803559E+02  0.15054099266E+03  0.12509000000E+03 0.  0.
         25    1    3    3    0    0  0.63733709053E+02  0.64519887567E+02  0.12200433124E+03  0.19686890690E+03  0.12509000000E+03 0.  0.
<mgrwt>
<rscale>  2 0.47988574E+03</rscale>
<asrwt>0</asrwt>
<pdfrwt beam="1">  1       21 0.39385210E-01 0.47988574E+03</pdfrwt>
<pdfrwt beam="2">  1       21 0.31612927E-01 0.47988574E+03</pdfrwt>
<totfact> 0.54833083E+04</totfact>
</mgrwt>
</event>
<event>
 7    0  0.4784406E-002  0.4560947E+03  0.7546771E-02  0.1025920E+00
         21   -1    0    0  502  501  0.00000000000E+00  0.00000000000E+00  0.54056558048E+03  0.54056558048E+03  0.00000000000E+00 0. -1.
         21   -1    0    0  501  502 -0.00000000000E+00 -0.00000000000E+00 -0.96205891080E+02  0.96205891080E+02  0.00000000000E+00 0. -1.
      99926    2    1    2    0    0  0.00000000000E+00 -0.35527136788E-14  0.44435968940E+03  0.63677147156E+03  0.45609469788E+03 0.  0.
      99925    2    3    3    0    0 -0.46550167820E+02 -0.23401382191E+02  0.42108938989E+03  0.49928126190E+03  0.26315577402E+03 0.  0.
         25    1    4    4    0    0 -0.20528066792E+02  0.20316271582E+02  0.15820760510E+03  0.20374323750E+03  0.12509000000E+03 0.  0.
         25    1    3    3    0    0  0.46550167820E+02  0.23401382191E+02  0.23270299516E+02  0.13749020966E+03  0.12509000000E+03 0.  0.
         25    1    4    4    0    0 -0.26022101028E+02 -0.43717653773E+02  0.26288178479E+03  0.29553802440E+03  0.12509000000E+03 0.  0.
<mgrwt>
<rscale>  2 0.45609470E+03</rscale>
<asrwt>0</asrwt>
<pdfrwt beam="1">  1       21 0.79494937E-01 0.45609470E+03</pdfrwt>
<pdfrwt beam="2">  1       21 0.14147925E-01 0.45609470E+03</pdfrwt>
<totfact> 0.55984823E+04</totfact>
</mgrwt>
</event>
<event>
 7    0  0.4784406E-002  0.4542270E+03  0.7546771E-02  0.1026469E+00
         21   -1    0    0  502  501  0.00000000000E+00  0.00000000000E+00  0.13614288928E+04  0.13614288928E+04  0.00000000000E+00 0.  1.
         21   -1    0    0  501  502 -0.00000000000E+00 -0.00000000000E+00 -0.37887058106E+02  0.37887058106E+02  0.00000000000E+00 0.  1.
      99926    2    1    2    0    0  0.00000000000E+00  0.00000000000E+00  0.13235418347E+04  0.13993159509E+04  0.45422697221E+03 0.  0.
      99925    2    3    3    0    0 -0.81414921869E+02 -0.67942759040E+02  0.94824762381E+03  0.98975782215E+03  0.26306345706E+03 0.  0.
         25    1    4    4    0    0 -0.54266858695E+02 -0.66462722027E+02  0.59498444838E+03  0.61401643894E+03  0.12509000000E+03 0.  0.
         25    1    4    4    0    0 -0.27148063174E+02 -0.14800370131E+01  0.35326317543E+03  0.37574138321E+03  0.12509000000E+03 0.  0.
         25    1    3    3    0    0  0.81414921869E+02  0.67942759040E+02  0.37529421091E+03  0.40955812878E+03  0.12509000000E+03 0.  0.
<mgrwt>
<rscale>  2 0.45422697E+03</rscale>
<asrwt>0</asrwt>
<pdfrwt beam="1">  1       21 0.20021010E+00 0.45422697E+03</pdfrwt>
<pdfrwt beam="2">  1       21 0.55716271E-02 0.45422697E+03</pdfrwt>
<totfact> 0.26509131E+04</totfact>
</mgrwt>
</event>
<event>
 7    0  0.4784406E-002  0.4572463E+03  0.7546771E-02  0.1025583E+00
         21   -1    0    0  502  501  0.00000000000E+00  0.00000000000E+00  0.67204748180E+03  0.67204748180E+03  0.00000000000E+00 0.  1.
         21   -1    0    0  501  502 -0.00000000000E+00 -0.00000000000E+00 -0.77775093114E+02  0.77775093114E+02  0.00000000000E+00 0.  1.
      99926    2    1    2    0    0  0.00000000000E+00  0.00000000000E+00  0.59427238868E+03  0.74982257491E+03  0.45724634706E+03 0.  0.
      99925    2    3    3    0    0  0.47622905720E+02 -0.95018686740E+02  0.30002075989E+03  0.41288337991E+03  0.26298999423E+03 0.  0.
         25    1    4    4    0    0  0.55689809921E+02 -0.71047802407E+02  0.18694998293E+03  0.24237769983E+03  0.12509000000E+03 0.  0.
         25    1    3    3    0    0 -0.47622905720E+02  0.95018686740E+02  0.29425162879E+03  0.33693919500E+03  0.12509000000E+03 0.  0.
         25    1    4    4    0    0 -0.80669042008E+01 -0.23970884333E+02  0.11307077696E+03  0.17050568009E+03  0.12509000000E+03 0.  0.
<mgrwt>
<rscale>  2 0.45724635E+03</rscale>
<asrwt>0</asrwt>
<pdfrwt beam="1">  1       21 0.98830509E-01 0.45724635E+03</pdfrwt>
<pdfrwt beam="2">  1       21 0.11437514E-01 0.45724635E+03</pdfrwt>
<totfact> 0.49401987E+04</totfact>
</mgrwt>
</event>
<event>
 7    0  0.4784406E-002  0.4571475E+03  0.7546771E-02  0.1025612E+00
         21   -1    0    0  502  501  0.00000000000E+00  0.00000000000E+00  0.33890906698E+02  0.33890906698E+02  0.00000000000E+00 0.  1.
         21   -1    0    0  501  502 -0.00000000000E+00 -0.00000000000E+00 -0.15415924577E+04  0.15415924577E+04  0.00000000000E+00 0.  1.
      99926    2    1    2    0    0  0.00000000000E+00  0.00000000000E+00 -0.15077015510E+04  0.15754833644E+04  0.45714753045E+03 0.  0.
      99925    2    3    3    0    0 -0.92802469237E+02 -0.52141583936E+02 -0.79543012274E+03  0.84451883811E+03  0.26300559821E+03 0.  0.
         25    1    3    3    0    0  0.92802469237E+02  0.52141583936E+02 -0.71227142821E+03  0.73096452624E+03  0.12509000000E+03 0.  0.
         25    1    4    4    0    0 -0.33208863453E+02  0.10879264193E+02 -0.41166927738E+03  0.43167150594E+03  0.12509000000E+03 0.  0.
         25    1    4    4    0    0 -0.59593605784E+02 -0.63020848129E+02 -0.38376084536E+03  0.41284733217E+03  0.12509000000E+03 0.  0.
<mgrwt>
<rscale>  2 0.45714753E+03</rscale>
<asrwt>0</asrwt>
<pdfrwt beam="1">  1       21 0.49839559E-02 0.45714753E+03</pdfrwt>
<pdfrwt beam="2">  1       21 0.22670482E+00 0.45714753E+03</pdfrwt>
<totfact> 0.21625369E+04</totfact>
</mgrwt>
</event>
<event>
 7    0  0.4784406E-002  0.4548228E+03  0.7546771E-02  0.1026294E+00
         21   -1    0    0  502  501  0.00000000000E+00  0.00000000000E+00  0.10154805303E+04  0.10154805303E+04  0.00000000000E+00 0. -1.
         21   -1    0    0  501  502 -0.00000000000E+00 -0.00000000000E+00 -0.50927553182E+02  0.50927553182E+02  0.00000000000E+00 0. -1.
      99926    2    1    2    0    0  0.44408920985E-15  0.00000000000E+00  0.96455297715E+03  0.10664080835E+04  0.45482277302E+03 0.  0.
      99925    2    3    3    0    0  0.34585186394E+01 -0.11004257503E+03  0.54718508387E+03  0.61700314794E+03  0.26298296313E+03 0.  0.
         25    1    4    4    0    0  0.29547706550E+02 -0.31317105016E+02  0.21424920455E+03  0.25180162386E+03  0.12509000000E+03 0.  0.
         25    1    3    3    0    0 -0.34585186394E+01  0.11004257503E+03  0.41736789328E+03  0.44940493557E+03  0.12509000000E+03 0.  0.
         25    1    4    4    0    0 -0.26089187911E+02 -0.78725470018E+02  0.33293587932E+03  0.36520152408E+03  0.12509000000E+03 0.  0.
<mgrwt>
<rscale>  2 0.45482277E+03</rscale>
<asrwt>0</asrwt>
<pdfrwt beam="1">  1       21 0.14933536E+00 0.45482277E+03</pdfrwt>
<pdfrwt beam="2">  1       21 0.74893467E-02 0.45482277E+03</pdfrwt>
<totfact> 0.36731812E+04</totfact>
</mgrwt>
</event>
<event>
 7    0  0.4784406E-002  0.4551311E+03  0.7546771E-02  0.1026203E+00
         21   -1    0    0  502  501  0.00000000000E+00  0.00000000000E+00  0.94388021214E+03  0.94388021214E+03  0.00000000000E+00 0.  1.
         21   -1    0    0  501  502 -0.00000000000E+00 -0.00000000000E+00 -0.54865089077E+02  0.54865089077E+02  0.00000000000E+00 0.  1.
      99926    2    1    2    0    0 -0.35527136788E-14  0.00000000000E+00  0.88901512306E+03  0.99874530121E+03  0.45513106647E+03 0.  0.
      99925    2    3    3    0    0  0.23605740045E+02  0.11041976505E+03  0.53755781227E+03  0.60897677390E+03  0.26293450542E+03 0.  0.
         25    1    4    4    0    0  0.79791354527E+01  0.78401628185E+02  0.21257239614E+03  0.25893051887E+03  0.12509000000E+03 0.  0.
         25    1    4    4    0    0  0.15626604592E+02  0.32018136865E+02  0.32498541613E+03  0.35004625503E+03  0.12509000000E+03 0.  0.
         25    1    3    3    0    0 -0.23605740045E+02 -0.11041976505E+03  0.35145731079E+03  0.38976852731E+03  0.12509000000E+03 0.  0.
<mgrwt>
<rscale>  2 0.45513107E+03</rscale>
<asrwt>0</asrwt>
<pdfrwt beam="1">  1       21 0.13880590E+00 0.45513107E+03</pdfrwt>
<pdfrwt beam="2">  1       21 0.80683960E-02 0.45513107E+03</pdfrwt>
<totfact> 0.39175520E+04</totfact>
</mgrwt>
</event>
<event>
 7    0  0.4784406E-002  0.4576653E+03  0.7546771E-02  0.1025461E+00
         21   -1    0    0  502  501  0.00000000000E+00  0.00000000000E+00  0.18138665758E+04  0.18138665758E+04  0.00000000000E+00 0. -1.
         21   -1    0    0  501  502 -0.00000000000E+00 -0.00000000000E+00 -0.28868926526E+02  0.28868926526E+02  0.00000000000E+00 0. -1.
      99926    2    1    2    0    0  0.88817841970E-15 -0.17763568394E-14  0.17849976493E+04  0.18427355023E+04  0.45766529650E+03 0.  0.
      99925    2    3    3    0    0  0.34041781747E+01  0.42482779804E+01  0.65558964345E+03  0.70640826600E+03  0.26303083732E+03 0.  0.
         25    1    4    4    0    0  0.19827329320E+02  0.29803601104E+02  0.39272549371E+03  0.41371753545E+03  0.12509000000E+03 0.  0.
         25    1    4    4    0    0 -0.16423151146E+02 -0.25555323123E+02  0.26286414974E+03  0.29269073055E+03  0.12509000000E+03 0.  0.
         25    1    3    3    0    0 -0.34041781747E+01 -0.42482779804E+01  0.11294080058E+04  0.11363272363E+04  0.12509000000E+03 0.  0.
<mgrwt>
<rscale>  2 0.45766530E+03</rscale>
<asrwt>0</asrwt>
<pdfrwt beam="1">  1       21 0.26674501E+00 0.45766530E+03</pdfrwt>
<pdfrwt beam="2">  1       21 0.42454316E-02 0.45766530E+03</pdfrwt>
<totfact> 0.16116168E+04</totfact>
</mgrwt>
</event>
<event>
 7    0  0.4784406E-002  0.4645677E+03  0.7546771E-02  0.1023465E+00
         21   -1    0    0  502  501  0.00000000000E+00  0.00000000000E+00  0.24907009992E+02  0.24907009992E+02  0.00000000000E+00 0. -1.
         21   -1    0    0  501  502 -0.00000000000E+00 -0.00000000000E+00 -0.21662893373E+04  0.21662893373E+04  0.00000000000E+00 0. -1.
      99926    2    1    2    0    0  0.00000000000E+00  0.00000000000E+00 -0.21413823273E+04  0.21911963473E+04  0.46456771378E+03 0.  0.
      99925    2    3    3    0    0 -0.83928209152E+02 -0.88380471700E+02 -0.13180908600E+04  0.13495839661E+04  0.26297968373E+03 0.  0.
         25    1    3    3    0    0  0.83928209152E+02  0.88380471700E+02 -0.82329146730E+03  0.84161238127E+03  0.12509000000E+03 0.  0.
         25    1    4    4    0    0 -0.51356045578E+02 -0.27476750604E+02 -0.81483136226E+03  0.82643213410E+03  0.12509000000E+03 0.  0.
         25    1    4    4    0    0 -0.32572163575E+02 -0.60903721096E+02 -0.50325949778E+03  0.52315183196E+03  0.12509000000E+03 0.  0.
<mgrwt>
<rscale>  2 0.46456771E+03</rscale>
<asrwt>0</asrwt>
<pdfrwt beam="1">  1       21 0.36627948E-02 0.46456771E+03</pdfrwt>
<pdfrwt beam="2">  1       21 0.31857203E+00 0.46456771E+03</pdfrwt>
<totfact> 0.10063219E+04</totfact>
</mgrwt>
</event>
<event>
 7    0  0.4784406E-002  0.4542576E+03  0.7546771E-02  0.1026460E+00
         21   -1    0    0  502  501  0.00000000000E+00  0.00000000000E+00  0.37690015105E+02  0.37690015105E+02  0.00000000000E+00 0. -1.
         21   -1    0    0  501  502 -0.00000000000E+00 -0.00000000000E+00 -0.13687309996E+04  0.13687309996E+04  0.00000000000E+00 0. -1.
      99926    2    1    2    0    0  0.00000000000E+00  0.00000000000E+00 -0.13310409845E+04  0.14064210147E+04  0.45425760115E+03 0.  0.
      99925    2    3    3    0    0 -0.35289924803E+02  0.80097821342E+02 -0.10571109286E+04  0.10928190004E+04  0.26288555001E+03 0.  0.
         25    1    4    4    0    0 -0.28116160896E+02  0.33488335501E+02 -0.67800500531E+03  0.69083303514E+03  0.12509000000E+03 0.  0.
         25    1    3    3    0    0  0.35289924803E+02 -0.80097821342E+02 -0.27393005585E+03  0.31360201430E+03  0.12509000000E+03 0.  0.
         25    1    4    4    0    0 -0.71737639070E+01  0.46609485841E+02 -0.37910592332E+03  0.40198596525E+03  0.12509000000E+03 0.  0.
<mgrwt>
<rscale>  2 0.45425760E+03</rscale>
<asrwt>0</asrwt>
<pdfrwt beam="1">  1       21 0.55426484E-02 0.45425760E+03</pdfrwt>
<pdfrwt beam="2">  1       21 0.20128400E+00 0.45425760E+03</pdfrwt>
<totfact> 0.26312865E+04</totfact>
</mgrwt>
</event>
<event>
 7    0  0.4784406E-002  0.4566856E+03  0.7546771E-02  0.1025747E+00
         21   -1    0    0  502  501  0.00000000000E+00  0.00000000000E+00  0.19018555021E+03  0.19018555021E+03  0.00000000000E+00 0.  1.
         21   -1    0    0  501  502 -0.00000000000E+00 -0.00000000000E+00 -0.27415566348E+03  0.27415566348E+03  0.00000000000E+00 0.  1.
      99926    2    1    2    0    0  0.00000000000E+00 -0.14210854715E-13 -0.83970113278E+02  0.46434121369E+03  0.45668564988E+03 0.  0.
      99925    2    3    3    0    0  0.21198423144E+02 -0.55473649567E+02  0.47323286993E+02  0.27352149774E+03  0.26276951363E+03 0.  0.
         25    1    4    4    0    0  0.29155495023E+02  0.80047049705E+01  0.17304853150E+02  0.12985023771E+03  0.12509000000E+03 0.  0.
         25    1    3    3    0    0 -0.21198423144E+02  0.55473649567E+02 -0.13129340027E+03  0.19081971595E+03  0.12509000000E+03 0.  0.
         25    1    4    4    0    0 -0.79570718788E+01 -0.63478354538E+02  0.30018433844E+02  0.14367126003E+03  0.12509000000E+03 0.  0.
<mgrwt>
<rscale>  2 0.45668565E+03</rscale>
<asrwt>0</asrwt>
<pdfrwt beam="1">  1       21 0.27968464E-01 0.45668565E+03</pdfrwt>
<pdfrwt beam="2">  1       21 0.40317009E-01 0.45668565E+03</pdfrwt>
<totfact> 0.66957354E+04</totfact>
</mgrwt>
</event>
<event>
 7    0  0.4784406E-002  0.4551753E+03  0.7546771E-02  0.1026190E+00
         21   -1    0    0  502  501  0.00000000000E+00  0.00000000000E+00  0.59598404960E+03  0.59598404960E+03  0.00000000000E+00 0.  1.
         21   -1    0    0  501  502 -0.00000000000E+00 -0.00000000000E+00 -0.86908594175E+02  0.86908594175E+02  0.00000000000E+00 0.  1.
      99926    2    1    2    0    0  0.00000000000E+00  0.14210854715E-13  0.50907545543E+03  0.68289264378E+03  0.45517528888E+03 0.  0.
      99925    2    3    3    0    0  0.14658193096E+02  0.11032640749E+03  0.28474519220E+03  0.40296702167E+03  0.26251822271E+03 0.  0.
         25    1    4    4    0    0  0.22582282632E+01  0.13246366402E+02  0.11406806014E+03  0.16982224902E+03  0.12509000000E+03 0.  0.
         25    1    3    3    0    0 -0.14658193096E+02 -0.11032640749E+03  0.22433026323E+03  0.27992562211E+03  0.12509000000E+03 0.  0.
         25    1    4    4    0    0  0.12399964833E+02  0.97080041087E+02  0.17067713206E+03  0.23314477265E+03  0.12509000000E+03 0.  0.
<mgrwt>
<rscale>  2 0.45517529E+03</rscale>
<asrwt>0</asrwt>
<pdfrwt beam="1">  1       21 0.87644711E-01 0.45517529E+03</pdfrwt>
<pdfrwt beam="2">  1       21 0.12780676E-01 0.45517529E+03</pdfrwt>
<totfact> 0.53767712E+04</totfact>
</mgrwt>
</event>
<event>
 7    0  0.4784406E-002  0.4570571E+03  0.7546771E-02  0.1025638E+00
         21   -1    0    0  502  501  0.00000000000E+00  0.00000000000E+00  0.15983949352E+03  0.15983949352E+03  0.00000000000E+00 0. -1.
         21   -1    0    0  501  502 -0.00000000000E+00 -0.00000000000E+00 -0.32673587571E+03  0.32673587571E+03  0.00000000000E+00 0. -1.
      99926    2    1    2    0    0 -0.71054273576E-14  0.00000000000E+00 -0.16689638219E+03  0.48657536923E+03  0.45705709442E+03 0.  0.
      99925    2    3    3    0    0 -0.41473222042E+02 -0.35697289627E+01 -0.21914685549E+03  0.34476425835E+03  0.26287692643E+03 0.  0.
         25    1    3    3    0    0  0.41473222042E+02  0.35697289627E+01  0.52250473300E+02  0.14181111089E+03  0.12509000000E+03 0.  0.
         25    1    4    4    0    0 -0.42853283784E+02 -0.38875775599E+01 -0.68562459465E+02  0.14899609437E+03  0.12509000000E+03 0.  0.
         25    1    4    4    0    0  0.13800617427E+01  0.31784859719E+00 -0.15058439603E+03  0.19576816397E+03  0.12509000000E+03 0.  0.
<mgrwt>
<rscale>  2 0.45705709E+03</rscale>
<asrwt>0</asrwt>
<pdfrwt beam="1">  1       21 0.23505808E-01 0.45705709E+03</pdfrwt>
<pdfrwt beam="2">  1       21 0.48049393E-01 0.45705709E+03</pdfrwt>
<totfact> 0.65154005E+04</totfact>
</mgrwt>
</event>
<event>
 6    0  0.4784406E-002  0.4669463E+03  0.7546771E-02  0.1022786E+00
         21   -1    0    0  502  501  0.00000000000E+00  0.00000000000E+00  0.51979830034E+03  0.51979830034E+03  0.00000000000E+00 0.  1.
         21   -1    0    0  501  502 -0.00000000000E+00 -0.00000000000E+00 -0.10486705199E+03  0.10486705199E+03  0.00000000000E+00 0.  1.
      99926    2    1    2    0    0  0.00000000000E+00  0.54383580972E-15  0.41493124835E+03  0.62466535232E+03  0.46694631547E+03 0.  0.
         25    1    3    3    0    0 -0.42880538619E+01 -0.11498118725E+02  0.10572256677E+03  0.16424178325E+03  0.12509000000E+03 0.  0.
         25    1    3    3    0    0  0.32794123066E+02 -0.75258282183E-02  0.30529319806E+03  0.33155225749E+03  0.12509000000E+03 0.  0.
         25    1    3    3    0    0 -0.28506069205E+02  0.11505644553E+02  0.39154835190E+01  0.12887131158E+03  0.12509000000E+03 0.  0.
<mgrwt>
<rscale>  2 0.46694632E+03</rscale>
<asrwt>0</asrwt>
<pdfrwt beam="1">  1       21 0.76440926E-01 0.46694632E+03</pdfrwt>
<pdfrwt beam="2">  1       21 0.15421625E-01 0.46694632E+03</pdfrwt>
<totfact> 0.52094503E+04</totfact>
</mgrwt>
</event>
<event>
 7    0  0.4784406E-002  0.4522928E+03  0.7546771E-02  0.1027040E+00
         21   -1    0    0  502  501  0.00000000000E+00  0.00000000000E+00  0.38288054778E+03  0.38288054778E+03  0.00000000000E+00 0. -1.
         21   -1    0    0  501  502 -0.00000000000E+00 -0.00000000000E+00 -0.13357221590E+03  0.13357221590E+03  0.00000000000E+00 0. -1.
      99926    2    1    2    0    0  0.94368957093E-15  0.00000000000E+00  0.24930833189E+03  0.51645276368E+03  0.45229283961E+03 0.  0.
      99925    2    3    3    0    0 -0.39175380476E+00  0.65462012317E+02  0.55495854871E+02  0.27666908435E+03  0.26302198349E+03 0.  0.
         25    1    4    4    0    0 -0.14251811234E+02  0.64235764591E+02  0.61294263896E+01  0.14147234904E+03  0.12509000000E+03 0.  0.
         25    1    3    3    0    0  0.39175380476E+00 -0.65462012317E+02  0.19381247702E+03  0.23978367933E+03  0.12509000000E+03 0.  0.
         25    1    4    4    0    0  0.13860057430E+02  0.12262477264E+01  0.49366428482E+02  0.13519673530E+03  0.12509000000E+03 0.  0.
<mgrwt>
<rscale>  2 0.45229284E+03</rscale>
<asrwt>0</asrwt>
<pdfrwt beam="1">  1       21 0.56305963E-01 0.45229284E+03</pdfrwt>
<pdfrwt beam="2">  1       21 0.19642973E-01 0.45229284E+03</pdfrwt>
<totfact> 0.65525775E+04</totfact>
</mgrwt>
</event>
<event>
 7    0  0.4784406E-002  0.4781529E+03  0.7546771E-02  0.1019644E+00
         21   -1    0    0  502  501  0.00000000000E+00  0.00000000000E+00  0.96254659003E+03  0.96254659003E+03  0.00000000000E+00 0. -1.
         21   -1    0    0  501  502 -0.00000000000E+00 -0.00000000000E+00 -0.59381593470E+02  0.59381593470E+02  0.00000000000E+00 0. -1.
      99926    2    1    2    0    0  0.00000000000E+00  0.00000000000E+00  0.90316499656E+03  0.10219281835E+04  0.47815290569E+03 0.  0.
      99925    2    3    3    0    0  0.12819478626E+03  0.36380040193E+02  0.53263537645E+03  0.60877310604E+03  0.26295786705E+03 0.  0.
         25    1    4    4    0    0  0.30626781006E+02  0.93314798507E+01  0.29210492520E+03  0.31937105639E+03  0.12509000000E+03 0.  0.
         25    1    4    4    0    0  0.97568005258E+02  0.27048560342E+02  0.24053045125E+03  0.28940204965E+03  0.12509000000E+03 0.  0.
         25    1    3    3    0    0 -0.12819478626E+03 -0.36380040193E+02  0.37052962011E+03  0.41315507746E+03  0.12509000000E+03 0.  0.
<mgrwt>
<rscale>  2 0.47815291E+03</rscale>
<asrwt>0</asrwt>
<pdfrwt beam="1">  1       21 0.14155096E+00 0.47815291E+03</pdfrwt>
<pdfrwt beam="2">  1       21 0.87325879E-02 0.47815291E+03</pdfrwt>
<totfact> 0.32114162E+04</totfact>
</mgrwt>
</event>
<event>
 7    0  0.4784406E-002  0.4384514E+03  0.7546771E-02  0.1031223E+00
         21   -1    0    0  502  501  0.00000000000E+00  0.00000000000E+00  0.21335360288E+03  0.21335360288E+03  0.00000000000E+00 0.  1.
         21   -1    0    0  501  502 -0.00000000000E+00 -0.00000000000E+00 -0.22525937850E+03  0.22525937850E+03  0.00000000000E+00 0.  1.
      99926    2    1    2    0    0  0.71054273576E-14  0.14210854715E-13 -0.11905775612E+02  0.43861298138E+03  0.43845136554E+03 0.  0.
      99925    2    3    3    0    0 -0.28996134801E+02 -0.87995140792E+02  0.21645978838E+02  0.27937369928E+03  0.26267317110E+03 0.  0.
         25    1    3    3    0    0  0.28996134801E+02  0.87995140792E+02 -0.33551754450E+02  0.15923928210E+03  0.12509000000E+03 0.  0.
         25    1    4    4    0    0 -0.40818416338E+02 -0.47911626836E+02  0.41381255914E+02  0.14601912046E+03  0.12509000000E+03 0.  0.
         25    1    4    4    0    0  0.11822281537E+02 -0.40083513956E+02 -0.19735277076E+02  0.13335457882E+03  0.12509000000E+03 0.  0.
<mgrwt>
<rscale>  2 0.43845137E+03</rscale>
<asrwt>0</asrwt>
<pdfrwt beam="1">  1       21 0.31375530E-01 0.43845137E+03</pdfrwt>
<pdfrwt beam="2">  1       21 0.33126379E-01 0.43845137E+03</pdfrwt>
<totfact> 0.79789753E+04</totfact>
</mgrwt>
</event>
<event>
 7    0  0.4784406E-002  0.4371564E+03  0.7546771E-02  0.1031623E+00
         21   -1    0    0  502  501  0.00000000000E+00  0.00000000000E+00  0.67367259864E+03  0.67367259864E+03  0.00000000000E+00 0.  1.
         21   -1    0    0  501  502 -0.00000000000E+00 -0.00000000000E+00 -0.70919360818E+02  0.70919360818E+02  0.00000000000E+00 0.  1.
      99926    2    1    2    0    0  0.00000000000E+00  0.35527136788E-14  0.60275323782E+03  0.74459195946E+03  0.43715640266E+03 0.  0.
      99925    2    3    3    0    0 -0.63465354735E+01  0.26834630338E+02  0.54166610761E+03  0.60267817762E+03  0.26278972155E+03 0.  0.
         25    1    3    3    0    0  0.63465354735E+01 -0.26834630338E+02  0.61087130214E+02  0.14191378184E+03  0.12509000000E+03 0.  0.
         25    1    4    4    0    0 -0.41993127343E+00  0.20757621592E+01  0.35615319284E+03  0.37748786736E+03  0.12509000000E+03 0.  0.
         25    1    4    4    0    0 -0.59266042000E+01  0.24758868179E+02  0.18551291477E+03  0.22519031026E+03  0.12509000000E+03 0.  0.
<mgrwt>
<rscale>  2 0.43715640E+03</rscale>
<asrwt>0</asrwt>
<pdfrwt beam="1">  1       21 0.99069496E-01 0.43715640E+03</pdfrwt>
<pdfrwt beam="2">  1       21 0.10429318E-01 0.43715640E+03</pdfrwt>
<totfact> 0.58305431E+04</totfact>
</mgrwt>
</event>
<event>
 7    0  0.4784406E-002  0.4528466E+03  0.7546771E-02  0.1026877E+00
         21   -1    0    0  502  501  0.00000000000E+00  0.00000000000E+00  0.18834446172E+03  0.18834446172E+03  0.00000000000E+00 0.  1.
         21   -1    0    0  501  502 -0.00000000000E+00 -0.00000000000E+00 -0.27220082544E+03  0.27220082544E+03  0.00000000000E+00 0.  1.
      99926    2    1    2    0    0  0.22204460493E-14  0.00000000000E+00 -0.83856363721E+02  0.46054528716E+03  0.45284663164E+03 0.  0.
      99925    2    3    3    0    0 -0.39599437070E+01  0.10019158129E+03 -0.41912697866E+01  0.28152554130E+03  0.26303047266E+03 0.  0.
         25    1    4    4    0    0  0.22516899975E+02  0.41750430692E+02  0.29421419208E+02  0.13697896647E+03  0.12509000000E+03 0.  0.
         25    1    3    3    0    0  0.39599437070E+01 -0.10019158129E+03 -0.79665093935E+02  0.17901974586E+03  0.12509000000E+03 0.  0.
         25    1    4    4    0    0 -0.26476843682E+02  0.58441150595E+02 -0.33612688995E+02  0.14454657483E+03  0.12509000000E+03 0.  0.
<mgrwt>
<rscale>  2 0.45284663E+03</rscale>
<asrwt>0</asrwt>
<pdfrwt beam="1">  1       21 0.27697715E-01 0.45284663E+03</pdfrwt>
<pdfrwt beam="2">  1       21 0.40029533E-01 0.45284663E+03</pdfrwt>
<totfact> 0.69321158E+04</totfact>
</mgrwt>
</event>
<event>
 7    0  0.4784406E-002  0.4415473E+03  0.7546771E-02  0.1030273E+00
         21   -1    0    0  502  501  0.00000000000E+00  0.00000000000E+00  0.16293074558E+03  0.16293074558E+03  0.00000000000E+00 0. -1.
         21   -1    0    0  501  502 -0.00000000000E+00 -0.00000000000E+00 -0.29915168724E+03  0.29915168724E+03  0.00000000000E+00 0. -1.
      99926    2    1    2    0    0  0.00000000000E+00  0.00000000000E+00 -0.13622094166E+03  0.46208243282E+03  0.44154731318E+03 0.  0.
      99925    2    3    3    0    0 -0.65572856286E+02  0.16914049833E+02 -0.10032636046E+02  0.27193280453E+03  0.26317467931E+03 0.  0.
         25    1    3    3    0    0  0.65572856286E+02 -0.16914049833E+02 -0.12618830562E+03  0.19014962829E+03  0.12509000000E+03 0.  0.
         25    1    4    4    0    0 -0.64266510602E+02  0.13532143022E+02 -0.32039312576E+02  0.14487004152E+03  0.12509000000E+03 0.  0.
         25    1    4    4    0    0 -0.13063456841E+01  0.33819068104E+01  0.22006676530E+02  0.12706276301E+03  0.12509000000E+03 0.  0.
<mgrwt>
<rscale>  2 0.44154731E+03</rscale>
<asrwt>0</asrwt>
<pdfrwt beam="1">  1       21 0.23960404E-01 0.44154731E+03</pdfrwt>
<pdfrwt beam="2">  1       21 0.43992894E-01 0.44154731E+03</pdfrwt>
<totfact> 0.75802204E+04</totfact>
</mgrwt>
</event>
<event>
 7    0  0.4784406E-002  0.4568411E+03  0.7546771E-02  0.1025701E+00
         21   -1    0    0  502  501  0.00000000000E+00  0.00000000000E+00  0.13812288485E+03  0.13812288485E+03  0.00000000000E+00 0.  1.
         21   -1    0    0  501  502 -0.00000000000E+00 -0.00000000000E+00 -0.37775027791E+03  0.37775027791E+03  0.00000000000E+00 0.  1.
      99926    2    1    2    0    0  0.88817841970E-15  0.00000000000E+00 -0.23962739306E+03  0.51587316276E+03  0.45684114586E+03 0.  0.
      99925    2    3    3    0    0 -0.65273697287E+01  0.52032421348E+02 -0.34961379047E+02  0.27034177002E+03  0.26289236423E+03 0.  0.
         25    1    3    3    0    0  0.65273697287E+01 -0.52032421348E+02 -0.20466601402E+03  0.24553139274E+03  0.12509000000E+03 0.  0.
         25    1    4    4    0    0  0.84110084983E+01  0.28410182227E+02 -0.56413251018E+02  0.14038463772E+03  0.12509000000E+03 0.  0.
         25    1    4    4    0    0 -0.14938378227E+02  0.23622239121E+02  0.21451871971E+02  0.12995713230E+03  0.12509000000E+03 0.  0.
<mgrwt>
<rscale>  2 0.45684115E+03</rscale>
<asrwt>0</asrwt>
<pdfrwt beam="1">  1       21 0.20312189E-01 0.45684115E+03</pdfrwt>
<pdfrwt beam="2">  1       21 0.55551511E-01 0.45684115E+03</pdfrwt>
<totfact> 0.63240320E+04</totfact>
</mgrwt>
</event>
<event>
 7    0  0.4784406E-002  0.4393659E+03  0.7546771E-02  0.1030942E+00
         21   -1    0    0  502  501  0.00000000000E+00  0.00000000000E+00  0.16953526622E+03  0.16953526622E+03  0.00000000000E+00 0. -1.
         21   -1    0    0  501  502 -0.00000000000E+00 -0.00000000000E+00 -0.28466412020E+03  0.28466412020E+03  0.00000000000E+00 0. -1.
      99926    2    1    2    0    0  0.00000000000E+00  0.00000000000E+00 -0.11512885398E+03  0.45419938642E+03  0.43936594042E+03 0.  0.
      99925    2    3    3    0    0  0.65615441815E+02 -0.70236397536E+02 -0.92758482323E+02  0.29486803554E+03  0.26287731853E+03 0.  0.
         25    1    4    4    0    0  0.58946239609E+02 -0.38825369836E+02 -0.81722004440E+02  0.16525151321E+03  0.12509000000E+03 0.  0.
         25    1    3    3    0    0 -0.65615441815E+02  0.70236397536E+02 -0.22370371661E+02  0.15933135088E+03  0.12509000000E+03 0.  0.
         25    1    4    4    0    0  0.66692022061E+01 -0.31411027700E+02 -0.11036477883E+02  0.12961652234E+03  0.12509000000E+03 0.  0.
<mgrwt>
<rscale>  2 0.43936594E+03</rscale>
<asrwt>0</asrwt>
<pdfrwt beam="1">  1       21 0.24931657E-01 0.43936594E+03</pdfrwt>
<pdfrwt beam="2">  1       21 0.41862370E-01 0.43936594E+03</pdfrwt>
<totfact> 0.77844107E+04</totfact>
</mgrwt>
</event>
<event>
 7    0  0.4784406E-002  0.4506572E+03  0.7546771E-02  0.1027526E+00
         21   -1    0    0  502  501  0.00000000000E+00  0.00000000000E+00  0.27784734139E+03  0.27784734139E+03  0.00000000000E+00 0.  1.
         21   -1    0    0  501  502 -0.00000000000E+00 -0.00000000000E+00 -0.18273692417E+03  0.18273692417E+03  0.00000000000E+00 0.  1.
      99926    2    1    2    0    0  0.00000000000E+00  0.21094237468E-14  0.95110417220E+02  0.46058426557E+03  0.45065715819E+03 0.  0.
      99925    2    3    3    0    0  0.44654338896E+02  0.75750092617E+00 -0.41589466686E+02  0.26998271744E+03  0.26299505734E+03 0.  0.
         25    1    3    3    0    0 -0.44654338896E+02 -0.75750092617E+00  0.13669988391E+03  0.19060154813E+03  0.12509000000E+03 0.  0.
         25    1    4    4    0    0  0.10824683820E+02  0.22344602549E+02 -0.53029028065E+02  0.13811604165E+03  0.12509000000E+03 0.  0.
         25    1    4    4    0    0  0.33829655076E+02 -0.21587101622E+02  0.11439561379E+02  0.13186667579E+03  0.12509000000E+03 0.  0.
<mgrwt>
<rscale>  2 0.45065716E+03</rscale>
<asrwt>0</asrwt>
<pdfrwt beam="1">  1       21 0.40859903E-01 0.45065716E+03</pdfrwt>
<pdfrwt beam="2">  1       21 0.26873077E-01 0.45065716E+03</pdfrwt>
<totfact> 0.70541960E+04</totfact>
</mgrwt>
</event>
<event>
 7    0  0.4784406E-002  0.4503767E+03  0.7546771E-02  0.1027610E+00
         21   -1    0    0  502  501  0.00000000000E+00  0.00000000000E+00  0.67320008846E+03  0.67320008846E+03  0.00000000000E+00 0. -1.
         21   -1    0    0  501  502 -0.00000000000E+00 -0.00000000000E+00 -0.75326468743E+02  0.75326468743E+02  0.00000000000E+00 0. -1.
      99926    2    1    2    0    0 -0.35527136788E-14 -0.44408920985E-15  0.59787361972E+03  0.74852655721E+03  0.45037666645E+03 0.  0.
      99925    2    3    3    0    0 -0.64374070605E+01  0.30982144993E+01  0.55810057659E+03  0.61707146144E+03  0.26315374934E+03 0.  0.
         25    1    4    4    0    0 -0.24393631592E+02 -0.76004225991E+01  0.35882194191E+03  0.38085891060E+03  0.12509000000E+03 0.  0.
         25    1    3    3    0    0  0.64374070605E+01 -0.30982144993E+01  0.39773043126E+02  0.13145509576E+03  0.12509000000E+03 0.  0.
         25    1    4    4    0    0  0.17956224531E+02  0.10698637098E+02  0.19927863468E+03  0.23621255084E+03  0.12509000000E+03 0.  0.
<mgrwt>
<rscale>  2 0.45037667E+03</rscale>
<asrwt>0</asrwt>
<pdfrwt beam="1">  1       21 0.99000010E-01 0.45037667E+03</pdfrwt>
<pdfrwt beam="2">  1       21 0.11077422E-01 0.45037667E+03</pdfrwt>
<totfact> 0.52217992E+04</totfact>
</mgrwt>
</event>
<event>
 7    0  0.4784406E-002  0.4272111E+03  0.7546771E-02  0.1034745E+00
         21   -1    0    0  502  501  0.00000000000E+00  0.00000000000E+00  0.24458014770E+03  0.24458014770E+03  0.00000000000E+00 0. -1.
         21   -1    0    0  501  502 -0.00000000000E+00 -0.00000000000E+00 -0.18655373234E+03  0.18655373234E+03  0.00000000000E+00 0. -1.
      99926    2    1    2    0    0  0.00000000000E+00 -0.71054273576E-14  0.58026415356E+02  0.43113388004E+03  0.42721113941E+03 0.  0.
      99925    2    3    3    0    0 -0.53518796719E+02 -0.38026959688E+02 -0.15839723947E+02  0.27171610844E+03  0.26318897292E+03 0.  0.
         25    1    4    4    0    0 -0.24505452484E+02  0.78553301485E+01 -0.38715817832E+02  0.13344903920E+03  0.12509000000E+03 0.  0.
         25    1    3    3    0    0  0.53518796719E+02  0.38026959688E+02  0.73866139303E+02  0.15941777160E+03  0.12509000000E+03 0.  0.
         25    1    4    4    0    0 -0.29013344234E+02 -0.45882289836E+02  0.22876093885E+02  0.13826706924E+03  0.12509000000E+03 0.  0.
<mgrwt>
<rscale>  2 0.42721114E+03</rscale>
<asrwt>0</asrwt>
<pdfrwt beam="1">  1       21 0.35967669E-01 0.42721114E+03</pdfrwt>
<pdfrwt beam="2">  1       21 0.27434372E-01 0.42721114E+03</pdfrwt>
<totfact> 0.88353241E+04</totfact>
</mgrwt>
</event>
<event>
 7    0  0.4784406E-002  0.4517352E+03  0.7546771E-02  0.1027206E+00
         21   -1    0    0  502  501  0.00000000000E+00  0.00000000000E+00  0.12923695188E+03  0.12923695188E+03  0.00000000000E+00 0. -1.
         21   -1    0    0  501  502 -0.00000000000E+00 -0.00000000000E+00 -0.39474918708E+03  0.39474918708E+03  0.00000000000E+00 0. -1.
      99926    2    1    2    0    0  0.00000000000E+00  0.00000000000E+00 -0.26551223520E+03  0.52398613897E+03  0.45173523970E+03 0.  0.
      99925    2    3    3    0    0  0.82756647303E+02 -0.48446321331E+02 -0.10437799143E+03  0.29858103401E+03  0.26279299848E+03 0.  0.
         25    1    3    3    0    0 -0.82756647303E+02  0.48446321331E+02 -0.16113424378E+03  0.22540510496E+03  0.12509000000E+03 0.  0.
         25    1    4    4    0    0  0.73398070095E+02 -0.11596139547E+02 -0.31379688697E+02  0.14884199713E+03  0.12509000000E+03 0.  0.
         25    1    4    4    0    0  0.93585772077E+01 -0.36850181784E+02 -0.72998302729E+02  0.14973903688E+03  0.12509000000E+03 0.  0.
<mgrwt>
<rscale>  2 0.45173524E+03</rscale>
<asrwt>0</asrwt>
<pdfrwt beam="1">  1       21 0.19005435E-01 0.45173524E+03</pdfrwt>
<pdfrwt beam="2">  1       21 0.58051350E-01 0.45173524E+03</pdfrwt>
<totfact> 0.65288836E+04</totfact>
</mgrwt>
</event>
<event>
 7    0  0.4784406E-002  0.4476127E+03  0.7546771E-02  0.1028436E+00
         21   -1    0    0  502  501  0.00000000000E+00  0.00000000000E+00  0.15015688635E+03  0.15015688635E+03  0.00000000000E+00 0. -1.
         21   -1    0    0  501  502 -0.00000000000E+00 -0.00000000000E+00 -0.33357961455E+03  0.33357961455E+03  0.00000000000E+00 0. -1.
      99926    2    1    2    0    0  0.00000000000E+00  0.00000000000E+00 -0.18342272820E+03  0.48373650089E+03  0.44761267305E+03 0.  0.
      99925    2    3    3    0    0 -0.71450395695E+02  0.77743384098E+02 -0.12685666085E+03  0.31054175244E+03  0.26304823663E+03 0.  0.
         25    1    3    3    0    0  0.71450395695E+02 -0.77743384098E+02 -0.56566067354E+02  0.17319474845E+03  0.12509000000E+03 0.  0.
         25    1    4    4    0    0 -0.57881462084E+02  0.41044966870E+02 -0.28342880347E+02  0.14658028491E+03  0.12509000000E+03 0.  0.
         25    1    4    4    0    0 -0.13568933611E+02  0.36698417228E+02 -0.98513780498E+02  0.16396146753E+03  0.12509000000E+03 0.  0.
<mgrwt>
<rscale>  2 0.44761267E+03</rscale>
<asrwt>0</asrwt>
<pdfrwt beam="1">  1       21 0.22081895E-01 0.44761267E+03</pdfrwt>
<pdfrwt beam="2">  1       21 0.49055825E-01 0.44761267E+03</pdfrwt>
<totfact> 0.70472142E+04</totfact>
</mgrwt>
</event>
<event>
 7    0  0.4784406E-002  0.4514393E+03  0.7546771E-02  0.1027294E+00
         21   -1    0    0  502  501  0.00000000000E+00  0.00000000000E+00  0.30278564944E+03  0.30278564944E+03  0.00000000000E+00 0. -1.
         21   -1    0    0  501  502 -0.00000000000E+00 -0.00000000000E+00 -0.16826877117E+03  0.16826877117E+03  0.00000000000E+00 0. -1.
      99926    2    1    2    0    0  0.00000000000E+00 -0.71054273576E-14  0.13451687827E+03  0.47105442062E+03  0.45143933883E+03 0.  0.
      99925    2    3    3    0    0 -0.75891346421E+02  0.62987512450E+02  0.34253016307E+02  0.28283307937E+03  0.26285805765E+03 0.  0.
         25    1    4    4    0    0 -0.66032473052E+02  0.64024956221E+02  0.19767507673E+02  0.15651755485E+03  0.12509000000E+03 0.  0.
         25    1    4    4    0    0 -0.98588733692E+01 -0.10374437710E+01  0.14485508634E+02  0.12631552452E+03  0.12509000000E+03 0.  0.
         25    1    3    3    0    0  0.75891346421E+02 -0.62987512450E+02  0.10026386196E+03  0.18822134125E+03  0.12509000000E+03 0.  0.
<mgrwt>
<rscale>  2 0.45143934E+03</rscale>
<asrwt>0</asrwt>
<pdfrwt beam="1">  1       21 0.44527301E-01 0.45143934E+03</pdfrwt>
<pdfrwt beam="2">  1       21 0.24745407E-01 0.45143934E+03</pdfrwt>
<totfact> 0.69294547E+04</totfact>
</mgrwt>
</event>
<event>
 7    0  0.4784406E-002  0.4349412E+03  0.7546771E-02  0.1032310E+00
         21   -1    0    0  502  501  0.00000000000E+00  0.00000000000E+00  0.16199276500E+04  0.16199276500E+04  0.00000000000E+00 0. -1.
         21   -1    0    0  501  502 -0.00000000000E+00 -0.00000000000E+00 -0.29194792952E+02  0.29194792952E+02  0.00000000000E+00 0. -1.
      99926    2    1    2    0    0  0.00000000000E+00  0.00000000000E+00  0.15907328571E+04  0.16491224430E+04  0.43494115620E+03 0.  0.
      99925    2    3    3    0    0 -0.67344376172E+01  0.44058946812E+02  0.71044435100E+03  0.75887421609E+03  0.26300638118E+03 0.  0.
         25    1    3    3    0    0  0.67344376172E+01 -0.44058946812E+02  0.88028850608E+03  0.89024822689E+03  0.12509000000E+03 0.  0.
         25    1    4    4    0    0 -0.37642832507E+01  0.61717648047E+02  0.40299772235E+03  0.42647146473E+03  0.12509000000E+03 0.  0.
         25    1    4    4    0    0 -0.29701543665E+01 -0.17658701235E+02  0.30744662865E+03  0.33240275136E+03  0.12509000000E+03 0.  0.
<mgrwt>
<rscale>  2 0.43494116E+03</rscale>
<asrwt>0</asrwt>
<pdfrwt beam="1">  1       21 0.23822459E+00 0.43494116E+03</pdfrwt>
<pdfrwt beam="2">  1       21 0.42933530E-02 0.43494116E+03</pdfrwt>
<totfact> 0.23845496E+04</totfact>
</mgrwt>
</event>
<event>
 7    0  0.4784406E-002  0.4471843E+03  0.7546771E-02  0.1028565E+00
         21   -1    0    0  502  501  0.00000000000E+00  0.00000000000E+00  0.69161927426E+03  0.69161927426E+03  0.00000000000E+00 0. -1.
         21   -1    0    0  501  502 -0.00000000000E+00 -0.00000000000E+00 -0.72284641469E+02  0.72284641469E+02  0.00000000000E+00 0. -1.
      99926    2    1    2    0    0  0.00000000000E+00 -0.71054273576E-14  0.61933463279E+03  0.76390391573E+03  0.44718430774E+03 0.  0.
      99925    2    3    3    0    0  0.50556921248E+02 -0.56979499799E+02  0.26689024106E+03  0.38224015921E+03  0.26282022915E+03 0.  0.
         25    1    3    3    0    0 -0.50556921248E+02  0.56979499799E+02  0.35244439173E+03  0.38166375652E+03  0.12509000000E+03 0.  0.
         25    1    4    4    0    0  0.58676331944E+02 -0.12910596896E+02  0.11328060643E+03  0.17913570090E+03  0.12509000000E+03 0.  0.
         25    1    4    4    0    0 -0.81194106957E+01 -0.44068902903E+02  0.15360963463E+03  0.20310445831E+03  0.12509000000E+03 0.  0.
<mgrwt>
<rscale>  2 0.44718431E+03</rscale>
<asrwt>0</asrwt>
<pdfrwt beam="1">  1       21 0.10170871E+00 0.44718431E+03</pdfrwt>
<pdfrwt beam="2">  1       21 0.10630095E-01 0.44718431E+03</pdfrwt>
<totfact> 0.52721378E+04</totfact>
</mgrwt>
</event>
<event>
 7    0  0.4784406E-002  0.4455909E+03  0.7546771E-02  0.1029045E+00
         21   -1    0    0  502  501  0.00000000000E+00  0.00000000000E+00  0.14822490370E+03  0.14822490370E+03  0.00000000000E+00 0. -1.
         21   -1    0    0  501  502 -0.00000000000E+00 -0.00000000000E+00 -0.33488166521E+03  0.33488166521E+03  0.00000000000E+00 0. -1.
      99926    2    1    2    0    0  0.28421709430E-13  0.35527136788E-14 -0.18665676151E+03  0.48310656891E+03  0.44559085528E+03 0.  0.
      99925    2    3    3    0    0 -0.91051316189E+02 -0.30088713459E+02 -0.74727137428E+02  0.28978967440E+03  0.26305557865E+03 0.  0.
         25    1    3    3    0    0  0.91051316189E+02  0.30088713459E+02 -0.11192962408E+03  0.19331689451E+03  0.12509000000E+03 0.  0.
         25    1    4    4    0    0 -0.61618506402E+01 -0.27330594305E+02 -0.43751209641E+02  0.13544964464E+03  0.12509000000E+03 0.  0.
         25    1    4    4    0    0 -0.84889465549E+02 -0.27581191536E+01 -0.30975927787E+02  0.15434002975E+03  0.12509000000E+03 0.  0.
<mgrwt>
<rscale>  2 0.44559086E+03</rscale>
<asrwt>0</asrwt>
<pdfrwt beam="1">  1       21 0.21797780E-01 0.44559086E+03</pdfrwt>
<pdfrwt beam="2">  1       21 0.49247303E-01 0.44559086E+03</pdfrwt>
<totfact> 0.71681127E+04</totfact>
</mgrwt>
</event>
<event>
 7    0  0.4784406E-002  0.4553850E+03  0.7546771E-02  0.1026128E+00
         21   -1    0    0  502  501  0.00000000000E+00  0.00000000000E+00  0.10403635949E+03  0.10403635949E+03  0.00000000000E+00 0.  1.
         21   -1    0    0  501  502 -0.00000000000E+00 -0.00000000000E+00 -0.49832468016E+03  0.49832468016E+03  0.00000000000E+00 0.  1.
      99926    2    1    2    0    0  0.71054273576E-14  0.00000000000E+00 -0.39428832067E+03  0.60236103964E+03  0.45538504835E+03 0.  0.
      99925    2    3    3    0    0  0.59266800593E+02 -0.78675610058E+02 -0.17345419580E+03  0.33011551796E+03  0.26303515332E+03 0.  0.
         25    1    4    4    0    0 -0.76373907493E+01 -0.35249607880E+02 -0.59984207587E+02  0.14334042644E+03  0.12509000000E+03 0.  0.
         25    1    3    3    0    0 -0.59266800593E+02  0.78675610058E+02 -0.22083412487E+03  0.27224552169E+03  0.12509000000E+03 0.  0.
         25    1    4    4    0    0  0.66904191343E+02 -0.43426002178E+02 -0.11346998821E+03  0.18677509151E+03  0.12509000000E+03 0.  0.
<mgrwt>
<rscale>  2 0.45538505E+03</rscale>
<asrwt>0</asrwt>
<pdfrwt beam="1">  1       21 0.15299464E-01 0.45538505E+03</pdfrwt>
<pdfrwt beam="2">  1       21 0.73283042E-01 0.45538505E+03</pdfrwt>
<totfact> 0.58355445E+04</totfact>
</mgrwt>
</event>
<event>
 7    0  0.4784406E-002  0.4571204E+03  0.7546771E-02  0.1025620E+00
         21   -1    0    0  502  501  0.00000000000E+00  0.00000000000E+00  0.75681889684E+03  0.75681889684E+03  0.00000000000E+00 0. -1.
         21   -1    0    0  501  502 -0.00000000000E+00 -0.00000000000E+00 -0.69025450557E+02  0.69025450557E+02  0.00000000000E+00 0. -1.
      99926    2    1    2    0    0  0.00000000000E+00  0.71054273576E-14  0.68779344629E+03  0.82584434740E+03  0.45712040140E+03 0.  0.
      99925    2    3    3    0    0  0.83807539800E+02 -0.61627268811E+02  0.52084251836E+03  0.59273118942E+03  0.26311919350E+03 0.  0.
         25    1    3    3    0    0 -0.83807539800E+02  0.61627268811E+02  0.16695092792E+03  0.23311315798E+03  0.12509000000E+03 0.  0.
         25    1    4    4    0    0  0.28507818416E+01 -0.42530711493E+02  0.22517257720E+03  0.26108846394E+03  0.12509000000E+03 0.  0.
         25    1    4    4    0    0  0.80956757959E+02 -0.19096557318E+02  0.29566994116E+03  0.33164272548E+03  0.12509000000E+03 0.  0.
<mgrwt>
<rscale>  2 0.45712040E+03</rscale>
<asrwt>0</asrwt>
<pdfrwt beam="1">  1       21 0.11129689E+00 0.45712040E+03</pdfrwt>
<pdfrwt beam="2">  1       21 0.10150802E-01 0.45712040E+03</pdfrwt>
<totfact> 0.45773706E+04</totfact>
</mgrwt>
</event>
<event>
 7    0  0.4784406E-002  0.4564034E+03  0.7546771E-02  0.1025830E+00
         21   -1    0    0  502  501  0.00000000000E+00  0.00000000000E+00  0.50730638546E+02  0.50730638546E+02  0.00000000000E+00 0.  1.
         21   -1    0    0  501  502 -0.00000000000E+00 -0.00000000000E+00 -0.10265201848E+04  0.10265201848E+04  0.00000000000E+00 0.  1.
      99926    2    1    2    0    0 -0.71054273576E-14  0.00000000000E+00 -0.97578954627E+03  0.10772508234E+04  0.45640343757E+03 0.  0.
      99925    2    3    3    0    0 -0.56734580780E+02 -0.96192157294E+02 -0.55374481511E+03  0.62311317134E+03  0.26299231977E+03 0.  0.
         25    1    3    3    0    0  0.56734580780E+02  0.96192157294E+02 -0.42204473116E+03  0.45413765202E+03  0.12509000000E+03 0.  0.
         25    1    4    4    0    0 -0.23747632676E+02 -0.88612134600E+02 -0.32758336659E+03  0.36245610855E+03  0.12509000000E+03 0.  0.
         25    1    4    4    0    0 -0.32986948103E+02 -0.75800226941E+01 -0.22616144851E+03  0.26065706279E+03  0.12509000000E+03 0.  0.
<mgrwt>
<rscale>  2 0.45640344E+03</rscale>
<asrwt>0</asrwt>
<pdfrwt beam="1">  1       21 0.74603883E-02 0.45640344E+03</pdfrwt>
<pdfrwt beam="2">  1       21 0.15095884E+00 0.45640344E+03</pdfrwt>
<totfact> 0.35898353E+04</totfact>
</mgrwt>
</event>
<event>
 7    0  0.4784406E-002  0.4601417E+03  0.7546771E-02  0.1024740E+00
         21   -1    0    0  502  501  0.00000000000E+00  0.00000000000E+00  0.10616425499E+03  0.10616425499E+03  0.00000000000E+00 0. -1.
         21   -1    0    0  501  502 -0.00000000000E+00 -0.00000000000E+00 -0.49859145572E+03  0.49859145572E+03  0.00000000000E+00 0. -1.
      99926    2    1    2    0    0  0.00000000000E+00  0.00000000000E+00 -0.39242720074E+03  0.60475571071E+03  0.46014167574E+03 0.  0.
      99925    2    3    3    0    0  0.50002830232E+01  0.11775030421E+03 -0.24495614628E+03  0.37829300523E+03  0.26308163606E+03 0.  0.
         25    1    4    4    0    0  0.24437472903E+02  0.40659856775E+02 -0.15567784722E+03  0.20526449827E+03  0.12509000000E+03 0.  0.
         25    1    3    3    0    0 -0.50002830232E+01 -0.11775030421E+03 -0.14747105446E+03  0.22646270548E+03  0.12509000000E+03 0.  0.
         25    1    4    4    0    0 -0.19437189880E+02  0.77090447436E+02 -0.89278299065E+02  0.17302850696E+03  0.12509000000E+03 0.  0.
<mgrwt>
<rscale>  2 0.46014168E+03</rscale>
<asrwt>0</asrwt>
<pdfrwt beam="1">  1       21 0.15612391E-01 0.46014168E+03</pdfrwt>
<pdfrwt beam="2">  1       21 0.73322272E-01 0.46014168E+03</pdfrwt>
<totfact> 0.56073762E+04</totfact>
</mgrwt>
</event>
<event>
 7    0  0.4784406E-002  0.4534971E+03  0.7546771E-02  0.1026684E+00
         21   -1    0    0  502  501  0.00000000000E+00  0.00000000000E+00  0.14465798603E+04  0.14465798603E+04  0.00000000000E+00 0.  1.
         21   -1    0    0  501  502 -0.00000000000E+00 -0.00000000000E+00 -0.35542384969E+02  0.35542384969E+02  0.00000000000E+00 0.  1.
      99926    2    1    2    0    0  0.00000000000E+00 -0.35527136788E-14  0.14110374753E+04  0.14821222452E+04  0.45349707069E+03 0.  0.
      99925    2    3    3    0    0 -0.12631686400E+02  0.26906993059E+02  0.12411676439E+04  0.12690804336E+04  0.26302942979E+03 0.  0.
         25    1    4    4    0    0 -0.26620781970E+02  0.93878273909E+01  0.79065550335E+03  0.80098715996E+03  0.12509000000E+03 0.  0.
         25    1    4    4    0    0  0.13989095570E+02  0.17519165668E+02  0.45051214058E+03  0.46809327369E+03  0.12509000000E+03 0.  0.
         25    1    3    3    0    0  0.12631686400E+02 -0.26906993059E+02  0.16986983135E+03  0.21304181158E+03  0.12509000000E+03 0.  0.
<mgrwt>
<rscale>  2 0.45349707E+03</rscale>
<asrwt>0</asrwt>
<pdfrwt beam="1">  1       21 0.21273229E+00 0.45349707E+03</pdfrwt>
<pdfrwt beam="2">  1       21 0.52268223E-02 0.45349707E+03</pdfrwt>
<totfact> 0.24505549E+04</totfact>
</mgrwt>
</event>
<event>
 7    0  0.4784406E-002  0.4716324E+03  0.7546771E-02  0.1021460E+00
         21   -1    0    0  502  501  0.00000000000E+00  0.00000000000E+00  0.17315208335E+03  0.17315208335E+03  0.00000000000E+00 0.  1.
         21   -1    0    0  501  502 -0.00000000000E+00 -0.00000000000E+00 -0.32115863342E+03  0.32115863342E+03  0.00000000000E+00 0.  1.
      99926    2    1    2    0    0 -0.17763568394E-14  0.14210854715E-13 -0.14800655007E+03  0.49431071677E+03  0.47163242663E+03 0.  0.
      99925    2    3    3    0    0 -0.95481494710E+01 -0.74664486053E+02 -0.20050642047E+03  0.33916659949E+03  0.26299278494E+03 0.  0.
         25    1    3    3    0    0  0.95481494710E+01  0.74664486053E+02  0.52499870391E+02  0.15514411728E+03  0.12509000000E+03 0.  0.
         25    1    4    4    0    0  0.11807976666E+02 -0.47951823091E+02 -0.14598915848E+03  0.19849218661E+03  0.12509000000E+03 0.  0.
         25    1    4    4    0    0 -0.21356126137E+02 -0.26712662962E+02 -0.54517261984E+02  0.14067441288E+03  0.12509000000E+03 0.  0.
<mgrwt>
<rscale>  2 0.47163243E+03</rscale>
<asrwt>0</asrwt>
<pdfrwt beam="1">  1       21 0.25463542E-01 0.47163243E+03</pdfrwt>
<pdfrwt beam="2">  1       21 0.47229211E-01 0.47163243E+03</pdfrwt>
<totfact> 0.57673157E+04</totfact>
</mgrwt>
</event>
<event>
 7    0  0.4784406E-002  0.4492908E+03  0.7546771E-02  0.1027934E+00
         21   -1    0    0  502  501  0.00000000000E+00  0.00000000000E+00  0.51390913020E+03  0.51390913020E+03  0.00000000000E+00 0.  1.
         21   -1    0    0  501  502 -0.00000000000E+00 -0.00000000000E+00 -0.98199373314E+02  0.98199373314E+02  0.00000000000E+00 0.  1.
      99926    2    1    2    0    0 -0.35527136788E-14  0.00000000000E+00  0.41570975688E+03  0.61210850351E+03  0.44929079459E+03 0.  0.
      99925    2    3    3    0    0 -0.21050766033E+02  0.79903346380E+02  0.16752067147E+03  0.32215504219E+03  0.26247479179E+03 0.  0.
         25    1    4    4    0    0 -0.48477757251E+02  0.30780548614E+02  0.75520428345E+02  0.15699802011E+03  0.12509000000E+03 0.  0.
         25    1    3    3    0    0  0.21050766033E+02 -0.79903346380E+02  0.24818908541E+03  0.28995346132E+03  0.12509000000E+03 0.  0.
         25    1    4    4    0    0  0.27426991218E+02  0.49122797766E+02  0.92000243128E+02  0.16515702208E+03  0.12509000000E+03 0.  0.
<mgrwt>
<rscale>  2 0.44929079E+03</rscale>
<asrwt>0</asrwt>
<pdfrwt beam="1">  1       21 0.75574871E-01 0.44929079E+03</pdfrwt>
<pdfrwt beam="2">  1       21 0.14441085E-01 0.44929079E+03</pdfrwt>
<totfact> 0.60626988E+04</totfact>
</mgrwt>
</event>
<event>
 7    0  0.4784406E-002  0.4219152E+03  0.7546771E-02  0.1036445E+00
         21   -1    0    0  502  501  0.00000000000E+00  0.00000000000E+00  0.41446296426E+03  0.41446296426E+03  0.00000000000E+00 0. -1.
         21   -1    0    0  501  502 -0.00000000000E+00 -0.00000000000E+00 -0.10737536652E+03  0.10737536652E+03  0.00000000000E+00 0. -1.
      99926    2    1    2    0    0  0.00000000000E+00  0.00000000000E+00  0.30708759775E+03  0.52183833078E+03  0.42191521753E+03 0.  0.
      99925    2    3    3    0    0 -0.48975697978E+02 -0.43486046936E+02  0.25231151209E+03  0.37038674469E+03  0.26312655935E+03 0.  0.
         25    1    4    4    0    0  0.14824922669E+02 -0.33536497002E+02  0.11859550741E+03  0.17622961567E+03  0.12509000000E+03 0.  0.
         25    1    3    3    0    0  0.48975697978E+02  0.43486046936E+02  0.54776085657E+02  0.15145158609E+03  0.12509000000E+03 0.  0.
         25    1    4    4    0    0 -0.63800620647E+02 -0.99495499341E+01  0.13371600468E+03  0.19415712901E+03  0.12509000000E+03 0.  0.
<mgrwt>
<rscale>  2 0.42191522E+03</rscale>
<asrwt>0</asrwt>
<pdfrwt beam="1">  1       21 0.60950435E-01 0.42191522E+03</pdfrwt>
<pdfrwt beam="2">  1       21 0.15790495E-01 0.42191522E+03</pdfrwt>
<totfact> 0.83608701E+04</totfact>
</mgrwt>
</event>
<event>
 7    0  0.4784406E-002  0.4436303E+03  0.7546771E-02  0.1029639E+00
         21   -1    0    0  502  501  0.00000000000E+00  0.00000000000E+00  0.29355921645E+02  0.29355921645E+02  0.00000000000E+00 0. -1.
         21   -1    0    0  501  502 -0.00000000000E+00 -0.00000000000E+00 -0.16760486111E+04  0.16760486111E+04  0.00000000000E+00 0. -1.
      99926    2    1    2    0    0  0.14210854715E-13 -0.13322676296E-14 -0.16466926895E+04  0.17054045328E+04  0.44363025912E+03 0.  0.
      99925    2    3    3    0    0 -0.91526152751E+02 -0.37372074421E+01 -0.12210533648E+04  0.12524063582E+04  0.26298167805E+03 0.  0.
         25    1    4    4    0    0 -0.66655679038E+02  0.28118345432E+02 -0.55492595026E+03  0.57343172154E+03  0.12509000000E+03 0.  0.
         25    1    4    4    0    0 -0.24870473713E+02 -0.31855552874E+02 -0.66612741457E+03  0.67897463667E+03  0.12509000000E+03 0.  0.
         25    1    3    3    0    0  0.91526152751E+02  0.37372074421E+01 -0.42563932465E+03  0.45299817455E+03  0.12509000000E+03 0.  0.
<mgrwt>
<rscale>  2 0.44363026E+03</rscale>
<asrwt>0</asrwt>
<pdfrwt beam="1">  1       21 0.43170455E-02 0.44363026E+03</pdfrwt>
<pdfrwt beam="2">  1       21 0.24647784E+00 0.44363026E+03</pdfrwt>
<totfact> 0.20937736E+04</totfact>
</mgrwt>
</event>
<event>
 7    0  0.4784406E-002  0.4530881E+03  0.7546771E-02  0.1026805E+00
         21   -1    0    0  502  501  0.00000000000E+00  0.00000000000E+00  0.47895107291E+03  0.47895107291E+03  0.00000000000E+00 0.  1.
         21   -1    0    0  501  502 -0.00000000000E+00 -0.00000000000E+00 -0.10715544236E+03  0.10715544236E+03  0.00000000000E+00 0.  1.
      99926    2    1    2    0    0 -0.35527136788E-14  0.00000000000E+00  0.37179563055E+03  0.58610651527E+03  0.45308813309E+03 0.  0.
      99925    2    3    3    0    0 -0.21329116336E+02 -0.10210337068E+03  0.18358817187E+03  0.33720977944E+03  0.26291783695E+03 0.  0.
         25    1    4    4    0    0 -0.41445799908E+02 -0.57451195797E+02  0.64011716502E+02  0.15736391638E+03  0.12509000000E+03 0.  0.
         25    1    3    3    0    0  0.21329116336E+02  0.10210337068E+03  0.18820745868E+03  0.24889673584E+03  0.12509000000E+03 0.  0.
         25    1    4    4    0    0  0.20116683571E+02 -0.44652174886E+02  0.11957645537E+03  0.17984586306E+03  0.12509000000E+03 0.  0.
<mgrwt>
<rscale>  2 0.45308813E+03</rscale>
<asrwt>0</asrwt>
<pdfrwt beam="1">  1       21 0.70433981E-01 0.45308813E+03</pdfrwt>
<pdfrwt beam="2">  1       21 0.15758153E-01 0.45308813E+03</pdfrwt>
<totfact> 0.60450056E+04</totfact>
</mgrwt>
</event>
<event>
 7    0  0.4784406E-002  0.4443642E+03  0.7546771E-02  0.1029416E+00
         21   -1    0    0  502  501  0.00000000000E+00  0.00000000000E+00  0.58506455664E+02  0.58506455664E+02  0.00000000000E+00 0. -1.
         21   -1    0    0  501  502 -0.00000000000E+00 -0.00000000000E+00 -0.84375122670E+03  0.84375122670E+03  0.00000000000E+00 0. -1.
      99926    2    1    2    0    0  0.00000000000E+00  0.00000000000E+00 -0.78524477104E+03  0.90225768237E+03  0.44436423680E+03 0.  0.
      99925    2    3    3    0    0 -0.42737773983E+02 -0.12286891754E+02 -0.68777707339E+03  0.73756115776E+03  0.26264362493E+03 0.  0.
         25    1    4    4    0    0 -0.52464453190E+02  0.38864605826E+01 -0.42056050925E+03  0.44191206531E+03  0.12509000000E+03 0.  0.
         25    1    4    4    0    0  0.97266792072E+01 -0.16173352337E+02 -0.26721656414E+03  0.29564909244E+03  0.12509000000E+03 0.  0.
         25    1    3    3    0    0  0.42737773983E+02  0.12286891754E+02 -0.97467697649E+02  0.16469652461E+03  0.12509000000E+03 0.  0.
<mgrwt>
<rscale>  2 0.44436424E+03</rscale>
<asrwt>0</asrwt>
<pdfrwt beam="1">  1       21 0.86038911E-02 0.44436424E+03</pdfrwt>
<pdfrwt beam="2">  1       21 0.12408105E+00 0.44436424E+03</pdfrwt>
<totfact> 0.46921495E+04</totfact>
</mgrwt>
</event>
<event>
 7    0  0.4784406E-002  0.4547334E+03  0.7546771E-02  0.1026320E+00
         21   -1    0    0  502  501  0.00000000000E+00  0.00000000000E+00  0.23554804894E+03  0.23554804894E+03  0.00000000000E+00 0. -1.
         21   -1    0    0  501  502 -0.00000000000E+00 -0.00000000000E+00 -0.21946951489E+03  0.21946951489E+03  0.00000000000E+00 0. -1.
      99926    2    1    2    0    0  0.17763568394E-14  0.00000000000E+00  0.16078534047E+02  0.45501756384E+03  0.45473339897E+03 0.  0.
      99925    2    3    3    0    0 -0.15154722541E+02  0.97172682109E+02  0.65472073555E+02  0.28840596277E+03  0.26309544121E+03 0.  0.
         25    1    4    4    0    0 -0.36933565208E+02  0.77621484575E+02  0.45062742821E+02  0.15832669389E+03  0.12509000000E+03 0.  0.
         25    1    4    4    0    0  0.21778842668E+02  0.19551197534E+02  0.20409330734E+02  0.13007926889E+03  0.12509000000E+03 0.  0.
         25    1    3    3    0    0  0.15154722541E+02 -0.97172682109E+02 -0.49393539508E+02  0.16661160106E+03  0.12509000000E+03 0.  0.
<mgrwt>
<rscale>  2 0.45473340E+03</rscale>
<asrwt>0</asrwt>
<pdfrwt beam="1">  1       21 0.34639419E-01 0.45473340E+03</pdfrwt>
<pdfrwt beam="2">  1       21 0.32274929E-01 0.45473340E+03</pdfrwt>
<totfact> 0.68690522E+04</totfact>
</mgrwt>
</event>
<event>
 7    0  0.4784406E-002  0.4579417E+03  0.7546771E-02  0.1025380E+00
         21   -1    0    0  502  501  0.00000000000E+00  0.00000000000E+00  0.62281011222E+02  0.62281011222E+02  0.00000000000E+00 0. -1.
         21   -1    0    0  501  502 -0.00000000000E+00 -0.00000000000E+00 -0.84179206288E+03  0.84179206288E+03  0.00000000000E+00 0. -1.
      99926    2    1    2    0    0  0.14210854715E-13  0.00000000000E+00 -0.77951105166E+03  0.90407307410E+03  0.45794174701E+03 0.  0.
      99925    2    3    3    0    0 -0.11329934270E+03 -0.50247834045E+01 -0.44190770244E+03  0.52660053337E+03  0.26298995183E+03 0.  0.
         25    1    3    3    0    0  0.11329934270E+03  0.50247834045E+01 -0.33760334922E+03  0.37747254073E+03  0.12509000000E+03 0.  0.
         25    1    4    4    0    0 -0.15659109459E+02 -0.39788797423E+01 -0.16850604187E+03  0.21048238273E+03  0.12509000000E+03 0.  0.
         25    1    4    4    0    0 -0.97640233237E+02 -0.10459036621E+01 -0.27340166057E+03  0.31611815064E+03  0.12509000000E+03 0.  0.
<mgrwt>
<rscale>  2 0.45794175E+03</rscale>
<asrwt>0</asrwt>
<pdfrwt beam="1">  1       21 0.91589729E-02 0.45794175E+03</pdfrwt>
<pdfrwt beam="2">  1       21 0.12379294E+00 0.45794175E+03</pdfrwt>
<totfact> 0.42080502E+04</totfact>
</mgrwt>
</event>
<event>
 7    0  0.4784406E-002  0.4612656E+03  0.7546771E-02  0.1024415E+00
         21   -1    0    0  502  501  0.00000000000E+00  0.00000000000E+00  0.52212428786E+03  0.52212428786E+03  0.00000000000E+00 0.  1.
         21   -1    0    0  501  502 -0.00000000000E+00 -0.00000000000E+00 -0.10187515422E+03  0.10187515422E+03  0.00000000000E+00 0.  1.
      99926    2    1    2    0    0 -0.35527136788E-14  0.00000000000E+00  0.42024913364E+03  0.62399944207E+03  0.46126561695E+03 0.  0.
      99925    2    3    3    0    0  0.19373346302E+02 -0.38022554084E+02  0.41329798994E+03  0.49164813809E+03  0.26283382971E+03 0.  0.
         25    1    4    4    0    0  0.29897116788E+01 -0.58698042104E+02  0.22477467058E+03  0.26386655558E+03  0.12509000000E+03 0.  0.
         25    1    4    4    0    0  0.16383634623E+02  0.20675488020E+02  0.18852331936E+03  0.22778158251E+03  0.12509000000E+03 0.  0.
         25    1    3    3    0    0 -0.19373346302E+02  0.38022554084E+02  0.69511437014E+01  0.13235130398E+03  0.12509000000E+03 0.  0.
<mgrwt>
<rscale>  2 0.46126562E+03</rscale>
<asrwt>0</asrwt>
<pdfrwt beam="1">  1       21 0.76782982E-01 0.46126562E+03</pdfrwt>
<pdfrwt beam="2">  1       21 0.14981641E-01 0.46126562E+03</pdfrwt>
<totfact> 0.54479166E+04</totfact>
</mgrwt>
</event>
<event>
 7    0  0.4784406E-002  0.4541084E+03  0.7546771E-02  0.1026504E+00
         21   -1    0    0  502  501  0.00000000000E+00  0.00000000000E+00  0.12108196939E+03  0.12108196939E+03  0.00000000000E+00 0.  1.
         21   -1    0    0  501  502 -0.00000000000E+00 -0.00000000000E+00 -0.42577438354E+03  0.42577438354E+03  0.00000000000E+00 0.  1.
      99926    2    1    2    0    0  0.17763568394E-14  0.00000000000E+00 -0.30469241416E+03  0.54685635293E+03  0.45410836096E+03 0.  0.
      99925    2    3    3    0    0 -0.12150507457E+02  0.56280556942E+02 -0.30809976563E+03  0.40910928739E+03  0.26292547903E+03 0.  0.
         25    1    4    4    0    0  0.16744011150E+02  0.18399003300E+02 -0.10178759127E+03  0.16317814519E+03  0.12509000000E+03 0.  0.
         25    1    3    3    0    0  0.12150507457E+02 -0.56280556942E+02  0.34073514750E+01  0.13774706554E+03  0.12509000000E+03 0.  0.
         25    1    4    4    0    0 -0.28894518607E+02  0.37881553641E+02 -0.20631217436E+03  0.24593114219E+03  0.12509000000E+03 0.  0.
<mgrwt>
<rscale>  2 0.45410836E+03</rscale>
<asrwt>0</asrwt>
<pdfrwt beam="1">  1       21 0.17806172E-01 0.45410836E+03</pdfrwt>
<pdfrwt beam="2">  1       21 0.62613878E-01 0.45410836E+03</pdfrwt>
<totfact> 0.62514608E+04</totfact>
</mgrwt>
</event>
<event>
 7    0  0.4784406E-002  0.4533082E+03  0.7546771E-02  0.1026740E+00
         21   -1    0    0  502  501  0.00000000000E+00  0.00000000000E+00  0.14888675012E+03  0.14888675012E+03  0.00000000000E+00 0.  1.
         21   -1    0    0  501  502 -0.00000000000E+00 -0.00000000000E+00 -0.34504125346E+03  0.34504125346E+03  0.00000000000E+00 0.  1.
      99926    2    1    2    0    0  0.00000000000E+00 -0.13322676296E-14 -0.19615450334E+03  0.49392800357E+03  0.45330815516E+03 0.  0.
      99925    2    3    3    0    0  0.53446218160E+02 -0.34373470712E+01 -0.23028042760E+03  0.35364115317E+03  0.26299177989E+03 0.  0.
         25    1    4    4    0    0  0.19015838879E+02 -0.31765452274E+02 -0.14858336681E+03  0.19772498851E+03  0.12509000000E+03 0.  0.
         25    1    4    4    0    0  0.34430379281E+02  0.28328105202E+02 -0.81697060783E+02  0.15591616466E+03  0.12509000000E+03 0.  0.
         25    1    3    3    0    0 -0.53446218160E+02  0.34373470712E+01  0.34125924259E+02  0.14028685041E+03  0.12509000000E+03 0.  0.
<mgrwt>
<rscale>  2 0.45330816E+03</rscale>
<asrwt>0</asrwt>
<pdfrwt beam="1">  1       21 0.21895111E-01 0.45330816E+03</pdfrwt>
<pdfrwt beam="2">  1       21 0.50741360E-01 0.45330816E+03</pdfrwt>
<totfact> 0.66589234E+04</totfact>
</mgrwt>
</event>
<event>
 7    0  0.4784406E-002  0.4520527E+03  0.7546771E-02  0.1027112E+00
         21   -1    0    0  502  501  0.00000000000E+00  0.00000000000E+00  0.43492297474E+03  0.43492297474E+03  0.00000000000E+00 0.  1.
         21   -1    0    0  501  502 -0.00000000000E+00 -0.00000000000E+00 -0.11746426570E+03  0.11746426570E+03  0.00000000000E+00 0.  1.
      99926    2    1    2    0    0  0.00000000000E+00  0.00000000000E+00  0.31745870904E+03  0.55238724044E+03  0.45205268659E+03 0.  0.
      99925    2    3    3    0    0 -0.38129550815E+02  0.10029059573E+03  0.16850079058E+03  0.33024306246E+03  0.26297508939E+03 0.  0.
         25    1    4    4    0    0 -0.28618266239E+02  0.61083200263E+02  0.13168571540E+03  0.19374931808E+03  0.12509000000E+03 0.  0.
         25    1    4    4    0    0 -0.95112845760E+01  0.39207395471E+02  0.36815075186E+02  0.13649374438E+03  0.12509000000E+03 0.  0.
         25    1    3    3    0    0  0.38129550815E+02 -0.10029059573E+03  0.14895791845E+03  0.22214417798E+03  0.12509000000E+03 0.  0.
<mgrwt>
<rscale>  2 0.45205269E+03</rscale>
<asrwt>0</asrwt>
<pdfrwt beam="1">  1       21 0.63959261E-01 0.45205269E+03</pdfrwt>
<pdfrwt beam="2">  1       21 0.17274157E-01 0.45205269E+03</pdfrwt>
<totfact> 0.63169135E+04</totfact>
</mgrwt>
</event>
<event>
 7    0  0.4784406E-002  0.4512077E+03  0.7546771E-02  0.1027362E+00
         21   -1    0    0  502  501  0.00000000000E+00  0.00000000000E+00  0.17453812474E+03  0.17453812474E+03  0.00000000000E+00 0. -1.
         21   -1    0    0  501  502 -0.00000000000E+00 -0.00000000000E+00 -0.29161025310E+03  0.29161025310E+03  0.00000000000E+00 0. -1.
      99926    2    1    2    0    0  0.00000000000E+00  0.71054273576E-14 -0.11707212836E+03  0.46614837784E+03  0.45120774254E+03 0.  0.
      99925    2    3    3    0    0 -0.66522897456E+02  0.56379992541E+02 -0.53901964686E+01  0.27713948531E+03  0.26300806196E+03 0.  0.
         25    1    4    4    0    0 -0.44564870535E+02  0.22843454937E+00 -0.29937809924E+02  0.13612442996E+03  0.12509000000E+03 0.  0.
         25    1    4    4    0    0 -0.21958026921E+02  0.56151557992E+02  0.24547613455E+02  0.14101505536E+03  0.12509000000E+03 0.  0.
         25    1    3    3    0    0  0.66522897456E+02 -0.56379992541E+02 -0.11168193189E+03  0.18900889253E+03  0.12509000000E+03 0.  0.
<mgrwt>
<rscale>  2 0.45120774E+03</rscale>
<asrwt>0</asrwt>
<pdfrwt beam="1">  1       21 0.25667372E-01 0.45120774E+03</pdfrwt>
<pdfrwt beam="2">  1       21 0.42883860E-01 0.45120774E+03</pdfrwt>
<totfact> 0.69799539E+04</totfact>
</mgrwt>
</event>
<event>
 7    0  0.4784406E-002  0.4507956E+03  0.7546771E-02  0.1027485E+00
         21   -1    0    0  502  501  0.00000000000E+00  0.00000000000E+00  0.31705609001E+03  0.31705609001E+03  0.00000000000E+00 0.  1.
         21   -1    0    0  501  502 -0.00000000000E+00 -0.00000000000E+00 -0.16023717408E+03  0.16023717408E+03  0.00000000000E+00 0.  1.
      99926    2    1    2    0    0  0.00000000000E+00  0.71054273576E-14  0.15681891594E+03  0.47729326409E+03  0.45079561616E+03 0.  0.
      99925    2    3    3    0    0 -0.93765352603E+02  0.44855858955E+02  0.62707080026E+02  0.28938760906E+03  0.26269568128E+03 0.  0.
         25    1    3    3    0    0  0.93765352603E+02 -0.44855858955E+02  0.94111835910E+02  0.18790565502E+03  0.12509000000E+03 0.  0.
         25    1    4    4    0    0 -0.76803591646E+02  0.38238534489E+02  0.87269028726E+01  0.15193631608E+03  0.12509000000E+03 0.  0.
         25    1    4    4    0    0 -0.16961760957E+02  0.66173244664E+01  0.53980177154E+02  0.13745129299E+03  0.12509000000E+03 0.  0.
<mgrwt>
<rscale>  2 0.45079562E+03</rscale>
<asrwt>0</asrwt>
<pdfrwt beam="1">  1       21 0.46625896E-01 0.45079562E+03</pdfrwt>
<pdfrwt beam="2">  1       21 0.23564290E-01 0.45079562E+03</pdfrwt>
<totfact> 0.69177569E+04</totfact>
</mgrwt>
</event>
<event>
 7    0  0.4784406E-002  0.4433501E+03  0.7546771E-02  0.1029724E+00
         21   -1    0    0  502  501  0.00000000000E+00  0.00000000000E+00  0.59828053936E+02  0.59828053936E+02  0.00000000000E+00 0. -1.
         21   -1    0    0  501  502 -0.00000000000E+00 -0.00000000000E+00 -0.82135090838E+03  0.82135090838E+03  0.00000000000E+00 0. -1.
      99926    2    1    2    0    0  0.00000000000E+00  0.17763568394E-14 -0.76152285444E+03  0.88117896232E+03  0.44335009393E+03 0.  0.
      99925    2    3    3    0    0  0.85253495448E+02 -0.11522095082E+02 -0.59294610912E+03  0.65431657159E+03  0.26295279116E+03 0.  0.
         25    1    4    4    0    0  0.18985542892E+02  0.91549511295E+01 -0.35124890555E+03  0.37345356568E+03  0.12509000000E+03 0.  0.
         25    1    4    4    0    0  0.66267952556E+02 -0.20677046211E+02 -0.24169720357E+03  0.28086300591E+03  0.12509000000E+03 0.  0.
         25    1    3    3    0    0 -0.85253495448E+02  0.11522095082E+02 -0.16857674533E+03  0.22686239073E+03  0.12509000000E+03 0.  0.
<mgrwt>
<rscale>  2 0.44335009E+03</rscale>
<asrwt>0</asrwt>
<pdfrwt beam="1">  1       21 0.87982429E-02 0.44335009E+03</pdfrwt>
<pdfrwt beam="2">  1       21 0.12078690E+00 0.44335009E+03</pdfrwt>
<totfact> 0.48316717E+04</totfact>
</mgrwt>
</event>
<event>
 7    0  0.4784406E-002  0.4516028E+03  0.7546771E-02  0.1027245E+00
         21   -1    0    0  502  501  0.00000000000E+00  0.00000000000E+00  0.10596070848E+04  0.10596070848E+04  0.00000000000E+00 0. -1.
         21   -1    0    0  501  502 -0.00000000000E+00 -0.00000000000E+00 -0.48118097021E+02  0.48118097021E+02  0.00000000000E+00 0. -1.
      99926    2    1    2    0    0  0.00000000000E+00  0.00000000000E+00  0.10114889878E+04  0.11077251818E+04  0.45160281890E+03 0.  0.
      99925    2    3    3    0    0 -0.29409194585E+02  0.37382998021E+02  0.88164606583E+03  0.92126048879E+03  0.26298044325E+03 0.  0.
         25    1    4    4    0    0 -0.22966609329E+02  0.23992591787E+02  0.31061574713E+03  0.33650075791E+03  0.12509000000E+03 0.  0.
         25    1    3    3    0    0  0.29409194585E+02 -0.37382998021E+02  0.12984292193E+03  0.18646469302E+03  0.12509000000E+03 0.  0.
         25    1    4    4    0    0 -0.64425852557E+01  0.13390406234E+02  0.57103031870E+03  0.58475973088E+03  0.12509000000E+03 0.  0.
<mgrwt>
<rscale>  2 0.45160282E+03</rscale>
<asrwt>0</asrwt>
<pdfrwt beam="1">  1       21 0.15582456E+00 0.45160282E+03</pdfrwt>
<pdfrwt beam="2">  1       21 0.70761914E-02 0.45160282E+03</pdfrwt>
<totfact> 0.36174229E+04</totfact>
</mgrwt>
</event>
<event>
 7    0  0.4784406E-002  0.4530566E+03  0.7546771E-02  0.1026814E+00
         21   -1    0    0  502  501  0.00000000000E+00  0.00000000000E+00  0.52369136818E+03  0.52369136818E+03  0.00000000000E+00 0.  1.
         21   -1    0    0  501  502 -0.00000000000E+00 -0.00000000000E+00 -0.97987259513E+02  0.97987259513E+02  0.00000000000E+00 0.  1.
      99926    2    1    2    0    0  0.00000000000E+00  0.00000000000E+00  0.42570410867E+03  0.62167862769E+03  0.45305664987E+03 0.  0.
      99925    2    3    3    0    0 -0.67802312807E+02  0.75098232076E+02  0.33126552012E+03  0.43512286341E+03  0.26335938061E+03 0.  0.
         25    1    4    4    0    0 -0.22245190783E+02  0.15191410362E+02  0.10344381892E+03  0.16454105638E+03  0.12509000000E+03 0.  0.
         25    1    3    3    0    0  0.67802312807E+02 -0.75098232076E+02  0.94438588546E+02  0.18655576429E+03  0.12509000000E+03 0.  0.
         25    1    4    4    0    0 -0.45557122024E+02  0.59906821714E+02  0.22782170120E+03  0.27058180702E+03  0.12509000000E+03 0.  0.
<mgrwt>
<rscale>  2 0.45305665E+03</rscale>
<asrwt>0</asrwt>
<pdfrwt beam="1">  1       21 0.77013435E-01 0.45305665E+03</pdfrwt>
<pdfrwt beam="2">  1       21 0.14409891E-01 0.45305665E+03</pdfrwt>
<totfact> 0.58252077E+04</totfact>
</mgrwt>
</event>
<event>
 7    0  0.4784406E-002  0.4586435E+03  0.7546771E-02  0.1025175E+00
         21   -1    0    0  502  501  0.00000000000E+00  0.00000000000E+00  0.44420518158E+03  0.44420518158E+03  0.00000000000E+00 0. -1.
         21   -1    0    0  501  502 -0.00000000000E+00 -0.00000000000E+00 -0.11838776086E+03  0.11838776086E+03  0.00000000000E+00 0. -1.
      99926    2    1    2    0    0  0.00000000000E+00  0.14210854715E-13  0.32581742072E+03  0.56259294244E+03  0.45864346418E+03 0.  0.
      99925    2    3    3    0    0  0.29789613742E+02  0.11094521847E+03  0.22764846246E+03  0.36642741271E+03  0.26315197840E+03 0.  0.
         25    1    3    3    0    0 -0.29789613742E+02 -0.11094521847E+03  0.98168958265E+02  0.19616552973E+03  0.12509000000E+03 0.  0.
         25    1    4    4    0    0  0.28869484321E+02  0.35719832493E+02  0.66261968062E+02  0.14882039534E+03  0.12509000000E+03 0.  0.
         25    1    4    4    0    0  0.92012942106E+00  0.75225385977E+02  0.16138649439E+03  0.21760701736E+03  0.12509000000E+03 0.  0.
<mgrwt>
<rscale>  2 0.45864346E+03</rscale>
<asrwt>0</asrwt>
<pdfrwt beam="1">  1       21 0.65324291E-01 0.45864346E+03</pdfrwt>
<pdfrwt beam="2">  1       21 0.17409965E-01 0.45864346E+03</pdfrwt>
<totfact> 0.59314085E+04</totfact>
</mgrwt>
</event>
<event>
 7    0  0.4784406E-002  0.4512108E+03  0.7546771E-02  0.1027362E+00
         21   -1    0    0  502  501  0.00000000000E+00  0.00000000000E+00  0.26486290500E+03  0.26486290500E+03  0.00000000000E+00 0.  1.
         21   -1    0    0  501  502 -0.00000000000E+00 -0.00000000000E+00 -0.19216655187E+03  0.19216655187E+03  0.00000000000E+00 0.  1.
      99926    2    1    2    0    0  0.00000000000E+00  0.00000000000E+00  0.72696353136E+02  0.45702945687E+03  0.45121077634E+03 0.  0.
      99925    2    3    3    0    0 -0.57166892010E+02  0.54598205759E+02  0.12283085835E+03  0.30079247556E+03  0.26294424500E+03 0.  0.
         25    1    3    3    0    0  0.57166892010E+02 -0.54598205759E+02 -0.50134505217E+02  0.15623698131E+03  0.12509000000E+03 0.  0.
         25    1    4    4    0    0 -0.37781404165E+02  0.20063357697E+01  0.26743670853E+02  0.13339487214E+03  0.12509000000E+03 0.  0.
         25    1    4    4    0    0 -0.19385487846E+02  0.52591869990E+02  0.96087187500E+02  0.16739760342E+03  0.12509000000E+03 0.  0.
<mgrwt>
<rscale>  2 0.45121078E+03</rscale>
<asrwt>0</asrwt>
<pdfrwt beam="1">  1       21 0.38950427E-01 0.45121078E+03</pdfrwt>
<pdfrwt beam="2">  1       21 0.28259787E-01 0.45121078E+03</pdfrwt>
<totfact> 0.70504027E+04</totfact>
</mgrwt>
</event>
<event>
 7    0  0.4784406E-002  0.4539989E+03  0.7546771E-02  0.1026536E+00
         21   -1    0    0  502  501  0.00000000000E+00  0.00000000000E+00  0.59695251003E+02  0.59695251003E+02  0.00000000000E+00 0.  1.
         21   -1    0    0  501  502 -0.00000000000E+00 -0.00000000000E+00 -0.86319673788E+03  0.86319673788E+03  0.00000000000E+00 0.  1.
      99926    2    1    2    0    0 -0.35527136788E-14  0.14210854715E-13 -0.80350148688E+03  0.92289198888E+03  0.45399888076E+03 0.  0.
      99925    2    3    3    0    0  0.10817616152E+02 -0.11161666238E+03 -0.48844548457E+03  0.56584424302E+03  0.26272688446E+03 0.  0.
         25    1    3    3    0    0 -0.10817616152E+02  0.11161666238E+03 -0.31505600230E+03  0.35704774586E+03  0.12509000000E+03 0.  0.
         25    1    4    4    0    0 -0.22027483030E+02 -0.55644044418E+02 -0.30033438489E+03  0.33080163321E+03  0.12509000000E+03 0.  0.
         25    1    4    4    0    0  0.32845099181E+02 -0.55972617958E+02 -0.18811109969E+03  0.23504260981E+03  0.12509000000E+03 0.  0.
<mgrwt>
<rscale>  2 0.45399888E+03</rscale>
<asrwt>0</asrwt>
<pdfrwt beam="1">  1       21 0.87787142E-02 0.45399888E+03</pdfrwt>
<pdfrwt beam="2">  1       21 0.12694069E+00 0.45399888E+03</pdfrwt>
<totfact> 0.42591047E+04</totfact>
</mgrwt>
</event>
<event>
 7    0  0.4784406E-002  0.4616816E+03  0.7546771E-02  0.1024295E+00
         21   -1    0    0  502  501  0.00000000000E+00  0.00000000000E+00  0.61404834734E+02  0.61404834734E+02  0.00000000000E+00 0.  1.
         21   -1    0    0  501  502 -0.00000000000E+00 -0.00000000000E+00 -0.86780569187E+03  0.86780569187E+03  0.00000000000E+00 0.  1.
      99926    2    1    2    0    0  0.00000000000E+00  0.00000000000E+00 -0.80640085714E+03  0.92921052660E+03  0.46168155731E+03 0.  0.
      99925    2    3    3    0    0 -0.59704546807E+02 -0.91510599952E+02 -0.40799694903E+03  0.49757178309E+03  0.26301586662E+03 0.  0.
         25    1    4    4    0    0 -0.44861833352E+02 -0.50160209492E+02 -0.27643503875E+03  0.31079329056E+03  0.12509000000E+03 0.  0.
         25    1    4    4    0    0 -0.14842713455E+02 -0.41350390459E+02 -0.13156191029E+03  0.18677849253E+03  0.12509000000E+03 0.  0.
         25    1    3    3    0    0  0.59704546807E+02  0.91510599952E+02 -0.39840390810E+03  0.43163874352E+03  0.12509000000E+03 0.  0.
<mgrwt>
<rscale>  2 0.46168156E+03</rscale>
<asrwt>0</asrwt>
<pdfrwt beam="1">  1       21 0.90301228E-02 0.46168156E+03</pdfrwt>
<pdfrwt beam="2">  1       21 0.12761848E+00 0.46168156E+03</pdfrwt>
<totfact> 0.39868943E+04</totfact>
</mgrwt>
</event>
<event>
 7    0  0.4784406E-002  0.4534957E+03  0.7546771E-02  0.1026685E+00
         21   -1    0    0  502  501  0.00000000000E+00  0.00000000000E+00  0.14767150399E+04  0.14767150399E+04  0.00000000000E+00 0.  1.
         21   -1    0    0  501  502 -0.00000000000E+00 -0.00000000000E+00 -0.34816858486E+02  0.34816858486E+02  0.00000000000E+00 0.  1.
      99926    2    1    2    0    0  0.00000000000E+00  0.00000000000E+00  0.14418981815E+04  0.15115318984E+04  0.45349566070E+03 0.  0.
      99925    2    3    3    0    0  0.94159210406E+02  0.58727024100E+02  0.94435804340E+03  0.98664284602E+03  0.26331952301E+03 0.  0.
         25    1    3    3    0    0 -0.94159210406E+02 -0.58727024100E+02  0.49754013805E+03  0.52488905241E+03  0.12509000000E+03 0.  0.
         25    1    4    4    0    0  0.45089633761E+01  0.35243559979E+02  0.42266503337E+03  0.44221677693E+03  0.12509000000E+03 0.  0.
         25    1    4    4    0    0  0.89650247030E+02  0.23483464122E+02  0.52169301004E+03  0.54442606909E+03  0.12509000000E+03 0.  0.
<mgrwt>
<rscale>  2 0.45349566E+03</rscale>
<asrwt>0</asrwt>
<pdfrwt beam="1">  1       21 0.21716393E+00 0.45349566E+03</pdfrwt>
<pdfrwt beam="2">  1       21 0.51201272E-02 0.45349566E+03</pdfrwt>
<totfact> 0.23774482E+04</totfact>
</mgrwt>
</event>
<event>
 7    0  0.4784406E-002  0.4578103E+03  0.7546771E-02  0.1025418E+00
         21   -1    0    0  502  501  0.00000000000E+00  0.00000000000E+00  0.34396294345E+03  0.34396294345E+03  0.00000000000E+00 0.  1.
         21   -1    0    0  501  502 -0.00000000000E+00 -0.00000000000E+00 -0.15233488996E+03  0.15233488996E+03  0.00000000000E+00 0.  1.
      99926    2    1    2    0    0  0.00000000000E+00  0.00000000000E+00  0.19162805349E+03  0.49629783342E+03  0.45781025389E+03 0.  0.
      99925    2    3    3    0    0 -0.10724224113E+02 -0.79145594742E+02  0.21110310920E+03  0.34661209580E+03  0.26305206347E+03 0.  0.
         25    1    4    4    0    0  0.98401593595E+01 -0.20710731022E+02  0.59090831432E+02  0.14023194206E+03  0.12509000000E+03 0.  0.
         25    1    3    3    0    0  0.10724224113E+02  0.79145594742E+02 -0.19475055709E+02  0.14968573761E+03  0.12509000000E+03 0.  0.
         25    1    4    4    0    0 -0.20564383472E+02 -0.58434863720E+02  0.15201227777E+03  0.20638015374E+03  0.12509000000E+03 0.  0.
<mgrwt>
<rscale>  2 0.45781025E+03</rscale>
<asrwt>0</asrwt>
<pdfrwt beam="1">  1       21 0.50582786E-01 0.45781025E+03</pdfrwt>
<pdfrwt beam="2">  1       21 0.22402190E-01 0.45781025E+03</pdfrwt>
<totfact> 0.64089758E+04</totfact>
</mgrwt>
</event>
<event>
 7    0  0.4784406E-002  0.4492833E+03  0.7546771E-02  0.1027936E+00
         21   -1    0    0  502  501  0.00000000000E+00  0.00000000000E+00  0.56305761998E+03  0.56305761998E+03  0.00000000000E+00 0.  1.
         21   -1    0    0  501  502 -0.00000000000E+00 -0.00000000000E+00 -0.89624703503E+02  0.89624703503E+02  0.00000000000E+00 0.  1.
      99926    2    1    2    0    0  0.13322676296E-14  0.00000000000E+00  0.47343291648E+03  0.65268232348E+03  0.44928330593E+03 0.  0.
      99925    2    3    3    0    0 -0.38157440014E+01 -0.97036593620E+02  0.23160929393E+03  0.36362033545E+03  0.26295669399E+03 0.  0.
         25    1    4    4    0    0 -0.15799716646E+02 -0.65165900260E+02  0.16573945721E+03  0.21820472355E+03  0.12509000000E+03 0.  0.
         25    1    4    4    0    0  0.11983972644E+02 -0.31870693360E+02  0.65869836721E+02  0.14541561190E+03  0.12509000000E+03 0.  0.
         25    1    3    3    0    0  0.38157440014E+01  0.97036593620E+02  0.24182362255E+03  0.28906198803E+03  0.12509000000E+03 0.  0.
<mgrwt>
<rscale>  2 0.44928331E+03</rscale>
<asrwt>0</asrwt>
<pdfrwt beam="1">  1       21 0.82802590E-01 0.44928331E+03</pdfrwt>
<pdfrwt beam="2">  1       21 0.13180104E-01 0.44928331E+03</pdfrwt>
<totfact> 0.58124184E+04</totfact>
</mgrwt>
</event>
<event>
 7    0  0.4784406E-002  0.4619301E+03  0.7546771E-02  0.1024223E+00
         21   -1    0    0  502  501  0.00000000000E+00  0.00000000000E+00  0.14521872736E+03  0.14521872736E+03  0.00000000000E+00 0. -1.
         21   -1    0    0  501  502 -0.00000000000E+00 -0.00000000000E+00 -0.36734138273E+03  0.36734138273E+03  0.00000000000E+00 0. -1.
      99926    2    1    2    0    0  0.14210854715E-13  0.14210854715E-13 -0.22212265537E+03  0.51256011009E+03  0.46193007309E+03 0.  0.
      99925    2    3    3    0    0 -0.68109929878E+02 -0.97657579330E+02 -0.14849655838E+03  0.32482552188E+03  0.26321935048E+03 0.  0.
         25    1    4    4    0    0 -0.40061335724E+02 -0.24004225444E+02 -0.33884900470E+02  0.13775633575E+03  0.12509000000E+03 0.  0.
         25    1    3    3    0    0  0.68109929878E+02  0.97657579330E+02 -0.73626096997E+02  0.18773458820E+03  0.12509000000E+03 0.  0.
         25    1    4    4    0    0 -0.28048594155E+02 -0.73653353886E+02 -0.11461165791E+03  0.18706918613E+03  0.12509000000E+03 0.  0.
<mgrwt>
<rscale>  2 0.46193007E+03</rscale>
<asrwt>0</asrwt>
<pdfrwt beam="1">  1       21 0.21355695E-01 0.46193007E+03</pdfrwt>
<pdfrwt beam="2">  1       21 0.54020791E-01 0.46193007E+03</pdfrwt>
<totfact> 0.60973711E+04</totfact>
</mgrwt>
</event>
<event>
 7    0  0.4784406E-002  0.4616457E+03  0.7546771E-02  0.1024305E+00
         21   -1    0    0  502  501  0.00000000000E+00  0.00000000000E+00  0.40525888140E+03  0.40525888140E+03  0.00000000000E+00 0.  1.
         21   -1    0    0  501  502 -0.00000000000E+00 -0.00000000000E+00 -0.13146950129E+03  0.13146950129E+03  0.00000000000E+00 0.  1.
      99926    2    1    2    0    0  0.00000000000E+00  0.26645352591E-14  0.27378938010E+03  0.53672838269E+03  0.46164567812E+03 0.  0.
      99925    2    3    3    0    0  0.65736914776E+02 -0.54307296894E+01  0.28676724958E+03  0.39471863660E+03  0.26309031121E+03 0.  0.
         25    1    4    4    0    0  0.30380694336E+02  0.13868412790E+02  0.19638330848E+03  0.23522166442E+03  0.12509000000E+03 0.  0.
         25    1    4    4    0    0  0.35356220441E+02 -0.19299142479E+02  0.90383941099E+02  0.15949697217E+03  0.12509000000E+03 0.  0.
         25    1    3    3    0    0 -0.65736914776E+02  0.54307296894E+01 -0.12977869479E+02  0.14200974609E+03  0.12509000000E+03 0.  0.
<mgrwt>
<rscale>  2 0.46164568E+03</rscale>
<asrwt>0</asrwt>
<pdfrwt beam="1">  1       21 0.59596894E-01 0.46164568E+03</pdfrwt>
<pdfrwt beam="2">  1       21 0.19333750E-01 0.46164568E+03</pdfrwt>
<totfact> 0.59554247E+04</totfact>
</mgrwt>
</event>
<event>
 7    0  0.4784406E-002  0.4567071E+03  0.7546771E-02  0.1025741E+00
         21   -1    0    0  502  501  0.00000000000E+00  0.00000000000E+00  0.72903402452E+03  0.72903402452E+03  0.00000000000E+00 0.  1.
         21   -1    0    0  501  502 -0.00000000000E+00 -0.00000000000E+00 -0.71526619379E+02  0.71526619379E+02  0.00000000000E+00 0.  1.
      99926    2    1    2    0    0  0.00000000000E+00  0.13322676296E-14  0.65750740514E+03  0.80056064390E+03  0.45670707981E+03 0.  0.
      99925    2    3    3    0    0  0.11473033545E+03 -0.25533588119E+01  0.41378968082E+03  0.50354985830E+03  0.26300378387E+03 0.  0.
         25    1    4    4    0    0  0.41386915115E+02 -0.21366835157E+02  0.25411901130E+03  0.28704250276E+03  0.12509000000E+03 0.  0.
         25    1    3    3    0    0 -0.11473033545E+03  0.25533588119E+01  0.24371772432E+03  0.29701078560E+03  0.12509000000E+03 0.  0.
         25    1    4    4    0    0  0.73343420331E+02  0.18813476345E+02  0.15967066952E+03  0.21650735554E+03  0.12509000000E+03 0.  0.
<mgrwt>
<rscale>  2 0.45670708E+03</rscale>
<asrwt>0</asrwt>
<pdfrwt beam="1">  1       21 0.10721088E+00 0.45670708E+03</pdfrwt>
<pdfrwt beam="2">  1       21 0.10518621E-01 0.45670708E+03</pdfrwt>
<totfact> 0.47103491E+04</totfact>
</mgrwt>
</event>
<event>
 7    0  0.4784406E-002  0.4500403E+03  0.7546771E-02  0.1027710E+00
         21   -1    0    0  502  501  0.00000000000E+00  0.00000000000E+00  0.11116515551E+03  0.11116515551E+03  0.00000000000E+00 0. -1.
         21   -1    0    0  501  502 -0.00000000000E+00 -0.00000000000E+00 -0.45548515758E+03  0.45548515758E+03  0.00000000000E+00 0. -1.
      99926    2    1    2    0    0  0.00000000000E+00 -0.14210854715E-13 -0.34432000208E+03  0.56665031309E+03  0.45004034652E+03 0.  0.
      99925    2    3    3    0    0 -0.45318880372E+02 -0.89540502444E+02 -0.16567185326E+03  0.32657954921E+03  0.26293675380E+03 0.  0.
         25    1    4    4    0    0 -0.17395775200E+02 -0.35163659141E+02 -0.35123748854E+02  0.13572133860E+03  0.12509000000E+03 0.  0.
         25    1    3    3    0    0  0.45318880372E+02  0.89540502444E+02 -0.17864814882E+03  0.24007076388E+03  0.12509000000E+03 0.  0.
         25    1    4    4    0    0 -0.27923105172E+02 -0.54376843302E+02 -0.13054810441E+03  0.19085821060E+03  0.12509000000E+03 0.  0.
<mgrwt>
<rscale>  2 0.45004035E+03</rscale>
<asrwt>0</asrwt>
<pdfrwt beam="1">  1       21 0.16347817E-01 0.45004035E+03</pdfrwt>
<pdfrwt beam="2">  1       21 0.66983111E-01 0.45004035E+03</pdfrwt>
<totfact> 0.63223018E+04</totfact>
</mgrwt>
</event>
<event>
 7    0  0.4784406E-002  0.4414941E+03  0.7546771E-02  0.1030289E+00
         21   -1    0    0  502  501  0.00000000000E+00  0.00000000000E+00  0.24574621047E+03  0.24574621047E+03  0.00000000000E+00 0. -1.
         21   -1    0    0  501  502 -0.00000000000E+00 -0.00000000000E+00 -0.19829099441E+03  0.19829099441E+03  0.00000000000E+00 0. -1.
      99926    2    1    2    0    0  0.00000000000E+00  0.00000000000E+00  0.47455216054E+02  0.44403720488E+03  0.44149410164E+03 0.  0.
      99925    2    3    3    0    0  0.72780806518E+02  0.66574251132E+02  0.13842428661E+02  0.28122902238E+03  0.26299994960E+03 0.  0.
         25    1    4    4    0    0  0.11478616812E+02  0.65302135358E+02  0.62970837899E+01  0.14171552099E+03  0.12509000000E+03 0.  0.
         25    1    4    4    0    0  0.61302189706E+02  0.12721157742E+01  0.75453448715E+01  0.13951350139E+03  0.12509000000E+03 0.  0.
         25    1    3    3    0    0 -0.72780806518E+02 -0.66574251132E+02  0.33612787392E+02  0.16280818250E+03  0.12509000000E+03 0.  0.
<mgrwt>
<rscale>  2 0.44149410E+03</rscale>
<asrwt>0</asrwt>
<pdfrwt beam="1">  1       21 0.36139148E-01 0.44149410E+03</pdfrwt>
<pdfrwt beam="2">  1       21 0.29160440E-01 0.44149410E+03</pdfrwt>
<totfact> 0.77362706E+04</totfact>
</mgrwt>
</event>
<event>
 7    0  0.4784406E-002  0.4613453E+03  0.7546771E-02  0.1024392E+00
         21   -1    0    0  502  501  0.00000000000E+00  0.00000000000E+00  0.23832407111E+03  0.23832407111E+03  0.00000000000E+00 0.  1.
         21   -1    0    0  501  502 -0.00000000000E+00 -0.00000000000E+00 -0.22326683337E+03  0.22326683337E+03  0.00000000000E+00 0.  1.
      99926    2    1    2    0    0  0.00000000000E+00  0.00000000000E+00  0.15057237742E+02  0.46159090447E+03  0.46134525324E+03 0.  0.
      99925    2    3    3    0    0 -0.66226813139E+02 -0.24537296070E+02  0.10524377770E+03  0.29197607680E+03  0.26303176044E+03 0.  0.
         25    1    4    4    0    0 -0.14959453493E+02  0.24817086263E+02  0.51809406354E+02  0.13846080928E+03  0.12509000000E+03 0.  0.
         25    1    4    4    0    0 -0.51267359646E+02 -0.49354382333E+02  0.53434371350E+02  0.15351526752E+03  0.12509000000E+03 0.  0.
         25    1    3    3    0    0  0.66226813139E+02  0.24537296070E+02 -0.90186539961E+02  0.16961482767E+03  0.12509000000E+03 0.  0.
<mgrwt>
<rscale>  2 0.46134525E+03</rscale>
<asrwt>0</asrwt>
<pdfrwt beam="1">  1       21 0.35047658E-01 0.46134525E+03</pdfrwt>
<pdfrwt beam="2">  1       21 0.32833358E-01 0.46134525E+03</pdfrwt>
<totfact> 0.64726069E+04</totfact>
</mgrwt>
</event>
<event>
 7    0  0.4784406E-002  0.4726464E+03  0.7546771E-02  0.1021176E+00
         21   -1    0    0  502  501  0.00000000000E+00  0.00000000000E+00  0.51668932499E+03  0.51668932499E+03  0.00000000000E+00 0. -1.
         21   -1    0    0  501  502 -0.00000000000E+00 -0.00000000000E+00 -0.10808944342E+03  0.10808944342E+03  0.00000000000E+00 0. -1.
      99926    2    1    2    0    0  0.00000000000E+00  0.00000000000E+00  0.40859988157E+03  0.62477876842E+03  0.47264642837E+03 0.  0.
      99925    2    3    3    0    0  0.10152606025E+03  0.34548789631E+02  0.15837319137E+03  0.32517559026E+03  0.26297516419E+03 0.  0.
         25    1    4    4    0    0  0.17533703746E+02  0.19404607083E+02  0.43119207900E+02  0.13487306526E+03  0.12509000000E+03 0.  0.
         25    1    4    4    0    0  0.83992356501E+02  0.15144182548E+02  0.11525398347E+03  0.19030252500E+03  0.12509000000E+03 0.  0.
         25    1    3    3    0    0 -0.10152606025E+03 -0.34548789631E+02  0.25022669019E+03  0.29960317815E+03  0.12509000000E+03 0.  0.
<mgrwt>
<rscale>  2 0.47264643E+03</rscale>
<asrwt>0</asrwt>
<pdfrwt beam="1">  1       21 0.75983723E-01 0.47264643E+03</pdfrwt>
<pdfrwt beam="2">  1       21 0.15895507E-01 0.47264643E+03</pdfrwt>
<totfact> 0.49859196E+04</totfact>
</mgrwt>
</event>
<event>
 7    0  0.4784406E-002  0.4515690E+03  0.7546771E-02  0.1027255E+00
         21   -1    0    0  502  501  0.00000000000E+00  0.00000000000E+00  0.18560571137E+02  0.18560571137E+02  0.00000000000E+00 0.  1.
         21   -1    0    0  501  502 -0.00000000000E+00 -0.00000000000E+00 -0.27466097297E+04  0.27466097297E+04  0.00000000000E+00 0.  1.
      99926    2    1    2    0    0  0.00000000000E+00  0.00000000000E+00 -0.27280491586E+04  0.27651703008E+04  0.45156902141E+03 0.  0.
      99925    2    3    3    0    0  0.49450103179E+02 -0.94096103614E+02 -0.18936362235E+04  0.19147634314E+04  0.26298566796E+03 0.  0.
         25    1    3    3    0    0 -0.49450103179E+02  0.94096103614E+02 -0.83441293503E+03  0.85040686948E+03  0.12509000000E+03 0.  0.
         25    1    4    4    0    0  0.61849061609E+02 -0.32066508797E+02 -0.10008394082E+04  0.10110294736E+04  0.12509000000E+03 0.  0.
         25    1    4    4    0    0 -0.12398958430E+02 -0.62029594817E+02 -0.89279681536E+03  0.90373395776E+03  0.12509000000E+03 0.  0.
<mgrwt>
<rscale>  2 0.45156902E+03</rscale>
<asrwt>0</asrwt>
<pdfrwt beam="1">  1       21 0.27294969E-02 0.45156902E+03</pdfrwt>
<pdfrwt beam="2">  1       21 0.40391303E+00 0.45156902E+03</pdfrwt>
<totfact> 0.49112863E+03</totfact>
</mgrwt>
</event>
<event>
 7    0  0.4784406E-002  0.4653968E+03  0.7546771E-02  0.1023228E+00
         21   -1    0    0  502  501  0.00000000000E+00  0.00000000000E+00  0.73600958988E+03  0.73600958988E+03  0.00000000000E+00 0.  1.
         21   -1    0    0  501  502 -0.00000000000E+00 -0.00000000000E+00 -0.73570441016E+02  0.73570441016E+02  0.00000000000E+00 0.  1.
      99926    2    1    2    0    0  0.00000000000E+00 -0.71054273576E-14  0.66243914886E+03  0.80958003089E+03  0.46539682044E+03 0.  0.
      99925    2    3    3    0    0 -0.56578181609E+02 -0.63239674434E+02  0.56752637865E+03  0.63109672886E+03  0.26267193160E+03 0.  0.
         25    1    4    4    0    0 -0.22709689017E+02  0.72617595800E+01  0.29199449186E+03  0.31855416259E+03  0.12509000000E+03 0.  0.
         25    1    4    4    0    0 -0.33868492592E+02 -0.70501434014E+02  0.27553188679E+03  0.31254256627E+03  0.12509000000E+03 0.  0.
         25    1    3    3    0    0  0.56578181609E+02  0.63239674434E+02  0.94912770206E+02  0.17848330203E+03  0.12509000000E+03 0.  0.
<mgrwt>
<rscale>  2 0.46539682E+03</rscale>
<asrwt>0</asrwt>
<pdfrwt beam="1">  1       21 0.10823670E+00 0.46539682E+03</pdfrwt>
<pdfrwt beam="2">  1       21 0.10819183E-01 0.46539682E+03</pdfrwt>
<totfact> 0.43634522E+04</totfact>
</mgrwt>
</event>
<event>
 7    0  0.4784406E-002  0.4587498E+03  0.7546771E-02  0.1025144E+00
         21   -1    0    0  502  501  0.00000000000E+00  0.00000000000E+00  0.75116572759E+02  0.75116572759E+02  0.00000000000E+00 0.  1.
         21   -1    0    0  501  502 -0.00000000000E+00 -0.00000000000E+00 -0.70041590831E+03  0.70041590831E+03  0.00000000000E+00 0.  1.
      99926    2    1    2    0    0  0.00000000000E+00  0.00000000000E+00 -0.62529933555E+03  0.77553248107E+03  0.45874979036E+03 0.  0.
      99925    2    3    3    0    0  0.68321939330E+02 -0.51113148729E+02 -0.52654305739E+03  0.59475429671E+03  0.26306774944E+03 0.  0.
         25    1    4    4    0    0  0.40320927329E+02 -0.10607326727E+02 -0.18062171545E+03  0.22362916794E+03  0.12509000000E+03 0.  0.
         25    1    3    3    0    0 -0.68321939330E+02  0.51113148729E+02 -0.98756278159E+02  0.18077818437E+03  0.12509000000E+03 0.  0.
         25    1    4    4    0    0  0.28001012001E+02 -0.40505822003E+02 -0.34592134195E+03  0.37112512877E+03  0.12509000000E+03 0.  0.
<mgrwt>
<rscale>  2 0.45874979E+03</rscale>
<asrwt>0</asrwt>
<pdfrwt beam="1">  1       21 0.11046555E-01 0.45874979E+03</pdfrwt>
<pdfrwt beam="2">  1       21 0.10300234E+00 0.45874979E+03</pdfrwt>
<totfact> 0.47555774E+04</totfact>
</mgrwt>
</event>
<event>
 7    0  0.4784406E-002  0.4520050E+03  0.7546771E-02  0.1027126E+00
         21   -1    0    0  502  501  0.00000000000E+00  0.00000000000E+00  0.53294242022E+02  0.53294242022E+02  0.00000000000E+00 0.  1.
         21   -1    0    0  501  502 -0.00000000000E+00 -0.00000000000E+00 -0.95839859045E+03  0.95839859045E+03  0.00000000000E+00 0.  1.
      99926    2    1    2    0    0  0.00000000000E+00  0.00000000000E+00 -0.90510434842E+03  0.10116928325E+04  0.45200498419E+03 0.  0.
      99925    2    3    3    0    0  0.24869490611E+02 -0.74186554582E+02 -0.39622329256E+03  0.48185363652E+03  0.26280771111E+03 0.  0.
         25    1    4    4    0    0 -0.44018453456E+01 -0.63453570157E+02 -0.16063867513E+03  0.21330265787E+03  0.12509000000E+03 0.  0.
         25    1    3    3    0    0 -0.24869490611E+02  0.74186554582E+02 -0.50888105586E+03  0.52983919594E+03  0.12509000000E+03 0.  0.
         25    1    4    4    0    0  0.29271335957E+02 -0.10732984426E+02 -0.23558461744E+03  0.26855097865E+03  0.12509000000E+03 0.  0.
<mgrwt>
<rscale>  2 0.45200498E+03</rscale>
<asrwt>0</asrwt>
<pdfrwt beam="1">  1       21 0.78373891E-02 0.45200498E+03</pdfrwt>
<pdfrwt beam="2">  1       21 0.14094096E+00 0.45200498E+03</pdfrwt>
<totfact> 0.39633869E+04</totfact>
</mgrwt>
</event>
<event>
 7    0  0.4784406E-002  0.4324620E+03  0.7546771E-02  0.1033085E+00
         21   -1    0    0  502  501  0.00000000000E+00  0.00000000000E+00  0.57352228114E+02  0.57352228114E+02  0.00000000000E+00 0. -1.
         21   -1    0    0  501  502 -0.00000000000E+00 -0.00000000000E+00 -0.81524038168E+03  0.81524038168E+03  0.00000000000E+00 0. -1.
      99926    2    1    2    0    0  0.00000000000E+00  0.00000000000E+00 -0.75788815357E+03  0.87259260980E+03  0.43246203226E+03 0.  0.
      99925    2    3    3    0    0  0.39984379640E+02  0.34144349306E+02 -0.33754238883E+03  0.43088834534E+03  0.26261248007E+03 0.  0.
         25    1    3    3    0    0 -0.39984379640E+02 -0.34144349306E+02 -0.42034576474E+03  0.44170426445E+03  0.12509000000E+03 0.  0.
         25    1    4    4    0    0 -0.19934043064E+02  0.13076480295E+02 -0.16875914063E+03  0.21141314069E+03  0.12509000000E+03 0.  0.
         25    1    4    4    0    0  0.59918422704E+02  0.21067869011E+02 -0.16878324820E+03  0.21947520465E+03  0.12509000000E+03 0.  0.
<mgrwt>
<rscale>  2 0.43246203E+03</rscale>
<asrwt>0</asrwt>
<pdfrwt beam="1">  1       21 0.84341522E-02 0.43246203E+03</pdfrwt>
<pdfrwt beam="2">  1       21 0.11988828E+00 0.43246203E+03</pdfrwt>
<totfact> 0.53230741E+04</totfact>
</mgrwt>
</event>
<event>
 7    0  0.4784406E-002  0.4590796E+03  0.7546771E-02  0.1025049E+00
         21   -1    0    0  502  501  0.00000000000E+00  0.00000000000E+00  0.28629111218E+03  0.28629111218E+03  0.00000000000E+00 0.  1.
         21   -1    0    0  501  502 -0.00000000000E+00 -0.00000000000E+00 -0.18403824784E+03  0.18403824784E+03  0.00000000000E+00 0.  1.
      99926    2    1    2    0    0  0.00000000000E+00  0.00000000000E+00  0.10225286434E+03  0.47032936002E+03  0.45907957767E+03 0.  0.
      99925    2    3    3    0    0  0.83367359142E+02 -0.77885937325E+02  0.90391332063E+02  0.30061035740E+03  0.26302026207E+03 0.  0.
         25    1    4    4    0    0  0.15872502242E+02 -0.33184042233E+01  0.42620699814E+02  0.13314270647E+03  0.12509000000E+03 0.  0.
         25    1    4    4    0    0  0.67494856900E+02 -0.74567533102E+02  0.47770632250E+02  0.16746765093E+03  0.12509000000E+03 0.  0.
         25    1    3    3    0    0 -0.83367359142E+02  0.77885937325E+02  0.11861532281E+02  0.16971900262E+03  0.12509000000E+03 0.  0.
<mgrwt>
<rscale>  2 0.45907958E+03</rscale>
<asrwt>0</asrwt>
<pdfrwt beam="1">  1       21 0.42101634E-01 0.45907958E+03</pdfrwt>
<pdfrwt beam="2">  1       21 0.27064448E-01 0.45907958E+03</pdfrwt>
<totfact> 0.65273552E+04</totfact>
</mgrwt>
</event>
<event>
 7    0  0.4784406E-002  0.4556042E+03  0.7546771E-02  0.1026064E+00
         21   -1    0    0  502  501  0.00000000000E+00  0.00000000000E+00  0.15886105734E+03  0.15886105734E+03  0.00000000000E+00 0. -1.
         21   -1    0    0  501  502 -0.00000000000E+00 -0.00000000000E+00 -0.32666147216E+03  0.32666147216E+03  0.00000000000E+00 0. -1.
      99926    2    1    2    0    0  0.00000000000E+00 -0.33306690739E-15 -0.16780041482E+03  0.48552252951E+03  0.45560415653E+03 0.  0.
      99925    2    3    3    0    0  0.60781570703E+02  0.55764924121E+00 -0.20797102897E+03  0.34076101303E+03  0.26300457943E+03 0.  0.
         25    1    3    3    0    0 -0.60781570703E+02 -0.55764924121E+00  0.40170614153E+02  0.14476151647E+03  0.12509000000E+03 0.  0.
         25    1    4    4    0    0  0.37003988444E+02 -0.27624718862E+02 -0.14134833238E+03  0.19431747070E+03  0.12509000000E+03 0.  0.
         25    1    4    4    0    0  0.23777582260E+02  0.28182368103E+02 -0.66622696597E+02  0.14644354234E+03  0.12509000000E+03 0.  0.
<mgrwt>
<rscale>  2 0.45560416E+03</rscale>
<asrwt>0</asrwt>
<pdfrwt beam="1">  1       21 0.23361920E-01 0.45560416E+03</pdfrwt>
<pdfrwt beam="2">  1       21 0.48038451E-01 0.45560416E+03</pdfrwt>
<totfact> 0.65983224E+04</totfact>
</mgrwt>
</event>
<event>
 7    0  0.4784406E-002  0.4574001E+03  0.7546771E-02  0.1025538E+00
         21   -1    0    0  502  501  0.00000000000E+00  0.00000000000E+00  0.51087591112E+03  0.51087591112E+03  0.00000000000E+00 0. -1.
         21   -1    0    0  501  502 -0.00000000000E+00 -0.00000000000E+00 -0.10238047235E+03  0.10238047235E+03  0.00000000000E+00 0. -1.
      99926    2    1    2    0    0 -0.71054273576E-14  0.00000000000E+00  0.40849543878E+03  0.61325638347E+03  0.45740011846E+03 0.  0.
      99925    2    3    3    0    0 -0.39399559324E+02  0.10840536117E+03  0.25105268390E+03  0.38143797012E+03  0.26298940540E+03 0.  0.
         25    1    4    4    0    0 -0.55673318280E+02  0.77210102324E+02  0.13433742968E+03  0.20677275300E+03  0.12509000000E+03 0.  0.
         25    1    3    3    0    0  0.39399559324E+02 -0.10840536117E+03  0.15744275488E+03  0.23181841335E+03  0.12509000000E+03 0.  0.
         25    1    4    4    0    0  0.16273758956E+02  0.31195258844E+02  0.11671525422E+03  0.17466521712E+03  0.12509000000E+03 0.  0.
<mgrwt>
<rscale>  2 0.45740012E+03</rscale>
<asrwt>0</asrwt>
<pdfrwt beam="1">  1       21 0.75128809E-01 0.45740012E+03</pdfrwt>
<pdfrwt beam="2">  1       21 0.15055952E-01 0.45740012E+03</pdfrwt>
<totfact> 0.56785486E+04</totfact>
</mgrwt>
</event>
<event>
 7    0  0.4784406E-002  0.4557511E+03  0.7546771E-02  0.1026021E+00
         21   -1    0    0  502  501  0.00000000000E+00  0.00000000000E+00  0.41396854083E+02  0.41396854083E+02  0.00000000000E+00 0.  1.
         21   -1    0    0  501  502 -0.00000000000E+00 -0.00000000000E+00 -0.12543769171E+04  0.12543769171E+04  0.00000000000E+00 0.  1.
      99926    2    1    2    0    0 -0.35527136788E-14  0.14210854715E-13 -0.12129800630E+04  0.12957737712E+04  0.45575106451E+03 0.  0.
      99925    2    3    3    0    0 -0.89582754643E+01 -0.84036131269E+02 -0.97971487090E+03  0.10179204285E+04  0.26301796238E+03 0.  0.
         25    1    3    3    0    0  0.89582754643E+01  0.84036131269E+02 -0.23326519210E+03  0.27785334262E+03  0.12509000000E+03 0.  0.
         25    1    4    4    0    0  0.23454903441E+02 -0.68146660065E+02 -0.45850586739E+03  0.48069661774E+03  0.12509000000E+03 0.  0.
         25    1    4    4    0    0 -0.32413178905E+02 -0.15889471204E+02 -0.52120900351E+03  0.53722381081E+03  0.12509000000E+03 0.  0.
<mgrwt>
<rscale>  2 0.45575106E+03</rscale>
<asrwt>0</asrwt>
<pdfrwt beam="1">  1       21 0.60877739E-02 0.45575106E+03</pdfrwt>
<pdfrwt beam="2">  1       21 0.18446716E+00 0.45575106E+03</pdfrwt>
<totfact> 0.29067532E+04</totfact>
</mgrwt>
</event>
<event>
 7    0  0.4784406E-002  0.4535159E+03  0.7546771E-02  0.1026679E+00
         21   -1    0    0  502  501  0.00000000000E+00  0.00000000000E+00  0.48493240280E+02  0.48493240280E+02  0.00000000000E+00 0. -1.
         21   -1    0    0  501  502 -0.00000000000E+00 -0.00000000000E+00 -0.10603366314E+04  0.10603366314E+04  0.00000000000E+00 0. -1.
      99926    2    1    2    0    0  0.00000000000E+00  0.00000000000E+00 -0.10118433911E+04  0.11088298717E+04  0.45351586100E+03 0.  0.
      99925    2    3    3    0    0  0.88496699790E+02  0.55933936093E+02 -0.73182399263E+03  0.78476407171E+03  0.26330214769E+03 0.  0.
         25    1    3    3    0    0 -0.88496699790E+02 -0.55933936093E+02 -0.28001939851E+03  0.32406579999E+03  0.12509000000E+03 0.  0.
         25    1    4    4    0    0  0.11574219894E+02  0.52288168221E+02 -0.37241628430E+03  0.39649642119E+03  0.12509000000E+03 0.  0.
         25    1    4    4    0    0  0.76922479896E+02  0.36457678720E+01 -0.35940770833E+03  0.38826765052E+03  0.12509000000E+03 0.  0.
<mgrwt>
<rscale>  2 0.45351586E+03</rscale>
<asrwt>0</asrwt>
<pdfrwt beam="1">  1       21 0.71313597E-02 0.45351586E+03</pdfrwt>
<pdfrwt beam="2">  1       21 0.15593184E+00 0.45351586E+03</pdfrwt>
<totfact> 0.35597110E+04</totfact>
</mgrwt>
</event>
<event>
 7    0  0.4784406E-002  0.4598561E+03  0.7546771E-02  0.1024823E+00
         21   -1    0    0  502  501  0.00000000000E+00  0.00000000000E+00  0.15786759126E+03  0.15786759126E+03  0.00000000000E+00 0. -1.
         21   -1    0    0  501  502 -0.00000000000E+00 -0.00000000000E+00 -0.33488139572E+03  0.33488139572E+03  0.00000000000E+00 0. -1.
      99926    2    1    2    0    0  0.00000000000E+00  0.00000000000E+00 -0.17701380445E+03  0.49274898698E+03  0.45985614838E+03 0.  0.
      99925    2    3    3    0    0 -0.92936105221E+02 -0.71575459331E+02 -0.10505117178E+03  0.30677507851E+03  0.26327748492E+03 0.  0.
         25    1    4    4    0    0 -0.16385732998E+02 -0.28155384646E+02 -0.17223076840E+02  0.13040460270E+03  0.12509000000E+03 0.  0.
         25    1    3    3    0    0  0.92936105221E+02  0.71575459331E+02 -0.71962632669E+02  0.18597390847E+03  0.12509000000E+03 0.  0.
         25    1    4    4    0    0 -0.76550372223E+02 -0.43420074684E+02 -0.87828094943E+02  0.17637047580E+03  0.12509000000E+03 0.  0.
<mgrwt>
<rscale>  2 0.45985615E+03</rscale>
<asrwt>0</asrwt>
<pdfrwt beam="1">  1       21 0.23215823E-01 0.45985615E+03</pdfrwt>
<pdfrwt beam="2">  1       21 0.49247263E-01 0.45985615E+03</pdfrwt>
<totfact> 0.63307128E+04</totfact>
</mgrwt>
</event>
<event>
 7    0  0.4784406E-002  0.4601998E+03  0.7546771E-02  0.1024723E+00
         21   -1    0    0  502  501  0.00000000000E+00  0.00000000000E+00  0.20026489280E+03  0.20026489280E+03  0.00000000000E+00 0.  1.
         21   -1    0    0  501  502 -0.00000000000E+00 -0.00000000000E+00 -0.26437960135E+03  0.26437960135E+03  0.00000000000E+00 0.  1.
      99926    2    1    2    0    0  0.14210854715E-13 -0.71054273576E-14 -0.64114708556E+02  0.46464449415E+03  0.46019975020E+03 0.  0.
      99925    2    3    3    0    0 -0.10840110238E+03  0.38999795947E+02 -0.14391027322E+02  0.28746736341E+03  0.26298022792E+03 0.  0.
         25    1    3    3    0    0  0.10840110238E+03 -0.38999795947E+02 -0.49723681234E+02  0.17717713074E+03  0.12509000000E+03 0.  0.
         25    1    4    4    0    0 -0.53627070893E+02 -0.60480844408E+00 -0.42395090052E+02  0.14255202659E+03  0.12509000000E+03 0.  0.
         25    1    4    4    0    0 -0.54774031489E+02  0.39604604391E+02  0.28004062730E+02  0.14491533681E+03  0.12509000000E+03 0.  0.
<mgrwt>
<rscale>  2 0.46019975E+03</rscale>
<asrwt>0</asrwt>
<pdfrwt beam="1">  1       21 0.29450720E-01 0.46019975E+03</pdfrwt>
<pdfrwt beam="2">  1       21 0.38879353E-01 0.46019975E+03</pdfrwt>
<totfact> 0.65101680E+04</totfact>
</mgrwt>
</event>
<event>
 7    0  0.4784406E-002  0.4540275E+03  0.7546771E-02  0.1026528E+00
         21   -1    0    0  502  501  0.00000000000E+00  0.00000000000E+00  0.28641783629E+03  0.28641783629E+03  0.00000000000E+00 0.  1.
         21   -1    0    0  501  502 -0.00000000000E+00 -0.00000000000E+00 -0.17993030869E+03  0.17993030869E+03  0.00000000000E+00 0.  1.
      99926    2    1    2    0    0  0.00000000000E+00  0.00000000000E+00  0.10648752760E+03  0.46634814498E+03  0.45402753088E+03 0.  0.
      99925    2    3    3    0    0 -0.44982439344E+02 -0.89171996064E+02  0.11976983365E+03  0.30572749723E+03  0.26296278211E+03 0.  0.
         25    1    3    3    0    0  0.44982439344E+02  0.89171996064E+02 -0.13282306051E+02  0.16062064776E+03  0.12509000000E+03 0.  0.
         25    1    4    4    0    0  0.13145202789E+02 -0.63377728417E+02  0.55535955428E+02  0.15139776505E+03  0.12509000000E+03 0.  0.
         25    1    4    4    0    0 -0.58127642133E+02 -0.25794267647E+02  0.64233878226E+02  0.15432973218E+03  0.12509000000E+03 0.  0.
<mgrwt>
<rscale>  2 0.45402753E+03</rscale>
<asrwt>0</asrwt>
<pdfrwt beam="1">  1       21 0.42120270E-01 0.45402753E+03</pdfrwt>
<pdfrwt beam="2">  1       21 0.26460339E-01 0.45402753E+03</pdfrwt>
<totfact> 0.68233332E+04</totfact>
</mgrwt>
</event>
<event>
 7    0  0.4784406E-002  0.4527800E+03  0.7546771E-02  0.1026896E+00
         21   -1    0    0  502  501  0.00000000000E+00  0.00000000000E+00  0.34671816175E+03  0.34671816175E+03  0.00000000000E+00 0.  1.
         21   -1    0    0  501  502 -0.00000000000E+00 -0.00000000000E+00 -0.14782159813E+03  0.14782159813E+03  0.00000000000E+00 0.  1.
      99926    2    1    2    0    0  0.00000000000E+00  0.00000000000E+00  0.19889656363E+03  0.49453975988E+03  0.45278000296E+03 0.  0.
      99925    2    3    3    0    0 -0.76360572790E+02  0.73220278613E+02  0.16207587194E+03  0.32662484776E+03  0.26310274919E+03 0.  0.
         25    1    4    4    0    0 -0.74340651920E+02  0.27520263788E+02  0.64571696765E+02  0.16155775924E+03  0.12509000000E+03 0.  0.
         25    1    3    3    0    0  0.76360572790E+02 -0.73220278613E+02  0.36820691688E+02  0.16791491212E+03  0.12509000000E+03 0.  0.
         25    1    4    4    0    0 -0.20199208699E+01  0.45700014825E+02  0.97504175174E+02  0.16506708852E+03  0.12509000000E+03 0.  0.
<mgrwt>
<rscale>  2 0.45278000E+03</rscale>
<asrwt>0</asrwt>
<pdfrwt beam="1">  1       21 0.50987965E-01 0.45278000E+03</pdfrwt>
<pdfrwt beam="2">  1       21 0.21738470E-01 0.45278000E+03</pdfrwt>
<totfact> 0.66825940E+04</totfact>
</mgrwt>
</event>
<event>
 7    0  0.4784406E-002  0.4178729E+03  0.7546771E-02  0.1037761E+00
         21   -1    0    0  502  501  0.00000000000E+00  0.00000000000E+00  0.58096792143E+02  0.58096792143E+02  0.00000000000E+00 0. -1.
         21   -1    0    0  501  502 -0.00000000000E+00 -0.00000000000E+00 -0.75140882127E+03  0.75140882127E+03  0.00000000000E+00 0. -1.
      99926    2    1    2    0    0  0.35527136788E-14  0.00000000000E+00 -0.69331202913E+03  0.80950561341E+03  0.41787290941E+03 0.  0.
      99925    2    3    3    0    0  0.26658381381E+02  0.34811545625E+02 -0.33947313921E+03  0.43165381558E+03  0.26298382318E+03 0.  0.
         25    1    4    4    0    0  0.12200458618E+02 -0.10869283016E+02 -0.21226996222E+03  0.24692719061E+03  0.12509000000E+03 0.  0.
         25    1    3    3    0    0 -0.26658381381E+02 -0.34811545625E+02 -0.35383888991E+03  0.37785179783E+03  0.12509000000E+03 0.  0.
         25    1    4    4    0    0  0.14457922763E+02  0.45680828641E+02 -0.12720317699E+03  0.18472662497E+03  0.12509000000E+03 0.  0.
<mgrwt>
<rscale>  2 0.41787291E+03</rscale>
<asrwt>0</asrwt>
<pdfrwt beam="1">  1       21 0.85436464E-02 0.41787291E+03</pdfrwt>
<pdfrwt beam="2">  1       21 0.11050129E+00 0.41787291E+03</pdfrwt>
<totfact> 0.64018243E+04</totfact>
</mgrwt>
</event>
<event>
 7    0  0.4784406E-002  0.4525490E+03  0.7546771E-02  0.1026965E+00
         21   -1    0    0  502  501  0.00000000000E+00  0.00000000000E+00  0.28128388463E+03  0.28128388463E+03  0.00000000000E+00 0.  1.
         21   -1    0    0  501  502 -0.00000000000E+00 -0.00000000000E+00 -0.18202302893E+03  0.18202302893E+03  0.00000000000E+00 0.  1.
      99926    2    1    2    0    0  0.00000000000E+00  0.00000000000E+00  0.99260855691E+02  0.46330691356E+03  0.45254897932E+03 0.  0.
      99925    2    3    3    0    0  0.27981519256E+02 -0.91639444437E+02  0.11974592096E+03  0.30441103823E+03  0.26295672917E+03 0.  0.
         25    1    3    3    0    0 -0.27981519256E+02  0.91639444437E+02 -0.20485065269E+02  0.15889587533E+03  0.12509000000E+03 0.  0.
         25    1    4    4    0    0  0.17627331700E+02 -0.66151933252E+02  0.24241491524E+02  0.14464425017E+03  0.12509000000E+03 0.  0.
         25    1    4    4    0    0  0.10354187557E+02 -0.25487511185E+02  0.95504429437E+02  0.15976678806E+03  0.12509000000E+03 0.  0.
<mgrwt>
<rscale>  2 0.45254898E+03</rscale>
<asrwt>0</asrwt>
<pdfrwt beam="1">  1       21 0.41365277E-01 0.45254898E+03</pdfrwt>
<pdfrwt beam="2">  1       21 0.26768092E-01 0.45254898E+03</pdfrwt>
<totfact> 0.69274303E+04</totfact>
</mgrwt>
</event>
<event>
 7    0  0.4784406E-002  0.4559473E+03  0.7546771E-02  0.1025963E+00
         21   -1    0    0  502  501  0.00000000000E+00  0.00000000000E+00  0.61573405800E+02  0.61573405800E+02  0.00000000000E+00 0.  1.
         21   -1    0    0  501  502 -0.00000000000E+00 -0.00000000000E+00 -0.84406540406E+03  0.84406540406E+03  0.00000000000E+00 0.  1.
      99926    2    1    2    0    0 -0.14210854715E-13  0.00000000000E+00 -0.78249199826E+03  0.90563880986E+03  0.45594728487E+03 0.  0.
      99925    2    3    3    0    0  0.79269642040E+02 -0.66545695911E+02 -0.39650217007E+03  0.48689346797E+03  0.26294347773E+03 0.  0.
         25    1    3    3    0    0 -0.79269642040E+02  0.66545695911E+02 -0.38598982819E+03  0.41874534190E+03  0.12509000000E+03 0.  0.
         25    1    4    4    0    0  0.49629576131E+02 -0.39966610493E+02 -0.27139151845E+03  0.30555079638E+03  0.12509000000E+03 0.  0.
         25    1    4    4    0    0  0.29640065909E+02 -0.26579085419E+02 -0.12511065162E+03  0.18134267159E+03  0.12509000000E+03 0.  0.
<mgrwt>
<rscale>  2 0.45594728E+03</rscale>
<asrwt>0</asrwt>
<pdfrwt beam="1">  1       21 0.90549132E-02 0.45594728E+03</pdfrwt>
<pdfrwt beam="2">  1       21 0.12412726E+00 0.45594728E+03</pdfrwt>
<totfact> 0.42673452E+04</totfact>
</mgrwt>
</event>
<event>
 7    0  0.4784406E-002  0.4348357E+03  0.7546771E-02  0.1032343E+00
         21   -1    0    0  502  501  0.00000000000E+00  0.00000000000E+00  0.41979016300E+02  0.41979016300E+02  0.00000000000E+00 0.  1.
         21   -1    0    0  501  502 -0.00000000000E+00 -0.00000000000E+00 -0.11260510911E+04  0.11260510911E+04  0.00000000000E+00 0.  1.
      99926    2    1    2    0    0  0.17763568394E-14  0.00000000000E+00 -0.10840720748E+04  0.11680301074E+04  0.43483567981E+03 0.  0.
      99925    2    3    3    0    0  0.66878652360E+01  0.90642612009E+02 -0.64073769221E+03  0.69850514157E+03  0.26287607713E+03 0.  0.
         25    1    4    4    0    0 -0.27532195739E+02  0.71308536035E+02 -0.35753464161E+03  0.38642134668E+03  0.12509000000E+03 0.  0.
         25    1    3    3    0    0 -0.66878652360E+01 -0.90642612009E+02 -0.44333438261E+03  0.46952496585E+03  0.12509000000E+03 0.  0.
         25    1    4    4    0    0  0.34220060975E+02  0.19334075974E+02 -0.28320305059E+03  0.31208379489E+03  0.12509000000E+03 0.  0.
<mgrwt>
<rscale>  2 0.43483568E+03</rscale>
<asrwt>0</asrwt>
<pdfrwt beam="1">  1       21 0.61733854E-02 0.43483568E+03</pdfrwt>
<pdfrwt beam="2">  1       21 0.16559573E+00 0.43483568E+03</pdfrwt>
<totfact> 0.38956544E+04</totfact>
</mgrwt>
</event>
<event>
 7    0  0.4784406E-002  0.4497706E+03  0.7546771E-02  0.1027790E+00
         21   -1    0    0  502  501  0.00000000000E+00  0.00000000000E+00  0.13691681798E+03  0.13691681798E+03  0.00000000000E+00 0.  1.
         21   -1    0    0  501  502 -0.00000000000E+00 -0.00000000000E+00 -0.36937316966E+03  0.36937316966E+03  0.00000000000E+00 0.  1.
      99926    2    1    2    0    0  0.00000000000E+00  0.88817841970E-15 -0.23245635168E+03  0.50628998765E+03  0.44977060392E+03 0.  0.
      99925    2    3    3    0    0 -0.88801412866E+02  0.49145023404E+01 -0.21631932565E+03  0.35195996798E+03  0.26300556106E+03 0.  0.
         25    1    4    4    0    0 -0.85430213675E+02  0.69550935563E+01 -0.10478497760E+03  0.18432062925E+03  0.12509000000E+03 0.  0.
         25    1    3    3    0    0  0.88801412866E+02 -0.49145023404E+01 -0.16137026027E+02  0.15433001966E+03  0.12509000000E+03 0.  0.
         25    1    4    4    0    0 -0.33711991910E+01 -0.20405912159E+01 -0.11153434805E+03  0.16763933873E+03  0.12509000000E+03 0.  0.
<mgrwt>
<rscale>  2 0.44977060E+03</rscale>
<asrwt>0</asrwt>
<pdfrwt beam="1">  1       21 0.20134826E-01 0.44977060E+03</pdfrwt>
<pdfrwt beam="2">  1       21 0.54319583E-01 0.44977060E+03</pdfrwt>
<totfact> 0.67593027E+04</totfact>
</mgrwt>
</event>
<event>
 6    0  0.4784406E-002  0.4469226E+03  0.7546771E-02  0.1028644E+00
         21   -1    0    0  502  501  0.00000000000E+00  0.00000000000E+00  0.60475167323E+02  0.60475167323E+02  0.00000000000E+00 0.  1.
         21   -1    0    0  501  502 -0.00000000000E+00 -0.00000000000E+00 -0.82571015332E+03  0.82571015332E+03  0.00000000000E+00 0.  1.
      99926    2    1    2    0    0  0.00000000000E+00  0.00000000000E+00 -0.76523498599E+03  0.88618532064E+03  0.44692263170E+03 0.  0.
         25    1    3    3    0    0 -0.31921630938E+02 -0.84815191293E+02 -0.18781192274E+03  0.24317366966E+03  0.12509000000E+03 0.  0.
         25    1    3    3    0    0  0.28102682908E+02  0.88818998028E+02 -0.35533987939E+03  0.38806251196E+03  0.12509000000E+03 0.  0.
         25    1    3    3    0    0  0.38189480299E+01 -0.40038067348E+01 -0.22208318386E+03  0.25494913902E+03  0.12509000000E+03 0.  0.
<mgrwt>
<rscale>  2 0.44692263E+03</rscale>
<asrwt>0</asrwt>
<pdfrwt beam="1">  1       21 0.88934079E-02 0.44692263E+03</pdfrwt>
<pdfrwt beam="2">  1       21 0.12142795E+00 0.44692263E+03</pdfrwt>
<totfact> 0.46722366E+04</totfact>
</mgrwt>
</event>
<event>
 7    0  0.4784406E-002  0.4551915E+03  0.7546771E-02  0.1026185E+00
         21   -1    0    0  502  501  0.00000000000E+00  0.00000000000E+00  0.48555377496E+03  0.48555377496E+03  0.00000000000E+00 0.  1.
         21   -1    0    0  501  502 -0.00000000000E+00 -0.00000000000E+00 -0.10668197317E+03  0.10668197317E+03  0.00000000000E+00 0.  1.
      99926    2    1    2    0    0  0.00000000000E+00  0.00000000000E+00  0.37887180179E+03  0.59223574812E+03  0.45519154118E+03 0.  0.
      99925    2    3    3    0    0  0.50163472047E+02  0.89406828534E+02  0.30131809758E+03  0.41287008794E+03  0.26298128958E+03 0.  0.
         25    1    4    4    0    0  0.37667176641E+02  0.35055594550E+02  0.20434849887E+03  0.24505821348E+03  0.12509000000E+03 0.  0.
         25    1    3    3    0    0 -0.50163472047E+02 -0.89406828534E+02  0.77553704214E+02  0.17936566018E+03  0.12509000000E+03 0.  0.
         25    1    4    4    0    0  0.12496295405E+02  0.54351233983E+02  0.96969598710E+02  0.16781187446E+03  0.12509000000E+03 0.  0.
<mgrwt>
<rscale>  2 0.45519154E+03</rscale>
<asrwt>0</asrwt>
<pdfrwt beam="1">  1       21 0.71404966E-01 0.45519154E+03</pdfrwt>
<pdfrwt beam="2">  1       21 0.15688526E-01 0.45519154E+03</pdfrwt>
<totfact> 0.59069272E+04</totfact>
</mgrwt>
</event>
<event>
 7    0  0.4784406E-002  0.4575979E+03  0.7546771E-02  0.1025480E+00
         21   -1    0    0  502  501  0.00000000000E+00  0.00000000000E+00  0.21150515305E+03  0.21150515305E+03  0.00000000000E+00 0. -1.
         21   -1    0    0  501  502 -0.00000000000E+00 -0.00000000000E+00 -0.24750680532E+03  0.24750680532E+03  0.00000000000E+00 0. -1.
      99926    2    1    2    0    0  0.00000000000E+00 -0.35527136788E-14 -0.36001652274E+02  0.45901195838E+03  0.45759792282E+03 0.  0.
      99925    2    3    3    0    0  0.17148800807E+02  0.30026834947E+02  0.88008380678E+02  0.27950795129E+03  0.26302761752E+03 0.  0.
         25    1    4    4    0    0  0.15141652798E+02 -0.17997747677E+02  0.18730797845E+02  0.12865278644E+03  0.12509000000E+03 0.  0.
         25    1    3    3    0    0 -0.17148800807E+02 -0.30026834947E+02 -0.12401003295E+03  0.17950400708E+03  0.12509000000E+03 0.  0.
         25    1    4    4    0    0  0.20071480087E+01  0.48024582624E+02  0.69277582834E+02  0.15085516485E+03  0.12509000000E+03 0.  0.
<mgrwt>
<rscale>  2 0.45759792E+03</rscale>
<asrwt>0</asrwt>
<pdfrwt beam="1">  1       21 0.31103699E-01 0.45759792E+03</pdfrwt>
<pdfrwt beam="2">  1       21 0.36398060E-01 0.45759792E+03</pdfrwt>
<totfact> 0.66856320E+04</totfact>
</mgrwt>
</event>
<event>
 7    0  0.4784406E-002  0.4601574E+03  0.7546771E-02  0.1024736E+00
         21   -1    0    0  502  501  0.00000000000E+00  0.00000000000E+00  0.59206587671E+02  0.59206587671E+02  0.00000000000E+00 0. -1.
         21   -1    0    0  501  502 -0.00000000000E+00 -0.00000000000E+00 -0.89409311731E+03  0.89409311731E+03  0.00000000000E+00 0. -1.
      99926    2    1    2    0    0 -0.71054273576E-14  0.14210854715E-13 -0.83488652964E+03  0.95329970498E+03  0.46015737541E+03 0.  0.
      99925    2    3    3    0    0  0.43639786366E+02 -0.10057686602E+03 -0.61296500464E+03  0.67596090803E+03  0.26301504776E+03 0.  0.
         25    1    4    4    0    0  0.12969731998E+02 -0.49795607834E+02 -0.39720166421E+03  0.41960038925E+03  0.12509000000E+03 0.  0.
         25    1    3    3    0    0 -0.43639786366E+02  0.10057686602E+03 -0.22192152500E+03  0.27733879694E+03  0.12509000000E+03 0.  0.
         25    1    4    4    0    0  0.30670054367E+02 -0.50781258191E+02 -0.21576334042E+03  0.25636051878E+03  0.12509000000E+03 0.  0.
<mgrwt>
<rscale>  2 0.46015738E+03</rscale>
<asrwt>0</asrwt>
<pdfrwt beam="1">  1       21 0.87068511E-02 0.46015738E+03</pdfrwt>
<pdfrwt beam="2">  1       21 0.13148428E+00 0.46015738E+03</pdfrwt>
<totfact> 0.39394603E+04</totfact>
</mgrwt>
</event>
<event>
 7    0  0.4784406E-002  0.4548173E+03  0.7546771E-02  0.1026295E+00
         21   -1    0    0  502  501  0.00000000000E+00  0.00000000000E+00  0.16445379834E+03  0.16445379834E+03  0.00000000000E+00 0.  1.
         21   -1    0    0  501  502 -0.00000000000E+00 -0.00000000000E+00 -0.31446330508E+03  0.31446330508E+03  0.00000000000E+00 0.  1.
      99926    2    1    2    0    0  0.00000000000E+00  0.14210854715E-13 -0.15000950675E+03  0.47891710342E+03  0.45481725983E+03 0.  0.
      99925    2    3    3    0    0  0.22260932558E+02 -0.10256377599E+03 -0.49652433092E+02  0.28725613297E+03  0.26274673081E+03 0.  0.
         25    1    4    4    0    0  0.51852282810E-01 -0.90780369671E+02 -0.16566724762E+02  0.15544466114E+03  0.12509000000E+03 0.  0.
         25    1    4    4    0    0  0.22209080275E+02 -0.11783406321E+02 -0.33085708330E+02  0.13181147183E+03  0.12509000000E+03 0.  0.
         25    1    3    3    0    0 -0.22260932558E+02  0.10256377599E+03 -0.10035707365E+03  0.19166097046E+03  0.12509000000E+03 0.  0.
<mgrwt>
<rscale>  2 0.45481726E+03</rscale>
<asrwt>0</asrwt>
<pdfrwt beam="1">  1       21 0.24184383E-01 0.45481726E+03</pdfrwt>
<pdfrwt beam="2">  1       21 0.46244603E-01 0.45481726E+03</pdfrwt>
<totfact> 0.66875954E+04</totfact>
</mgrwt>
</event>
<event>
 7    0  0.4784406E-002  0.4610892E+03  0.7546771E-02  0.1024466E+00
         21   -1    0    0  502  501  0.00000000000E+00  0.00000000000E+00  0.26727403156E+03  0.26727403156E+03  0.00000000000E+00 0. -1.
         21   -1    0    0  501  502 -0.00000000000E+00 -0.00000000000E+00 -0.19886258941E+03  0.19886258941E+03  0.00000000000E+00 0. -1.
      99926    2    1    2    0    0  0.00000000000E+00 -0.35527136788E-14  0.68411442159E+02  0.46613662097E+03  0.46108917141E+03 0.  0.
      99925    2    3    3    0    0  0.95525505084E+02  0.31434241340E+02  0.10673947216E+03  0.30112213787E+03  0.26299808620E+03 0.  0.
         25    1    4    4    0    0  0.69152594759E+02  0.16104522715E+02  0.18476522674E+02  0.14501836782E+03  0.12509000000E+03 0.  0.
         25    1    4    4    0    0  0.26372910325E+02  0.15329718625E+02  0.88262949488E+02  0.15610377005E+03  0.12509000000E+03 0.  0.
         25    1    3    3    0    0 -0.95525505084E+02 -0.31434241340E+02 -0.38328030003E+02  0.16501448310E+03  0.12509000000E+03 0.  0.
<mgrwt>
<rscale>  2 0.46108917E+03</rscale>
<asrwt>0</asrwt>
<pdfrwt beam="1">  1       21 0.39305005E-01 0.46108917E+03</pdfrwt>
<pdfrwt beam="2">  1       21 0.29244498E-01 0.46108917E+03</pdfrwt>
<totfact> 0.64544030E+04</totfact>
</mgrwt>
</event>
<event>
 7    0  0.4784406E-002  0.4474908E+03  0.7546771E-02  0.1028473E+00
         21   -1    0    0  502  501  0.00000000000E+00  0.00000000000E+00  0.12944372369E+03  0.12944372369E+03  0.00000000000E+00 0.  1.
         21   -1    0    0  501  502 -0.00000000000E+00 -0.00000000000E+00 -0.38674727695E+03  0.38674727695E+03  0.00000000000E+00 0.  1.
      99926    2    1    2    0    0  0.00000000000E+00  0.00000000000E+00 -0.25730355326E+03  0.51619100063E+03  0.44749081623E+03 0.  0.
      99925    2    3    3    0    0 -0.41093556921E+02  0.54936916494E+02 -0.25624624775E+03  0.37351874962E+03  0.26295887819E+03 0.  0.
         25    1    3    3    0    0  0.41093556921E+02 -0.54936916494E+02 -0.10573055107E+01  0.14267225101E+03  0.12509000000E+03 0.  0.
         25    1    4    4    0    0 -0.28273009453E+02  0.27887215033E+02 -0.74653841246E+02  0.15098928418E+03  0.12509000000E+03 0.  0.
         25    1    4    4    0    0 -0.12820547468E+02  0.27049701461E+02 -0.18159240650E+03  0.22252946543E+03  0.12509000000E+03 0.  0.
<mgrwt>
<rscale>  2 0.44749082E+03</rscale>
<asrwt>0</asrwt>
<pdfrwt beam="1">  1       21 0.19035842E-01 0.44749082E+03</pdfrwt>
<pdfrwt beam="2">  1       21 0.56874599E-01 0.44749082E+03</pdfrwt>
<totfact> 0.68115936E+04</totfact>
</mgrwt>
</event>
<event>
 7    0  0.4784406E-002  0.4590431E+03  0.7546771E-02  0.1025059E+00
         21   -1    0    0  502  501  0.00000000000E+00  0.00000000000E+00  0.24588531138E+03  0.24588531138E+03  0.00000000000E+00 0.  1.
         21   -1    0    0  501  502 -0.00000000000E+00 -0.00000000000E+00 -0.21424684356E+03  0.21424684356E+03  0.00000000000E+00 0.  1.
      99926    2    1    2    0    0  0.00000000000E+00  0.00000000000E+00  0.31638467824E+02  0.46013215494E+03  0.45904314324E+03 0.  0.
      99925    2    3    3    0    0  0.99356312603E+02 -0.46190423568E+02  0.60740412585E+02  0.29131372178E+03  0.26300010398E+03 0.  0.
         25    1    4    4    0    0  0.12524003648E+02 -0.40895831111E+02  0.21074413059E+02  0.13386918486E+03  0.12509000000E+03 0.  0.
         25    1    3    3    0    0 -0.99356312603E+02  0.46190423568E+02 -0.29101944761E+02  0.16881843315E+03  0.12509000000E+03 0.  0.
         25    1    4    4    0    0  0.86832308955E+02 -0.52945924570E+01  0.39665999526E+02  0.15744453692E+03  0.12509000000E+03 0.  0.
<mgrwt>
<rscale>  2 0.45904314E+03</rscale>
<asrwt>0</asrwt>
<pdfrwt beam="1">  1       21 0.36159605E-01 0.45904314E+03</pdfrwt>
<pdfrwt beam="2">  1       21 0.31506889E-01 0.45904314E+03</pdfrwt>
<totfact> 0.66016003E+04</totfact>
</mgrwt>
</event>
<event>
 7    0  0.4784406E-002  0.4546111E+03  0.7546771E-02  0.1026356E+00
         21   -1    0    0  502  501  0.00000000000E+00  0.00000000000E+00  0.20007134806E+03  0.20007134806E+03  0.00000000000E+00 0. -1.
         21   -1    0    0  501  502 -0.00000000000E+00 -0.00000000000E+00 -0.25824691444E+03  0.25824691444E+03  0.00000000000E+00 0. -1.
      99926    2    1    2    0    0 -0.88817841970E-15 -0.17763568394E-14 -0.58175566386E+02  0.45831826250E+03  0.45461107907E+03 0.  0.
      99925    2    3    3    0    0  0.56411258131E+01  0.97626052949E+01 -0.14977036041E+03  0.30286973354E+03  0.26300529249E+03 0.  0.
         25    1    4    4    0    0  0.40822960243E+02  0.18969610811E+02 -0.73188286687E+02  0.15175768061E+03  0.12509000000E+03 0.  0.
         25    1    4    4    0    0 -0.35181834430E+02 -0.92070055163E+01 -0.76582073720E+02  0.15111205293E+03  0.12509000000E+03 0.  0.
         25    1    3    3    0    0 -0.56411258131E+01 -0.97626052949E+01  0.91594794021E+02  0.15544852896E+03  0.12509000000E+03 0.  0.
<mgrwt>
<rscale>  2 0.45461108E+03</rscale>
<asrwt>0</asrwt>
<pdfrwt beam="1">  1       21 0.29422257E-01 0.45461108E+03</pdfrwt>
<pdfrwt beam="2">  1       21 0.37977487E-01 0.45461108E+03</pdfrwt>
<totfact> 0.68515543E+04</totfact>
</mgrwt>
</event>
<event>
 7    0  0.4784406E-002  0.4599032E+03  0.7546771E-02  0.1024809E+00
         21   -1    0    0  502  501  0.00000000000E+00  0.00000000000E+00  0.35359320116E+03  0.35359320116E+03  0.00000000000E+00 0.  1.
         21   -1    0    0  501  502 -0.00000000000E+00 -0.00000000000E+00 -0.14954398097E+03  0.14954398097E+03  0.00000000000E+00 0.  1.
      99926    2    1    2    0    0  0.71054273576E-14 -0.35527136788E-14  0.20404922019E+03  0.50313718214E+03  0.45990318524E+03 0.  0.
      99925    2    3    3    0    0 -0.63718275696E+02  0.18767649181E+02  0.21590381832E+02  0.27215887340E+03  0.26304384515E+03 0.  0.
         25    1    3    3    0    0  0.63718275696E+02 -0.18767649181E+02  0.18245883836E+03  0.23097830874E+03  0.12509000000E+03 0.  0.
         25    1    4    4    0    0 -0.31563200421E+02  0.49648079402E+02  0.49435620191E+01  0.13832250111E+03  0.12509000000E+03 0.  0.
         25    1    4    4    0    0 -0.32155075275E+02 -0.30880430221E+02  0.16646819813E+02  0.13383637229E+03  0.12509000000E+03 0.  0.
<mgrwt>
<rscale>  2 0.45990319E+03</rscale>
<asrwt>0</asrwt>
<pdfrwt beam="1">  1       21 0.51999000E-01 0.45990319E+03</pdfrwt>
<pdfrwt beam="2">  1       21 0.21991762E-01 0.45990319E+03</pdfrwt>
<totfact> 0.62579440E+04</totfact>
</mgrwt>
</event>
<event>
 7    0  0.4784406E-002  0.4559725E+03  0.7546771E-02  0.1025956E+00
         21   -1    0    0  502  501  0.00000000000E+00  0.00000000000E+00  0.75497867005E+02  0.75497867005E+02  0.00000000000E+00 0.  1.
         21   -1    0    0  501  502 -0.00000000000E+00 -0.00000000000E+00 -0.68846628001E+03  0.68846628001E+03  0.00000000000E+00 0.  1.
      99926    2    1    2    0    0  0.00000000000E+00  0.71054273576E-14 -0.61296841301E+03  0.76396414702E+03  0.45597252394E+03 0.  0.
      99925    2    3    3    0    0 -0.53122630646E+02  0.35288691648E+02 -0.54369838553E+03  0.60739738665E+03  0.26316600319E+03 0.  0.
         25    1    4    4    0    0 -0.39167355567E+02  0.19894426064E+02 -0.19023175476E+03  0.23187388501E+03  0.12509000000E+03 0.  0.
         25    1    4    4    0    0 -0.13955275079E+02  0.15394265584E+02 -0.35346663077E+03  0.37552350164E+03  0.12509000000E+03 0.  0.
         25    1    3    3    0    0  0.53122630646E+02 -0.35288691648E+02 -0.69270027472E+02  0.15656676036E+03  0.12509000000E+03 0.  0.
<mgrwt>
<rscale>  2 0.45597252E+03</rscale>
<asrwt>0</asrwt>
<pdfrwt beam="1">  1       21 0.11102627E-01 0.45597252E+03</pdfrwt>
<pdfrwt beam="2">  1       21 0.10124504E+00 0.45597252E+03</pdfrwt>
<totfact> 0.49180393E+04</totfact>
</mgrwt>
</event>
<event>
 7    0  0.4784406E-002  0.4630184E+03  0.7546771E-02  0.1023909E+00
         21   -1    0    0  502  501  0.00000000000E+00  0.00000000000E+00  0.14600397619E+03  0.14600397619E+03  0.00000000000E+00 0. -1.
         21   -1    0    0  501  502 -0.00000000000E+00 -0.00000000000E+00 -0.36708935145E+03  0.36708935145E+03  0.00000000000E+00 0. -1.
      99926    2    1    2    0    0 -0.71054273576E-14  0.14210854715E-13 -0.22108537527E+03  0.51309332764E+03  0.46301837945E+03 0.  0.
      99925    2    3    3    0    0  0.59593484660E+02 -0.86022390018E+02 -0.20433851757E+03  0.34914455411E+03  0.26305219046E+03 0.  0.
         25    1    4    4    0    0  0.99230790029E+00 -0.34075352285E+02 -0.13112981558E+03  0.18440350035E+03  0.12509000000E+03 0.  0.
         25    1    3    3    0    0 -0.59593484660E+02  0.86022390018E+02 -0.16746857700E+02  0.16394877353E+03  0.12509000000E+03 0.  0.
         25    1    4    4    0    0  0.58601176759E+02 -0.51947037733E+02 -0.73208701985E+02  0.16474105376E+03  0.12509000000E+03 0.  0.
<mgrwt>
<rscale>  2 0.46301838E+03</rscale>
<asrwt>0</asrwt>
<pdfrwt beam="1">  1       21 0.21471173E-01 0.46301838E+03</pdfrwt>
<pdfrwt beam="2">  1       21 0.53983728E-01 0.46301838E+03</pdfrwt>
<totfact> 0.60422523E+04</totfact>
</mgrwt>
</event>
<event>
 7    0  0.4784406E-002  0.4454158E+03  0.7546771E-02  0.1029098E+00
         21   -1    0    0  502  501  0.00000000000E+00  0.00000000000E+00  0.32416639603E+03  0.32416639603E+03  0.00000000000E+00 0.  1.
         21   -1    0    0  501  502 -0.00000000000E+00 -0.00000000000E+00 -0.15300418390E+03  0.15300418390E+03  0.00000000000E+00 0.  1.
      99926    2    1    2    0    0  0.00000000000E+00  0.00000000000E+00  0.17116221214E+03  0.47717057993E+03  0.44541582762E+03 0.  0.
      99925    2    3    3    0    0  0.17738554850E+02 -0.10197398758E+03  0.10760627705E+03  0.30281400433E+03  0.26344612331E+03 0.  0.
         25    1    3    3    0    0 -0.17738554850E+02  0.10197398758E+03  0.63555935081E+02  0.17435657560E+03  0.12509000000E+03 0.  0.
         25    1    4    4    0    0  0.14825241577E+02 -0.44887747888E+02  0.96356442023E+02  0.16482345015E+03  0.12509000000E+03 0.  0.
         25    1    4    4    0    0  0.29133132728E+01 -0.57086239694E+02  0.11249835031E+02  0.13799055419E+03  0.12509000000E+03 0.  0.
<mgrwt>
<rscale>  2 0.44541583E+03</rscale>
<asrwt>0</asrwt>
<pdfrwt beam="1">  1       21 0.47671529E-01 0.44541583E+03</pdfrwt>
<pdfrwt beam="2">  1       21 0.22500615E-01 0.44541583E+03</pdfrwt>
<totfact> 0.72248752E+04</totfact>
</mgrwt>
</event>
<event>
 7    0  0.4784406E-002  0.4565278E+03  0.7546771E-02  0.1025793E+00
         21   -1    0    0  502  501  0.00000000000E+00  0.00000000000E+00  0.18624992596E+03  0.18624992596E+03  0.00000000000E+00 0.  1.
         21   -1    0    0  501  502 -0.00000000000E+00 -0.00000000000E+00 -0.27975529827E+03  0.27975529827E+03  0.00000000000E+00 0.  1.
      99926    2    1    2    0    0  0.14210854715E-13  0.00000000000E+00 -0.93505372311E+02  0.46600522423E+03  0.45652778049E+03 0.  0.
      99925    2    3    3    0    0 -0.11357083162E+03 -0.48352751811E+01 -0.43879012654E+02  0.28984621267E+03  0.26299001039E+03 0.  0.
         25    1    4    4    0    0 -0.93528424311E+02 -0.29304331840E+01 -0.46917100127E+02  0.16311001188E+03  0.12509000000E+03 0.  0.
         25    1    4    4    0    0 -0.20042407308E+02 -0.19048419971E+01  0.30380874728E+01  0.12673620078E+03  0.12509000000E+03 0.  0.
         25    1    3    3    0    0  0.11357083162E+03  0.48352751811E+01 -0.49626359657E+02  0.17615901156E+03  0.12509000000E+03 0.  0.
<mgrwt>
<rscale>  2 0.45652778E+03</rscale>
<asrwt>0</asrwt>
<pdfrwt beam="1">  1       21 0.27389695E-01 0.45652778E+03</pdfrwt>
<pdfrwt beam="2">  1       21 0.41140484E-01 0.45652778E+03</pdfrwt>
<totfact> 0.66919309E+04</totfact>
</mgrwt>
</event>
<event>
 6    0  0.4784406E-002  0.4566296E+03  0.7546771E-02  0.1025763E+00
         21   -1    0    0  502  501  0.00000000000E+00  0.00000000000E+00  0.13890342350E+04  0.13890342350E+04  0.00000000000E+00 0. -1.
         21   -1    0    0  501  502 -0.00000000000E+00 -0.00000000000E+00 -0.37527975521E+02  0.37527975521E+02  0.00000000000E+00 0. -1.
      99926    2    1    2    0    0  0.22204460493E-15  0.00000000000E+00  0.13515062595E+04  0.14265622105E+04  0.45662957753E+03 0.  0.
         25    1    3    3    0    0 -0.75848573508E+01 -0.63925619613E+02  0.51223883604E+03  0.53120631412E+03  0.12509000000E+03 0.  0.
         25    1    3    3    0    0  0.57249593016E+01 -0.44694531523E+02  0.24896076070E+03  0.28223987098E+03  0.12509000000E+03 0.  0.
         25    1    3    3    0    0  0.18598980492E+01  0.10862015114E+03  0.59030666272E+03  0.61311602540E+03  0.12509000000E+03 0.  0.
<mgrwt>
<rscale>  2 0.45662958E+03</rscale>
<asrwt>0</asrwt>
<pdfrwt beam="1">  1       21 0.20426971E+00 0.45662958E+03</pdfrwt>
<pdfrwt beam="2">  1       21 0.55188208E-02 0.45662958E+03</pdfrwt>
<totfact> 0.25310699E+04</totfact>
</mgrwt>
</event>
<event>
 7    0  0.4784406E-002  0.5084237E+03  0.7546771E-02  0.1011603E+00
         21   -1    0    0  502  501  0.00000000000E+00  0.00000000000E+00  0.13043093117E+03  0.13043093117E+03  0.00000000000E+00 0.  1.
         21   -1    0    0  501  502 -0.00000000000E+00 -0.00000000000E+00 -0.49546275601E+03  0.49546275601E+03  0.00000000000E+00 0.  1.
      99926    2    1    2    0    0  0.00000000000E+00  0.00000000000E+00 -0.36503182484E+03  0.62589368718E+03  0.50842371552E+03 0.  0.
      99925    2    3    3    0    0  0.68283067726E+01 -0.14189940682E+03 -0.30517078069E+03  0.42736681208E+03  0.26330803112E+03 0.  0.
         25    1    4    4    0    0  0.19529984320E+02 -0.10966429210E+03 -0.14789316761E+03  0.22344479044E+03  0.12509000000E+03 0.  0.
         25    1    4    4    0    0 -0.12701677547E+02 -0.32235114724E+02 -0.15727761308E+03  0.20392202164E+03  0.12509000000E+03 0.  0.
         25    1    3    3    0    0 -0.68283067726E+01  0.14189940682E+03 -0.59861044154E+02  0.19852687510E+03  0.12509000000E+03 0.  0.
<mgrwt>
<rscale>  2 0.50842372E+03</rscale>
<asrwt>0</asrwt>
<pdfrwt beam="1">  1       21 0.19181020E-01 0.50842372E+03</pdfrwt>
<pdfrwt beam="2">  1       21 0.72862169E-01 0.50842372E+03</pdfrwt>
<totfact> 0.38237937E+04</totfact>
</mgrwt>
</event>
<event>
 7    0  0.4784406E-002  0.4449961E+03  0.7546771E-02  0.1029225E+00
         21   -1    0    0  502  501  0.00000000000E+00  0.00000000000E+00  0.68075922828E+02  0.68075922828E+02  0.00000000000E+00 0. -1.
         21   -1    0    0  501  502 -0.00000000000E+00 -0.00000000000E+00 -0.72720833522E+03  0.72720833522E+03  0.00000000000E+00 0. -1.
      99926    2    1    2    0    0  0.00000000000E+00 -0.71054273576E-14 -0.65913241239E+03  0.79528425805E+03  0.44499608317E+03 0.  0.
      99925    2    3    3    0    0 -0.69238311294E+02  0.35243579165E+02 -0.54098709678E+03  0.60649369333E+03  0.26292871192E+03 0.  0.
         25    1    3    3    0    0  0.69238311294E+02 -0.35243579165E+02 -0.11814531561E+03  0.18879056471E+03  0.12509000000E+03 0.  0.
         25    1    4    4    0    0 -0.51250139384E+02 -0.15383722695E+02 -0.23409933272E+03  0.27076418041E+03  0.12509000000E+03 0.  0.
         25    1    4    4    0    0 -0.17988171911E+02  0.50627301860E+02 -0.30688776406E+03  0.33572951293E+03  0.12509000000E+03 0.  0.
<mgrwt>
<rscale>  2 0.44499608E+03</rscale>
<asrwt>0</asrwt>
<pdfrwt beam="1">  1       21 0.10011165E-01 0.44499608E+03</pdfrwt>
<pdfrwt beam="2">  1       21 0.10694240E+00 0.44499608E+03</pdfrwt>
<totfact> 0.51954300E+04</totfact>
</mgrwt>
</event>
<event>
 7    0  0.4784406E-002  0.4801862E+03  0.7546771E-02  0.1019084E+00
         21   -1    0    0  502  501  0.00000000000E+00  0.00000000000E+00  0.55413853235E+03  0.55413853235E+03  0.00000000000E+00 0.  1.
         21   -1    0    0  501  502 -0.00000000000E+00 -0.00000000000E+00 -0.10402576847E+03  0.10402576847E+03  0.00000000000E+00 0.  1.
      99926    2    1    2    0    0  0.00000000000E+00  0.00000000000E+00  0.45011276388E+03  0.65816430082E+03  0.48018615835E+03 0.  0.
      99925    2    3    3    0    0  0.64481216691E+02 -0.25945669572E+02  0.43661264116E+03  0.51442576566E+03  0.26300620693E+03 0.  0.
         25    1    3    3    0    0 -0.64481216691E+02  0.25945669572E+02  0.13500122719E+02  0.14373853516E+03  0.12509000000E+03 0.  0.
         25    1    4    4    0    0 -0.43542760086E+01  0.51833080965E+01  0.21904037079E+03  0.25233314990E+03  0.12509000000E+03 0.  0.
         25    1    4    4    0    0  0.68835492699E+02 -0.31128977668E+02  0.21757227036E+03  0.26209261576E+03  0.12509000000E+03 0.  0.
<mgrwt>
<rscale>  2 0.48018616E+03</rscale>
<asrwt>0</asrwt>
<pdfrwt beam="1">  1       21 0.81490959E-01 0.48018616E+03</pdfrwt>
<pdfrwt beam="2">  1       21 0.15297907E-01 0.48018616E+03</pdfrwt>
<totfact> 0.45497410E+04</totfact>
</mgrwt>
</event>
<event>
 7    0  0.4784406E-002  0.4699241E+03  0.7546771E-02  0.1021942E+00
         21   -1    0    0  502  501  0.00000000000E+00  0.00000000000E+00  0.41297310662E+02  0.41297310662E+02  0.00000000000E+00 0.  1.
         21   -1    0    0  501  502 -0.00000000000E+00 -0.00000000000E+00 -0.13368225378E+04  0.13368225378E+04  0.00000000000E+00 0.  1.
      99926    2    1    2    0    0  0.00000000000E+00  0.14210854715E-13 -0.12955252271E+04  0.13781198484E+04  0.46992414555E+03 0.  0.
      99925    2    3    3    0    0 -0.46354528368E+02 -0.82816998212E+02 -0.55883618138E+03  0.62488306250E+03  0.26300868176E+03 0.  0.
         25    1    4    4    0    0 -0.25788894442E+02  0.84063846188E+00 -0.25557477737E+03  0.28571270304E+03  0.12509000000E+03 0.  0.
         25    1    3    3    0    0  0.46354528368E+02  0.82816998212E+02 -0.73668904573E+03  0.75323678594E+03  0.12509000000E+03 0.  0.
         25    1    4    4    0    0 -0.20565633926E+02 -0.83657636674E+02 -0.30326140401E+03  0.33917035946E+03  0.12509000000E+03 0.  0.
<mgrwt>
<rscale>  2 0.46992415E+03</rscale>
<asrwt>0</asrwt>
<pdfrwt beam="1">  1       21 0.60731353E-02 0.46992415E+03</pdfrwt>
<pdfrwt beam="2">  1       21 0.19659151E+00 0.46992415E+03</pdfrwt>
<totfact> 0.24012598E+04</totfact>
</mgrwt>
</event>
<event>
 7    0  0.4784406E-002  0.4559531E+03  0.7546771E-02  0.1025961E+00
         21   -1    0    0  502  501  0.00000000000E+00  0.00000000000E+00  0.41849840999E+02  0.41849840999E+02  0.00000000000E+00 0. -1.
         21   -1    0    0  501  502 -0.00000000000E+00 -0.00000000000E+00 -0.12418999120E+04  0.12418999120E+04  0.00000000000E+00 0. -1.
      99926    2    1    2    0    0  0.00000000000E+00  0.00000000000E+00 -0.12000500710E+04  0.12837497530E+04  0.45595312853E+03 0.  0.
      99925    2    3    3    0    0 -0.56106418852E+02 -0.93277970354E+02 -0.65882959692E+03  0.71769691125E+03  0.26302796173E+03 0.  0.
         25    1    4    4    0    0 -0.53960090670E+02 -0.31880266301E+02 -0.26055707640E+03  0.29574573695E+03  0.12509000000E+03 0.  0.
         25    1    3    3    0    0  0.56106418852E+02  0.93277970354E+02 -0.54122047410E+03  0.56605284177E+03  0.12509000000E+03 0.  0.
         25    1    4    4    0    0 -0.21463281817E+01 -0.61397704053E+02 -0.39827252052E+03  0.42195117429E+03  0.12509000000E+03 0.  0.
<mgrwt>
<rscale>  2 0.45595313E+03</rscale>
<asrwt>0</asrwt>
<pdfrwt beam="1">  1       21 0.61543879E-02 0.45595313E+03</pdfrwt>
<pdfrwt beam="2">  1       21 0.18263236E+00 0.45595313E+03</pdfrwt>
<totfact> 0.29371973E+04</totfact>
</mgrwt>
</event>
<event>
 7    0  0.4784406E-002  0.4525738E+03  0.7546771E-02  0.1026957E+00
         21   -1    0    0  502  501  0.00000000000E+00  0.00000000000E+00  0.77877617371E+02  0.77877617371E+02  0.00000000000E+00 0. -1.
         21   -1    0    0  501  502 -0.00000000000E+00 -0.00000000000E+00 -0.65751570435E+03  0.65751570435E+03  0.00000000000E+00 0. -1.
      99926    2    1    2    0    0  0.35527136788E-14  0.00000000000E+00 -0.57963808698E+03  0.73539332172E+03  0.45257377935E+03 0.  0.
      99925    2    3    3    0    0 -0.25331251436E+02 -0.42485251592E+02 -0.20463853656E+03  0.33699799065E+03  0.26314263462E+03 0.  0.
         25    1    4    4    0    0  0.88775742290E+01 -0.55622260917E+02 -0.11172166717E+03  0.17692339090E+03  0.12509000000E+03 0.  0.
         25    1    3    3    0    0  0.25331251436E+02  0.42485251592E+02 -0.37499955042E+03  0.39839533107E+03  0.12509000000E+03 0.  0.
         25    1    4    4    0    0 -0.34208825665E+02  0.13137009325E+02 -0.92916869392E+02  0.16007459975E+03  0.12509000000E+03 0.  0.
<mgrwt>
<rscale>  2 0.45257378E+03</rscale>
<asrwt>0</asrwt>
<pdfrwt beam="1">  1       21 0.11452591E-01 0.45257378E+03</pdfrwt>
<pdfrwt beam="2">  1       21 0.96693487E-01 0.45257378E+03</pdfrwt>
<totfact> 0.52008142E+04</totfact>
</mgrwt>
</event>
<event>
 7    0  0.4784406E-002  0.4514953E+03  0.7546771E-02  0.1027277E+00
         21   -1    0    0  502  501  0.00000000000E+00  0.00000000000E+00  0.71188033242E+03  0.71188033242E+03  0.00000000000E+00 0. -1.
         21   -1    0    0  501  502 -0.00000000000E+00 -0.00000000000E+00 -0.71587870471E+02  0.71587870471E+02  0.00000000000E+00 0. -1.
      99926    2    1    2    0    0  0.00000000000E+00  0.35527136788E-14  0.64029246195E+03  0.78346820289E+03  0.45149528028E+03 0.  0.
      99925    2    3    3    0    0 -0.70885294204E+02 -0.17004944937E+02  0.26153612929E+03  0.37798360304E+03  0.26297635665E+03 0.  0.
         25    1    4    4    0    0 -0.52127180247E+02 -0.45175947533E+02  0.12619415901E+03  0.19060583156E+03  0.12509000000E+03 0.  0.
         25    1    3    3    0    0  0.70885294204E+02  0.17004944937E+02  0.37875633266E+03  0.40548459985E+03  0.12509000000E+03 0.  0.
         25    1    4    4    0    0 -0.18758113957E+02  0.28171002596E+02  0.13534197028E+03  0.18737777149E+03  0.12509000000E+03 0.  0.
<mgrwt>
<rscale>  2 0.45149528E+03</rscale>
<asrwt>0</asrwt>
<pdfrwt beam="1">  1       21 0.10468828E+00 0.45149528E+03</pdfrwt>
<pdfrwt beam="2">  1       21 0.10527628E-01 0.45149528E+03</pdfrwt>
<totfact> 0.49934376E+04</totfact>
</mgrwt>
</event>
<event>
 7    0  0.4784406E-002  0.4585639E+03  0.7546771E-02  0.1025199E+00
         21   -1    0    0  502  501  0.00000000000E+00  0.00000000000E+00  0.14395152385E+03  0.14395152385E+03  0.00000000000E+00 0. -1.
         21   -1    0    0  501  502 -0.00000000000E+00 -0.00000000000E+00 -0.36519384365E+03  0.36519384365E+03  0.00000000000E+00 0. -1.
      99926    2    1    2    0    0  0.00000000000E+00  0.14210854715E-13 -0.22124231980E+03  0.50914536750E+03  0.45856388996E+03 0.  0.
      99925    2    3    3    0    0 -0.49265822173E+02 -0.98846896329E+02 -0.17982809296E+03  0.33721376356E+03  0.26301549226E+03 0.  0.
         25    1    4    4    0    0  0.75040958781E+01 -0.57716951925E+02 -0.60444083122E+02  0.15062719966E+03  0.12509000000E+03 0.  0.
         25    1    4    4    0    0 -0.56769918051E+02 -0.41129944404E+02 -0.11938400984E+03  0.18658656390E+03  0.12509000000E+03 0.  0.
         25    1    3    3    0    0  0.49265822173E+02  0.98846896329E+02 -0.41414226842E+02  0.17193160394E+03  0.12509000000E+03 0.  0.
<mgrwt>
<rscale>  2 0.45856389E+03</rscale>
<asrwt>0</asrwt>
<pdfrwt beam="1">  1       21 0.21169342E-01 0.45856389E+03</pdfrwt>
<pdfrwt beam="2">  1       21 0.53704976E-01 0.45856389E+03</pdfrwt>
<totfact> 0.62836523E+04</totfact>
</mgrwt>
</event>
<event>
 7    0  0.4784406E-002  0.4423964E+03  0.7546771E-02  0.1030014E+00
         21   -1    0    0  502  501  0.00000000000E+00  0.00000000000E+00  0.56279731186E+03  0.56279731186E+03  0.00000000000E+00 0. -1.
         21   -1    0    0  501  502 -0.00000000000E+00 -0.00000000000E+00 -0.86938289326E+02  0.86938289326E+02  0.00000000000E+00 0. -1.
      99926    2    1    2    0    0 -0.14210854715E-13  0.88817841970E-15  0.47585902253E+03  0.64973560119E+03  0.44239636314E+03 0.  0.
      99925    2    3    3    0    0  0.99808099438E+02  0.28684455255E+01  0.32262995050E+03  0.42815820769E+03  0.26317196119E+03 0.  0.
         25    1    4    4    0    0  0.90253587318E+02 -0.59466804475E+01  0.15680735050E+03  0.22003891997E+03  0.12509000000E+03 0.  0.
         25    1    4    4    0    0  0.95545121203E+01  0.88151259731E+01  0.16582260000E+03  0.20811928771E+03  0.12509000000E+03 0.  0.
         25    1    3    3    0    0 -0.99808099438E+02 -0.28684455255E+01  0.15322907203E+03  0.22157739350E+03  0.12509000000E+03 0.  0.
<mgrwt>
<rscale>  2 0.44239636E+03</rscale>
<asrwt>0</asrwt>
<pdfrwt beam="1">  1       21 0.82764309E-01 0.44239636E+03</pdfrwt>
<pdfrwt beam="2">  1       21 0.12785043E-01 0.44239636E+03</pdfrwt>
<totfact> 0.61617278E+04</totfact>
</mgrwt>
</event>
<event>
 7    0  0.4784406E-002  0.4502573E+03  0.7546771E-02  0.1027645E+00
         21   -1    0    0  502  501  0.00000000000E+00  0.00000000000E+00  0.63690149189E+03  0.63690149189E+03  0.00000000000E+00 0.  1.
         21   -1    0    0  501  502 -0.00000000000E+00 -0.00000000000E+00 -0.79577319988E+02  0.79577319988E+02  0.00000000000E+00 0.  1.
      99926    2    1    2    0    0  0.00000000000E+00  0.00000000000E+00  0.55732417190E+03  0.71647881188E+03  0.45025732119E+03 0.  0.
      99925    2    3    3    0    0 -0.44369207973E+02 -0.81022335453E+02  0.44328424692E+03  0.52364246144E+03  0.26299668896E+03 0.  0.
         25    1    3    3    0    0  0.44369207973E+02  0.81022335453E+02  0.11403992498E+03  0.19283635043E+03  0.12509000000E+03 0.  0.
         25    1    4    4    0    0 -0.37156406397E+02 -0.10219281466E+02  0.25523647378E+03  0.28684176457E+03  0.12509000000E+03 0.  0.
         25    1    4    4    0    0 -0.72128015764E+01 -0.70803053987E+02  0.18804777313E+03  0.23680069688E+03  0.12509000000E+03 0.  0.
<mgrwt>
<rscale>  2 0.45025732E+03</rscale>
<asrwt>0</asrwt>
<pdfrwt beam="1">  1       21 0.93661981E-01 0.45025732E+03</pdfrwt>
<pdfrwt beam="2">  1       21 0.11702547E-01 0.45025732E+03</pdfrwt>
<totfact> 0.54004123E+04</totfact>
</mgrwt>
</event>
<event>
 7    0  0.4784406E-002  0.4694713E+03  0.7546771E-02  0.1022070E+00
         21   -1    0    0  502  501  0.00000000000E+00  0.00000000000E+00  0.50727014720E+03  0.50727014720E+03  0.00000000000E+00 0.  1.
         21   -1    0    0  501  502 -0.00000000000E+00 -0.00000000000E+00 -0.10862225509E+03  0.10862225509E+03  0.00000000000E+00 0.  1.
      99926    2    1    2    0    0  0.00000000000E+00  0.00000000000E+00  0.39864789211E+03  0.61589240229E+03  0.46947130829E+03 0.  0.
      99925    2    3    3    0    0  0.10395386288E+03 -0.68052943264E+02  0.27715196386E+03  0.40177473049E+03  0.26300592065E+03 0.  0.
         25    1    4    4    0    0  0.45230470617E+02 -0.23034676145E+02  0.18739555320E+03  0.23095669125E+03  0.12509000000E+03 0.  0.
         25    1    4    4    0    0  0.58723392261E+02 -0.45018267119E+02  0.89756410664E+02  0.17081803924E+03  0.12509000000E+03 0.  0.
         25    1    3    3    0    0 -0.10395386288E+03  0.68052943264E+02  0.12149592825E+03  0.21411767180E+03  0.12509000000E+03 0.  0.
<mgrwt>
<rscale>  2 0.46947131E+03</rscale>
<asrwt>0</asrwt>
<pdfrwt beam="1">  1       21 0.74598550E-01 0.46947131E+03</pdfrwt>
<pdfrwt beam="2">  1       21 0.15973861E-01 0.46947131E+03</pdfrwt>
<totfact> 0.51559810E+04</totfact>
</mgrwt>
</event>
<event>
 6    0  0.4784406E-002  0.4609649E+03  0.7546771E-02  0.1024502E+00
         21   -1    0    0  502  501  0.00000000000E+00  0.00000000000E+00  0.32356203393E+03  0.32356203393E+03  0.00000000000E+00 0. -1.
         21   -1    0    0  501  502 -0.00000000000E+00 -0.00000000000E+00 -0.16417918353E+03  0.16417918353E+03  0.00000000000E+00 0. -1.
      99926    2    1    2    0    0  0.00000000000E+00  0.00000000000E+00  0.15938285040E+03  0.48774121746E+03  0.46096486006E+03 0.  0.
         25    1    3    3    0    0 -0.17151702452E+02  0.61269864475E+02  0.64295830706E+02  0.15436851731E+03  0.12509000000E+03 0.  0.
         25    1    3    3    0    0  0.42164324693E+02 -0.10415560312E+03  0.10530918459E+03  0.19840300501E+03  0.12509000000E+03 0.  0.
         25    1    3    3    0    0 -0.25012622242E+02  0.42885738649E+02 -0.10222164900E+02  0.13496969514E+03  0.12509000000E+03 0.  0.
<mgrwt>
<rscale>  2 0.46096486E+03</rscale>
<asrwt>0</asrwt>
<pdfrwt beam="1">  1       21 0.47582652E-01 0.46096486E+03</pdfrwt>
<pdfrwt beam="2">  1       21 0.24143998E-01 0.46096486E+03</pdfrwt>
<totfact> 0.63099624E+04</totfact>
</mgrwt>
</event>
<event>
 7    0  0.4784406E-002  0.4579929E+03  0.7546771E-02  0.1025365E+00
         21   -1    0    0  502  501  0.00000000000E+00  0.00000000000E+00  0.32221688708E+03  0.32221688708E+03  0.00000000000E+00 0.  1.
         21   -1    0    0  501  502 -0.00000000000E+00 -0.00000000000E+00 -0.16274556302E+03  0.16274556302E+03  0.00000000000E+00 0.  1.
      99926    2    1    2    0    0  0.00000000000E+00  0.00000000000E+00  0.15947132406E+03  0.48496245010E+03  0.45799287637E+03 0.  0.
      99925    2    3    3    0    0 -0.76152777581E+02  0.58458762515E+02  0.16893049628E+03  0.32699518613E+03  0.26300506978E+03 0.  0.
         25    1    4    4    0    0 -0.47359632645E+02 -0.54555351074E+01  0.10433932905E+03  0.16972595957E+03  0.12509000000E+03 0.  0.
         25    1    4    4    0    0 -0.28793144937E+02  0.63914297623E+02  0.64591167231E+02  0.15726922655E+03  0.12509000000E+03 0.  0.
         25    1    3    3    0    0  0.76152777581E+02 -0.58458762515E+02 -0.94591722195E+01  0.15796726397E+03  0.12509000000E+03 0.  0.
<mgrwt>
<rscale>  2 0.45799288E+03</rscale>
<asrwt>0</asrwt>
<pdfrwt beam="1">  1       21 0.47384836E-01 0.45799288E+03</pdfrwt>
<pdfrwt beam="2">  1       21 0.23933171E-01 0.45799288E+03</pdfrwt>
<totfact> 0.64787664E+04</totfact>
</mgrwt>
</event>
<event>
 7    0  0.4784406E-002  0.4574216E+03  0.7546771E-02  0.1025532E+00
         21   -1    0    0  502  501  0.00000000000E+00  0.00000000000E+00  0.22934494620E+02  0.22934494620E+02  0.00000000000E+00 0.  1.
         21   -1    0    0  501  502 -0.00000000000E+00 -0.00000000000E+00 -0.22807843717E+04  0.22807843717E+04  0.00000000000E+00 0.  1.
      99926    2    1    2    0    0  0.00000000000E+00  0.00000000000E+00 -0.22578498770E+04  0.23037188663E+04  0.45742163002E+03 0.  0.
      99925    2    3    3    0    0  0.66478097606E+02  0.35352898238E+02 -0.97576793616E+03  0.10133504010E+04  0.26284368960E+03 0.  0.
         25    1    3    3    0    0 -0.66478097606E+02 -0.35352898238E+02 -0.12820819409E+04  0.12903684653E+04  0.12509000000E+03 0.  0.
         25    1    4    4    0    0  0.15234460058E+02 -0.61720631245E+01 -0.35728578666E+03  0.37890740898E+03  0.12509000000E+03 0.  0.
         25    1    4    4    0    0  0.51243637548E+02  0.41524961362E+02 -0.61848214951E+03  0.63444299205E+03  0.12509000000E+03 0.  0.
<mgrwt>
<rscale>  2 0.45742163E+03</rscale>
<asrwt>0</asrwt>
<pdfrwt beam="1">  1       21 0.33727223E-02 0.45742163E+03</pdfrwt>
<pdfrwt beam="2">  1       21 0.33540922E+00 0.45742163E+03</pdfrwt>
<totfact> 0.91806845E+03</totfact>
</mgrwt>
</event>
<event>
 7    0  0.4784406E-002  0.4022417E+03  0.7546771E-02  0.1043006E+00
         21   -1    0    0  502  501  0.00000000000E+00  0.00000000000E+00  0.60603350295E+03  0.60603350295E+03  0.00000000000E+00 0. -1.
         21   -1    0    0  501  502 -0.00000000000E+00 -0.00000000000E+00 -0.66744806890E+02  0.66744806890E+02  0.00000000000E+00 0. -1.
      99926    2    1    2    0    0 -0.35527136788E-14  0.00000000000E+00  0.53928869606E+03  0.67277830984E+03  0.40224166429E+03 0.  0.
      99925    2    3    3    0    0  0.20098314167E+02  0.30537678094E+02  0.30043293976E+03  0.40068260529E+03  0.26258352362E+03 0.  0.
         25    1    4    4    0    0 -0.16297928451E+02  0.36658408813E+02  0.11909489074E+03  0.17731486827E+03  0.12509000000E+03 0.  0.
         25    1    3    3    0    0 -0.20098314167E+02 -0.30537678094E+02  0.23885575630E+03  0.27209570455E+03  0.12509000000E+03 0.  0.
         25    1    4    4    0    0  0.36396242618E+02 -0.61207307193E+01  0.18133804902E+03  0.22336773702E+03  0.12509000000E+03 0.  0.
<mgrwt>
<rscale>  2 0.40224166E+03</rscale>
<asrwt>0</asrwt>
<pdfrwt beam="1">  1       21 0.89122571E-01 0.40224166E+03</pdfrwt>
<pdfrwt beam="2">  1       21 0.98154131E-02 0.40224166E+03</pdfrwt>
<totfact> 0.84371129E+04</totfact>
</mgrwt>
</event>
<event>
 7    0  0.4784406E-002  0.4438231E+03  0.7546771E-02  0.1029580E+00
         21   -1    0    0  502  501  0.00000000000E+00  0.00000000000E+00  0.47139252956E+03  0.47139252956E+03  0.00000000000E+00 0.  1.
         21   -1    0    0  501  502 -0.00000000000E+00 -0.00000000000E+00 -0.10446652504E+03  0.10446652504E+03  0.00000000000E+00 0.  1.
      99926    2    1    2    0    0  0.00000000000E+00  0.00000000000E+00  0.36692600452E+03  0.57585905460E+03  0.44382311563E+03 0.  0.
      99925    2    3    3    0    0 -0.32290342066E+02  0.26777431731E+02  0.11258281967E+03  0.28933216088E+03  0.26320811347E+03 0.  0.
         25    1    4    4    0    0 -0.21829094974E+02 -0.43796560037E+01  0.95347406524E+02  0.15885316114E+03  0.12509000000E+03 0.  0.
         25    1    4    4    0    0 -0.10461247091E+02  0.31157087735E+02  0.17235413145E+02  0.13047899974E+03  0.12509000000E+03 0.  0.
         25    1    3    3    0    0  0.32290342066E+02 -0.26777431731E+02  0.25434318485E+03  0.28652689371E+03  0.12509000000E+03 0.  0.
<mgrwt>
<rscale>  2 0.44382312E+03</rscale>
<asrwt>0</asrwt>
<pdfrwt beam="1">  1       21 0.69322430E-01 0.44382312E+03</pdfrwt>
<pdfrwt beam="2">  1       21 0.15362724E-01 0.44382312E+03</pdfrwt>
<totfact> 0.65815376E+04</totfact>
</mgrwt>
</event>
<event>
 7    0  0.4784406E-002  0.4582074E+03  0.7546771E-02  0.1025302E+00
         21   -1    0    0  502  501  0.00000000000E+00  0.00000000000E+00  0.16528136010E+04  0.16528136010E+04  0.00000000000E+00 0.  1.
         21   -1    0    0  501  502 -0.00000000000E+00 -0.00000000000E+00 -0.31757068260E+02  0.31757068260E+02  0.00000000000E+00 0.  1.
      99926    2    1    2    0    0  0.00000000000E+00  0.00000000000E+00  0.16210565328E+04  0.16845706693E+04  0.45820743926E+03 0.  0.
      99925    2    3    3    0    0 -0.80156303525E+02  0.66319392419E+02  0.12075726885E+04  0.12402288050E+04  0.26289236559E+03 0.  0.
         25    1    4    4    0    0 -0.23305960781E+02  0.67757231300E+02  0.56203353353E+03  0.58022703411E+03  0.12509000000E+03 0.  0.
         25    1    4    4    0    0 -0.56850342743E+02 -0.14378388814E+01  0.64553915496E+03  0.66000177086E+03  0.12509000000E+03 0.  0.
         25    1    3    3    0    0  0.80156303525E+02 -0.66319392419E+02  0.41348384426E+03  0.44434186430E+03  0.12509000000E+03 0.  0.
<mgrwt>
<rscale>  2 0.45820744E+03</rscale>
<asrwt>0</asrwt>
<pdfrwt beam="1">  1       21 0.24306077E+00 0.45820744E+03</pdfrwt>
<pdfrwt beam="2">  1       21 0.46701582E-02 0.45820744E+03</pdfrwt>
<totfact> 0.19104326E+04</totfact>
</mgrwt>
</event>
<event>
 7    0  0.4784406E-002  0.4561960E+03  0.7546771E-02  0.1025890E+00
         21   -1    0    0  502  501  0.00000000000E+00  0.00000000000E+00  0.42943949281E+03  0.42943949281E+03  0.00000000000E+00 0.  1.
         21   -1    0    0  501  502 -0.00000000000E+00 -0.00000000000E+00 -0.12115492181E+03  0.12115492181E+03  0.00000000000E+00 0.  1.
      99926    2    1    2    0    0  0.88817841970E-15 -0.14210854715E-13  0.30828457100E+03  0.55059441462E+03  0.45619604634E+03 0.  0.
      99925    2    3    3    0    0  0.58500905896E+01  0.11382902997E+03  0.18615837968E+03  0.34189945462E+03  0.26315209123E+03 0.  0.
         25    1    4    4    0    0  0.11839768467E+02  0.68200802480E+02  0.50245495488E+02  0.15153761082E+03  0.12509000000E+03 0.  0.
         25    1    3    3    0    0 -0.58500905896E+01 -0.11382902997E+03  0.12212619132E+03  0.20869496000E+03  0.12509000000E+03 0.  0.
         25    1    4    4    0    0 -0.59896778773E+01  0.45628227491E+02  0.13591288419E+03  0.19036184380E+03  0.12509000000E+03 0.  0.
<mgrwt>
<rscale>  2 0.45619605E+03</rscale>
<asrwt>0</asrwt>
<pdfrwt beam="1">  1       21 0.63152866E-01 0.45619605E+03</pdfrwt>
<pdfrwt beam="2">  1       21 0.17816900E-01 0.45619605E+03</pdfrwt>
<totfact> 0.61245629E+04</totfact>
</mgrwt>
</event>
<event>
 7    0  0.4784406E-002  0.4675417E+03  0.7546771E-02  0.1022616E+00
         21   -1    0    0  502  501  0.00000000000E+00  0.00000000000E+00  0.26103778010E+03  0.26103778010E+03  0.00000000000E+00 0.  1.
         21   -1    0    0  501  502 -0.00000000000E+00 -0.00000000000E+00 -0.20935214525E+03  0.20935214525E+03  0.00000000000E+00 0.  1.
      99926    2    1    2    0    0 -0.14210854715E-13  0.00000000000E+00  0.51685634857E+02  0.47038992535E+03  0.46754173827E+03 0.  0.
      99925    2    3    3    0    0  0.12281924429E+03 -0.20649279209E+02  0.32864610479E+02  0.29287176133E+03  0.26302628474E+03 0.  0.
         25    1    4    4    0    0  0.44841131730E+02  0.27751003598E+02  0.19595605625E+02  0.13715808819E+03  0.12509000000E+03 0.  0.
         25    1    4    4    0    0  0.77978112558E+02 -0.48400282806E+02  0.13269004854E+02  0.15571367314E+03  0.12509000000E+03 0.  0.
         25    1    3    3    0    0 -0.12281924429E+03  0.20649279209E+02  0.18821024378E+02  0.17751816402E+03  0.12509000000E+03 0.  0.
<mgrwt>
<rscale>  2 0.46754174E+03</rscale>
<asrwt>0</asrwt>
<pdfrwt beam="1">  1       21 0.38387909E-01 0.46754174E+03</pdfrwt>
<pdfrwt beam="2">  1       21 0.30787080E-01 0.46754174E+03</pdfrwt>
<totfact> 0.61087324E+04</totfact>
</mgrwt>
</event>
<event>
 7    0  0.4784406E-002  0.4157455E+03  0.7546771E-02  0.1038460E+00
         21   -1    0    0  502  501  0.00000000000E+00  0.00000000000E+00  0.16888874067E+04  0.16888874067E+04  0.00000000000E+00 0. -1.
         21   -1    0    0  501  502 -0.00000000000E+00 -0.00000000000E+00 -0.25585528769E+02  0.25585528769E+02  0.00000000000E+00 0. -1.
      99926    2    1    2    0    0 -0.88817841970E-15  0.00000000000E+00  0.16633018779E+04  0.17144729355E+04  0.41574548623E+03 0.  0.
      99925    2    3    3    0    0 -0.72701682478E+01 -0.69715560877E+02  0.10906978573E+04  0.11241882692E+04  0.26318118046E+03 0.  0.
         25    1    4    4    0    0 -0.39931904216E+02 -0.45461346975E+02  0.62565508516E+03  0.64090021433E+03  0.12509000000E+03 0.  0.
         25    1    4    4    0    0  0.32661735968E+02 -0.24254213902E+02  0.46504277218E+03  0.48328805483E+03  0.12509000000E+03 0.  0.
         25    1    3    3    0    0  0.72701682478E+01  0.69715560877E+02  0.57260402058E+03  0.59028466629E+03  0.12509000000E+03 0.  0.
<mgrwt>
<rscale>  2 0.41574549E+03</rscale>
<asrwt>0</asrwt>
<pdfrwt beam="1">  1       21 0.24836572E+00 0.41574549E+03</pdfrwt>
<pdfrwt beam="2">  1       21 0.37625789E-02 0.41574549E+03</pdfrwt>
<totfact> 0.26037501E+04</totfact>
</mgrwt>
</event>
<event>
 7    0  0.4784406E-002  0.4406002E+03  0.7546771E-02  0.1030563E+00
         21   -1    0    0  502  501  0.00000000000E+00  0.00000000000E+00  0.10203792713E+04  0.10203792713E+04  0.00000000000E+00 0. -1.
         21   -1    0    0  501  502 -0.00000000000E+00 -0.00000000000E+00 -0.47562836632E+02  0.47562836632E+02  0.00000000000E+00 0. -1.
      99926    2    1    2    0    0  0.00000000000E+00 -0.35527136788E-14  0.97281643468E+03  0.10679421079E+04  0.44060019330E+03 0.  0.
      99925    2    3    3    0    0  0.22118400610E+02 -0.28411033884E+02  0.39685130055E+03  0.47745099512E+03  0.26300586971E+03 0.  0.
         25    1    3    3    0    0 -0.22118400610E+02  0.28411033884E+02  0.57596513413E+03  0.59049111283E+03  0.12509000000E+03 0.  0.
         25    1    4    4    0    0  0.11327105012E+01 -0.45808873653E+02  0.24460752390E+03  0.27853201753E+03  0.12509000000E+03 0.  0.
         25    1    4    4    0    0  0.20985690109E+02  0.17397839768E+02  0.15224377665E+03  0.19891897759E+03  0.12509000000E+03 0.  0.
<mgrwt>
<rscale>  2 0.44060019E+03</rscale>
<asrwt>0</asrwt>
<pdfrwt beam="1">  1       21 0.15005576E+00 0.44060019E+03</pdfrwt>
<pdfrwt beam="2">  1       21 0.69945354E-02 0.44060019E+03</pdfrwt>
<totfact> 0.41048122E+04</totfact>
</mgrwt>
</event>
<event>
 7    0  0.4784406E-002  0.4568590E+03  0.7546771E-02  0.1025696E+00
         21   -1    0    0  502  501  0.00000000000E+00  0.00000000000E+00  0.25611907792E+04  0.25611907792E+04  0.00000000000E+00 0.  1.
         21   -1    0    0  501  502 -0.00000000000E+00 -0.00000000000E+00 -0.20373350969E+02  0.20373350969E+02  0.00000000000E+00 0.  1.
      99926    2    1    2    0    0  0.00000000000E+00  0.00000000000E+00  0.25408174282E+04  0.25815641301E+04  0.45685900951E+03 0.  0.
      99925    2    3    3    0    0  0.74750478742E+02  0.87011997144E+02  0.15422510438E+04  0.15686766468E+04  0.26277256029E+03 0.  0.
         25    1    4    4    0    0  0.20703601168E+02  0.63562786515E+02  0.94801840056E+03  0.95856938342E+03  0.12509000000E+03 0.  0.
         25    1    3    3    0    0 -0.74750478742E+02 -0.87011997144E+02  0.99856638438E+03  0.10128874833E+04  0.12509000000E+03 0.  0.
         25    1    4    4    0    0  0.54046877574E+02  0.23449210629E+02  0.59423264326E+03  0.61010726341E+03  0.12509000000E+03 0.  0.
<mgrwt>
<rscale>  2 0.45685901E+03</rscale>
<asrwt>0</asrwt>
<pdfrwt beam="1">  1       21 0.37664548E+00 0.45685901E+03</pdfrwt>
<pdfrwt beam="2">  1       21 0.29960828E-02 0.45685901E+03</pdfrwt>
<totfact> 0.62421528E+03</totfact>
</mgrwt>
</event>
<event>
 7    0  0.4784406E-002  0.4535499E+03  0.7546771E-02  0.1026669E+00
         21   -1    0    0  502  501  0.00000000000E+00  0.00000000000E+00  0.75310756988E+03  0.75310756988E+03  0.00000000000E+00 0.  1.
         21   -1    0    0  501  502 -0.00000000000E+00 -0.00000000000E+00 -0.68286245407E+02  0.68286245407E+02  0.00000000000E+00 0.  1.
      99926    2    1    2    0    0  0.00000000000E+00  0.00000000000E+00  0.68482132447E+03  0.82139381529E+03  0.45354994580E+03 0.  0.
      99925    2    3    3    0    0  0.33112964707E+02  0.40879941947E+02  0.61018691995E+03  0.66652147908E+03  0.26297369964E+03 0.  0.
         25    1    4    4    0    0 -0.21865728372E+02  0.33341711145E+02  0.30500052944E+03  0.33205814376E+03  0.12509000000E+03 0.  0.
         25    1    3    3    0    0 -0.33112964707E+02 -0.40879941947E+02  0.74634404521E+02  0.15487233621E+03  0.12509000000E+03 0.  0.
         25    1    4    4    0    0  0.54978693079E+02  0.75382308018E+01  0.30518639052E+03  0.33446333532E+03  0.12509000000E+03 0.  0.
<mgrwt>
<rscale>  2 0.45354995E+03</rscale>
<asrwt>0</asrwt>
<pdfrwt beam="1">  1       21 0.11075111E+00 0.45354995E+03</pdfrwt>
<pdfrwt beam="2">  1       21 0.10042095E-01 0.45354995E+03</pdfrwt>
<totfact> 0.47283065E+04</totfact>
</mgrwt>
</event>
<event>
 7    0  0.4784406E-002  0.4445624E+03  0.7546771E-02  0.1029356E+00
         21   -1    0    0  502  501  0.00000000000E+00  0.00000000000E+00  0.22284961123E+03  0.22284961123E+03  0.00000000000E+00 0. -1.
         21   -1    0    0  501  502 -0.00000000000E+00 -0.00000000000E+00 -0.22171423483E+03  0.22171423483E+03  0.00000000000E+00 0. -1.
      99926    2    1    2    0    0  0.00000000000E+00 -0.35527136788E-14  0.11353763970E+01  0.44456384607E+03  0.44456239624E+03 0.  0.
      99925    2    3    3    0    0 -0.10143432606E+03  0.17004569519E+02 -0.70538605713E+01  0.28241376253E+03  0.26292527157E+03 0.  0.
         25    1    3    3    0    0  0.10143432606E+03 -0.17004569519E+02  0.81892369682E+01  0.16215008353E+03  0.12509000000E+03 0.  0.
         25    1    4    4    0    0 -0.20684199181E+02 -0.13190546066E+01  0.24443233316E+02  0.12912999557E+03  0.12509000000E+03 0.  0.
         25    1    4    4    0    0 -0.80750126877E+02  0.18323624125E+02 -0.31497093887E+02  0.15328376697E+03  0.12509000000E+03 0.  0.
<mgrwt>
<rscale>  2 0.44456240E+03</rscale>
<asrwt>0</asrwt>
<pdfrwt beam="1">  1       21 0.32772002E-01 0.44456240E+03</pdfrwt>
<pdfrwt beam="2">  1       21 0.32605034E-01 0.44456240E+03</pdfrwt>
<totfact> 0.75403973E+04</totfact>
</mgrwt>
</event>
<event>
 7    0  0.4784406E-002  0.4528409E+03  0.7546771E-02  0.1026878E+00
         21   -1    0    0  502  501  0.00000000000E+00  0.00000000000E+00  0.49364114811E+03  0.49364114811E+03  0.00000000000E+00 0. -1.
         21   -1    0    0  501  502 -0.00000000000E+00 -0.00000000000E+00 -0.10385322148E+03  0.10385322148E+03  0.00000000000E+00 0. -1.
      99926    2    1    2    0    0  0.00000000000E+00  0.00000000000E+00  0.38978792663E+03  0.59749436959E+03  0.45284091461E+03 0.  0.
      99925    2    3    3    0    0 -0.55535012049E+02 -0.86376644290E+02  0.30175296773E+03  0.41325885637E+03  0.26302655112E+03 0.  0.
         25    1    3    3    0    0  0.55535012049E+02  0.86376644290E+02  0.88034958902E+02  0.18423551322E+03  0.12509000000E+03 0.  0.
         25    1    4    4    0    0 -0.13465842416E+02 -0.80684693666E+02  0.14459316704E+03  0.20795682427E+03  0.12509000000E+03 0.  0.
         25    1    4    4    0    0 -0.42069169633E+02 -0.56919506247E+01  0.15715980069E+03  0.20530203211E+03  0.12509000000E+03 0.  0.
<mgrwt>
<rscale>  2 0.45284091E+03</rscale>
<asrwt>0</asrwt>
<pdfrwt beam="1">  1       21 0.72594285E-01 0.45284091E+03</pdfrwt>
<pdfrwt beam="2">  1       21 0.15272533E-01 0.45284091E+03</pdfrwt>
<totfact> 0.59847272E+04</totfact>
</mgrwt>
</event>
<event>
 7    0  0.4784406E-002  0.4612431E+03  0.7546771E-02  0.1024421E+00
         21   -1    0    0  502  501  0.00000000000E+00  0.00000000000E+00  0.61657062717E+03  0.61657062717E+03  0.00000000000E+00 0. -1.
         21   -1    0    0  501  502 -0.00000000000E+00 -0.00000000000E+00 -0.86261502557E+02  0.86261502557E+02  0.00000000000E+00 0. -1.
      99926    2    1    2    0    0  0.00000000000E+00  0.00000000000E+00  0.53030912461E+03  0.70283212972E+03  0.46124314079E+03 0.  0.
      99925    2    3    3    0    0  0.37116200985E+02  0.11251387393E+03  0.34977046407E+03  0.45327512170E+03  0.26283449968E+03 0.  0.
         25    1    4    4    0    0  0.22021832499E+02  0.20586251731E+02  0.19439506769E+03  0.23312165346E+03  0.12509000000E+03 0.  0.
         25    1    4    4    0    0  0.15094368486E+02  0.91927622197E+02  0.15537539638E+03  0.22015346825E+03  0.12509000000E+03 0.  0.
         25    1    3    3    0    0 -0.37116200985E+02 -0.11251387393E+03  0.18053866054E+03  0.24955700802E+03  0.12509000000E+03 0.  0.
<mgrwt>
<rscale>  2 0.46124314E+03</rscale>
<asrwt>0</asrwt>
<pdfrwt beam="1">  1       21 0.90672149E-01 0.46124314E+03</pdfrwt>
<pdfrwt beam="2">  1       21 0.12685515E-01 0.46124314E+03</pdfrwt>
<totfact> 0.50235541E+04</totfact>
</mgrwt>
</event>
<event>
 7    0  0.4784406E-002  0.4461102E+03  0.7546771E-02  0.1028888E+00
         21   -1    0    0  502  501  0.00000000000E+00  0.00000000000E+00  0.73975710689E+02  0.73975710689E+02  0.00000000000E+00 0. -1.
         21   -1    0    0  501  502 -0.00000000000E+00 -0.00000000000E+00 -0.67256632761E+03  0.67256632761E+03  0.00000000000E+00 0. -1.
      99926    2    1    2    0    0 -0.17763568394E-14 -0.71054273576E-14 -0.59859061692E+03  0.74654203830E+03  0.44611017505E+03 0.  0.
      99925    2    3    3    0    0 -0.36126629593E+01 -0.37210136772E+02 -0.54336063449E+03  0.60478342420E+03  0.26291551011E+03 0.  0.
         25    1    4    4    0    0  0.16235937409E+02 -0.54736112203E+02 -0.29311859789E+03  0.32376792332E+03  0.12509000000E+03 0.  0.
         25    1    4    4    0    0 -0.19848600368E+02  0.17525975431E+02 -0.25024203660E+03  0.28101550088E+03  0.12509000000E+03 0.  0.
         25    1    3    3    0    0  0.36126629593E+01  0.37210136772E+02 -0.55229982431E+02  0.14175861410E+03  0.12509000000E+03 0.  0.
<mgrwt>
<rscale>  2 0.44611018E+03</rscale>
<asrwt>0</asrwt>
<pdfrwt beam="1">  1       21 0.10878781E-01 0.44611018E+03</pdfrwt>
<pdfrwt beam="2">  1       21 0.98906814E-01 0.44611018E+03</pdfrwt>
<totfact> 0.54132275E+04</totfact>
</mgrwt>
</event>
<event>
 6    0  0.4784406E-002  0.4772092E+03  0.7546771E-02  0.1019905E+00
         21   -1    0    0  502  501  0.00000000000E+00  0.00000000000E+00  0.19533926672E+03  0.19533926672E+03  0.00000000000E+00 0.  1.
         21   -1    0    0  501  502 -0.00000000000E+00 -0.00000000000E+00 -0.29145266598E+03  0.29145266598E+03  0.00000000000E+00 0.  1.
      99926    2    1    2    0    0  0.00000000000E+00  0.00000000000E+00 -0.96113399255E+02  0.48679193270E+03  0.47720917869E+03 0.  0.
         25    1    3    3    0    0  0.64104788165E+02  0.17896785388E+02  0.40144442762E+02  0.14727118923E+03  0.12509000000E+03 0.  0.
         25    1    3    3    0    0 -0.92315643684E+02  0.27657415170E+02 -0.12785527503E+03  0.20317871477E+03  0.12509000000E+03 0.  0.
         25    1    3    3    0    0  0.28210855519E+02 -0.45554200558E+02 -0.84025669828E+01  0.13634202870E+03  0.12509000000E+03 0.  0.
<mgrwt>
<rscale>  2 0.47720918E+03</rscale>
<asrwt>0</asrwt>
<pdfrwt beam="1">  1       21 0.28726363E-01 0.47720918E+03</pdfrwt>
<pdfrwt beam="2">  1       21 0.42860685E-01 0.47720918E+03</pdfrwt>
<totfact> 0.55716961E+04</totfact>
</mgrwt>
</event>
<event>
 7    0  0.4784406E-002  0.4555435E+03  0.7546771E-02  0.1026082E+00
         21   -1    0    0  502  501  0.00000000000E+00  0.00000000000E+00  0.12908507680E+03  0.12908507680E+03  0.00000000000E+00 0. -1.
         21   -1    0    0  501  502 -0.00000000000E+00 -0.00000000000E+00 -0.40190520862E+03  0.40190520862E+03  0.00000000000E+00 0. -1.
      99926    2    1    2    0    0  0.14210854715E-13  0.71054273576E-14 -0.27282013182E+03  0.53099028542E+03  0.45554347639E+03 0.  0.
      99925    2    3    3    0    0  0.80976840161E+02  0.38197192767E+02 -0.25314756649E+03  0.37590710740E+03  0.26307069163E+03 0.  0.
         25    1    4    4    0    0  0.81458500660E+02  0.27167320885E+02 -0.12631308811E+03  0.19742354212E+03  0.12509000000E+03 0.  0.
         25    1    3    3    0    0 -0.80976840161E+02 -0.38197192767E+02 -0.19672565329E+02  0.15508317802E+03  0.12509000000E+03 0.  0.
         25    1    4    4    0    0 -0.48166049880E+00  0.11029871882E+02 -0.12683447838E+03  0.17848356528E+03  0.12509000000E+03 0.  0.
<mgrwt>
<rscale>  2 0.45554348E+03</rscale>
<asrwt>0</asrwt>
<pdfrwt beam="1">  1       21 0.18983100E-01 0.45554348E+03</pdfrwt>
<pdfrwt beam="2">  1       21 0.59103707E-01 0.45554348E+03</pdfrwt>
<totfact> 0.62868293E+04</totfact>
</mgrwt>
</event>
<event>
 7    0  0.4784406E-002  0.4599986E+03  0.7546771E-02  0.1024782E+00
         21   -1    0    0  502  501  0.00000000000E+00  0.00000000000E+00  0.13128172495E+04  0.13128172495E+04  0.00000000000E+00 0.  1.
         21   -1    0    0  501  502 -0.00000000000E+00 -0.00000000000E+00 -0.40294782532E+02  0.40294782532E+02  0.00000000000E+00 0.  1.
      99926    2    1    2    0    0  0.00000000000E+00  0.00000000000E+00  0.12725224670E+04  0.13531120320E+04  0.45999863292E+03 0.  0.
      99925    2    3    3    0    0  0.84743712153E+02  0.80038682691E+02  0.84472234883E+03  0.89240807432E+03  0.26315135761E+03 0.  0.
         25    1    3    3    0    0 -0.84743712153E+02 -0.80038682691E+02  0.42780011812E+03  0.46070395770E+03  0.12509000000E+03 0.  0.
         25    1    4    4    0    0  0.10439665270E+02  0.45419666665E+02  0.47992425122E+03  0.49814328033E+03  0.12509000000E+03 0.  0.
         25    1    4    4    0    0  0.74304046883E+02  0.34619016026E+02  0.36479809761E+03  0.39426479398E+03  0.12509000000E+03 0.  0.
<mgrwt>
<rscale>  2 0.45999863E+03</rscale>
<asrwt>0</asrwt>
<pdfrwt beam="1">  1       21 0.19306133E+00 0.45999863E+03</pdfrwt>
<pdfrwt beam="2">  1       21 0.59257042E-02 0.45999863E+03</pdfrwt>
<totfact> 0.26561571E+04</totfact>
</mgrwt>
</event>
<event>
 7    0  0.4784406E-002  0.4481056E+03  0.7546771E-02  0.1028288E+00
         21   -1    0    0  502  501  0.00000000000E+00  0.00000000000E+00  0.25632646973E+04  0.25632646973E+04  0.00000000000E+00 0.  1.
         21   -1    0    0  501  502 -0.00000000000E+00 -0.00000000000E+00 -0.19584262900E+02  0.19584262900E+02  0.00000000000E+00 0.  1.
      99926    2    1    2    0    0  0.00000000000E+00 -0.35527136788E-14  0.25436804344E+04  0.25828489602E+04  0.44810556664E+03 0.  0.
      99925    2    3    3    0    0  0.92662628887E+02 -0.13797297870E+02  0.13184480450E+04  0.13476896003E+04  0.26303095476E+03 0.  0.
         25    1    4    4    0    0  0.22037677092E+02  0.21385721165E+02  0.52449938207E+03  0.54008343631E+03  0.12509000000E+03 0.  0.
         25    1    4    4    0    0  0.70624951795E+02 -0.35183019035E+02  0.79394866288E+03  0.80760616394E+03  0.12509000000E+03 0.  0.
         25    1    3    3    0    0 -0.92662628887E+02  0.13797297870E+02  0.12252323894E+04  0.12351593599E+04  0.12509000000E+03 0.  0.
<mgrwt>
<rscale>  2 0.44810557E+03</rscale>
<asrwt>0</asrwt>
<pdfrwt beam="1">  1       21 0.37695046E+00 0.44810557E+03</pdfrwt>
<pdfrwt beam="2">  1       21 0.28800404E-02 0.44810557E+03</pdfrwt>
<totfact> 0.66713468E+03</totfact>
</mgrwt>
</event>
<event>
 7    0  0.4784406E-002  0.4560962E+03  0.7546771E-02  0.1025920E+00
         21   -1    0    0  502  501  0.00000000000E+00  0.00000000000E+00  0.11213079284E+04  0.11213079284E+04  0.00000000000E+00 0.  1.
         21   -1    0    0  501  502 -0.00000000000E+00 -0.00000000000E+00 -0.46379701408E+02  0.46379701408E+02  0.00000000000E+00 0.  1.
      99926    2    1    2    0    0  0.71054273576E-14  0.00000000000E+00  0.10749282270E+04  0.11676876298E+04  0.45609616050E+03 0.  0.
      99925    2    3    3    0    0 -0.42260683779E+02 -0.90396815739E+02  0.53199777060E+03  0.60166772003E+03  0.26272584135E+03 0.  0.
         25    1    3    3    0    0  0.42260683779E+02  0.90396815739E+02  0.54293045641E+03  0.56601990979E+03  0.12509000000E+03 0.  0.
         25    1    4    4    0    0 -0.58333857269E+02 -0.63951959483E+02  0.28191893393E+03  0.32034120159E+03  0.12509000000E+03 0.  0.
         25    1    4    4    0    0  0.16073173490E+02 -0.26444856257E+02  0.25007883667E+03  0.28132651844E+03  0.12509000000E+03 0.  0.
<mgrwt>
<rscale>  2 0.45609616E+03</rscale>
<asrwt>0</asrwt>
<pdfrwt beam="1">  1       21 0.16489821E+00 0.45609616E+03</pdfrwt>
<pdfrwt beam="2">  1       21 0.68205450E-02 0.45609616E+03</pdfrwt>
<totfact> 0.32915227E+04</totfact>
</mgrwt>
</event>
<event>
 7    0  0.4784406E-002  0.4547087E+03  0.7546771E-02  0.1026327E+00
         21   -1    0    0  502  501  0.00000000000E+00  0.00000000000E+00  0.22274246537E+03  0.22274246537E+03  0.00000000000E+00 0.  1.
         21   -1    0    0  501  502 -0.00000000000E+00 -0.00000000000E+00 -0.23206174709E+03  0.23206174709E+03  0.00000000000E+00 0.  1.
      99926    2    1    2    0    0 -0.35527136788E-14  0.00000000000E+00 -0.93192817153E+01  0.45480421246E+03  0.45470872287E+03 0.  0.
      99925    2    3    3    0    0  0.81970295473E+01 -0.78206322051E+02 -0.86937183658E+02  0.28790464115E+03  0.26295929037E+03 0.  0.
         25    1    4    4    0    0  0.25051923469E+02 -0.56899083984E+02 -0.77022216215E+02  0.15951499779E+03  0.12509000000E+03 0.  0.
         25    1    4    4    0    0 -0.16854893921E+02 -0.21307238067E+02 -0.99149674426E+01  0.12838964336E+03  0.12509000000E+03 0.  0.
         25    1    3    3    0    0 -0.81970295473E+01  0.78206322051E+02  0.77617901943E+02  0.16689957131E+03  0.12509000000E+03 0.  0.
<mgrwt>
<rscale>  2 0.45470872E+03</rscale>
<asrwt>0</asrwt>
<pdfrwt beam="1">  1       21 0.32756245E-01 0.45470872E+03</pdfrwt>
<pdfrwt beam="2">  1       21 0.34126727E-01 0.45470872E+03</pdfrwt>
<totfact> 0.68719713E+04</totfact>
</mgrwt>
</event>
<event>
 7    0  0.4784406E-002  0.4429806E+03  0.7546771E-02  0.1029836E+00
         21   -1    0    0  502  501  0.00000000000E+00  0.00000000000E+00  0.70428668325E+03  0.70428668325E+03  0.00000000000E+00 0.  1.
         21   -1    0    0  501  502 -0.00000000000E+00 -0.00000000000E+00 -0.69656217044E+02  0.69656217044E+02  0.00000000000E+00 0.  1.
      99926    2    1    2    0    0  0.00000000000E+00  0.71054273576E-14  0.63463046621E+03  0.77394290029E+03  0.44298056874E+03 0.  0.
      99925    2    3    3    0    0  0.58239916667E+02  0.45897892080E+02  0.28293971026E+03  0.39337437781E+03  0.26303995339E+03 0.  0.
         25    1    4    4    0    0 -0.21567710196E+01  0.44401192731E+02  0.11690400536E+03  0.17689028279E+03  0.12509000000E+03 0.  0.
         25    1    3    3    0    0 -0.58239916667E+02 -0.45897892080E+02  0.35169075595E+03  0.38056852249E+03  0.12509000000E+03 0.  0.
         25    1    4    4    0    0  0.60396687687E+02  0.14966993484E+01  0.16603570490E+03  0.21648409501E+03  0.12509000000E+03 0.  0.
<mgrwt>
<rscale>  2 0.44298057E+03</rscale>
<asrwt>0</asrwt>
<pdfrwt beam="1">  1       21 0.10357157E+00 0.44298057E+03</pdfrwt>
<pdfrwt beam="2">  1       21 0.10243562E-01 0.44298057E+03</pdfrwt>
<totfact> 0.53965392E+04</totfact>
</mgrwt>
</event>
<event>
 7    0  0.4784406E-002  0.4547045E+03  0.7546771E-02  0.1026328E+00
         21   -1    0    0  502  501  0.00000000000E+00  0.00000000000E+00  0.98351730773E+02  0.98351730773E+02  0.00000000000E+00 0.  1.
         21   -1    0    0  501  502 -0.00000000000E+00 -0.00000000000E+00 -0.52555303261E+03  0.52555303261E+03  0.00000000000E+00 0.  1.
      99926    2    1    2    0    0 -0.35527136788E-14 -0.88817841970E-15 -0.42720130184E+03  0.62390476339E+03  0.45470452107E+03 0.  0.
      99925    2    3    3    0    0 -0.17641560802E+02 -0.64451338061E+01 -0.11616097623E+03  0.28812752074E+03  0.26300443227E+03 0.  0.
         25    1    4    4    0    0  0.14913313404E+02  0.13126123867E+02 -0.25938569417E+02  0.12928657907E+03  0.12509000000E+03 0.  0.
         25    1    3    3    0    0  0.17641560802E+02  0.64451338061E+01 -0.31104032562E+03  0.33577724264E+03  0.12509000000E+03 0.  0.
         25    1    4    4    0    0 -0.32554874207E+02 -0.19571257673E+02 -0.90222406808E+02  0.15884094167E+03  0.12509000000E+03 0.  0.
<mgrwt>
<rscale>  2 0.45470452E+03</rscale>
<asrwt>0</asrwt>
<pdfrwt beam="1">  1       21 0.14463490E-01 0.45470452E+03</pdfrwt>
<pdfrwt beam="2">  1       21 0.77287211E-01 0.45470452E+03</pdfrwt>
<totfact> 0.57364186E+04</totfact>
</mgrwt>
</event>
<event>
 7    0  0.4784406E-002  0.4619569E+03  0.7546771E-02  0.1024215E+00
         21   -1    0    0  502  501  0.00000000000E+00  0.00000000000E+00  0.37821446194E+03  0.37821446194E+03  0.00000000000E+00 0. -1.
         21   -1    0    0  501  502 -0.00000000000E+00 -0.00000000000E+00 -0.14106031735E+03  0.14106031735E+03  0.00000000000E+00 0. -1.
      99926    2    1    2    0    0  0.00000000000E+00  0.00000000000E+00  0.23715414459E+03  0.51927477929E+03  0.46195693317E+03 0.  0.
      99925    2    3    3    0    0 -0.10060694635E+02 -0.89815252181E+02  0.23601302240E+03  0.36494782973E+03  0.26328079037E+03 0.  0.
         25    1    3    3    0    0  0.10060694635E+02  0.89815252181E+02  0.11411221880E+01  0.15432694956E+03  0.12509000000E+03 0.  0.
         25    1    4    4    0    0 -0.10693895275E+02 -0.84261031489E+02  0.10750745083E+03  0.18552531069E+03  0.12509000000E+03 0.  0.
         25    1    4    4    0    0  0.63320064035E+00 -0.55542206921E+01  0.12850557157E+03  0.17942251903E+03  0.12509000000E+03 0.  0.
<mgrwt>
<rscale>  2 0.46195693E+03</rscale>
<asrwt>0</asrwt>
<pdfrwt beam="1">  1       21 0.55619774E-01 0.46195693E+03</pdfrwt>
<pdfrwt beam="2">  1       21 0.20744164E-01 0.46195693E+03</pdfrwt>
<totfact> 0.60525824E+04</totfact>
</mgrwt>
</event>
<event>
 7    0  0.4784406E-002  0.4543156E+03  0.7546771E-02  0.1026443E+00
         21   -1    0    0  502  501  0.00000000000E+00  0.00000000000E+00  0.63117344475E+02  0.63117344475E+02  0.00000000000E+00 0. -1.
         21   -1    0    0  501  502 -0.00000000000E+00 -0.00000000000E+00 -0.81753537577E+03  0.81753537577E+03  0.00000000000E+00 0. -1.
      99926    2    1    2    0    0 -0.35527136788E-14  0.00000000000E+00 -0.75441803130E+03  0.88065272025E+03  0.45431558165E+03 0.  0.
      99925    2    3    3    0    0 -0.19827731099E+02  0.44728896955E+02 -0.67136040585E+03  0.72272903492E+03  0.26309437513E+03 0.  0.
         25    1    4    4    0    0  0.12984567251E+02  0.15206105936E+02 -0.41758479799E+03  0.43637643871E+03  0.12509000000E+03 0.  0.
         25    1    3    3    0    0  0.19827731099E+02 -0.44728896955E+02 -0.83057625448E+02  0.15792368533E+03  0.12509000000E+03 0.  0.
         25    1    4    4    0    0 -0.32812298349E+02  0.29522791019E+02 -0.25377560786E+03  0.28635259621E+03  0.12509000000E+03 0.  0.
<mgrwt>
<rscale>  2 0.45431558E+03</rscale>
<asrwt>0</asrwt>
<pdfrwt beam="1">  1       21 0.92819630E-02 0.45431558E+03</pdfrwt>
<pdfrwt beam="2">  1       21 0.12022578E+00 0.45431558E+03</pdfrwt>
<totfact> 0.44317877E+04</totfact>
</mgrwt>
</event>
<event>
 7    0  0.4784406E-002  0.4617343E+03  0.7546771E-02  0.1024279E+00
         21   -1    0    0  502  501  0.00000000000E+00  0.00000000000E+00  0.27340282297E+03  0.27340282297E+03  0.00000000000E+00 0.  1.
         21   -1    0    0  501  502 -0.00000000000E+00 -0.00000000000E+00 -0.19494913376E+03  0.19494913376E+03  0.00000000000E+00 0.  1.
      99926    2    1    2    0    0  0.00000000000E+00  0.00000000000E+00  0.78453689208E+02  0.46835195673E+03  0.46173431108E+03 0.  0.
      99925    2    3    3    0    0  0.31328956800E+02  0.32300992175E+02 -0.63117679415E+02  0.27414892343E+03  0.26296184730E+03 0.  0.
         25    1    4    4    0    0  0.46299552968E+01 -0.22956123279E+02 -0.35270667064E+02  0.13206039579E+03  0.12509000000E+03 0.  0.
         25    1    4    4    0    0  0.26699001503E+02  0.55257115454E+02 -0.27847012351E+02  0.14208852764E+03  0.12509000000E+03 0.  0.
         25    1    3    3    0    0 -0.31328956800E+02 -0.32300992175E+02  0.14157136862E+03  0.19420303330E+03  0.12509000000E+03 0.  0.
<mgrwt>
<rscale>  2 0.46173431E+03</rscale>
<asrwt>0</asrwt>
<pdfrwt beam="1">  1       21 0.40206298E-01 0.46173431E+03</pdfrwt>
<pdfrwt beam="2">  1       21 0.28668990E-01 0.46173431E+03</pdfrwt>
<totfact> 0.64063190E+04</totfact>
</mgrwt>
</event>
<event>
 7    0  0.4784406E-002  0.4118744E+03  0.7546771E-02  0.1039744E+00
         21   -1    0    0  502  501  0.00000000000E+00  0.00000000000E+00  0.18965465375E+03  0.18965465375E+03  0.00000000000E+00 0. -1.
         21   -1    0    0  501  502 -0.00000000000E+00 -0.00000000000E+00 -0.22361762539E+03  0.22361762539E+03  0.00000000000E+00 0. -1.
      99926    2    1    2    0    0  0.35527136788E-14  0.71054273576E-14 -0.33962971638E+02  0.41327227914E+03  0.41187436587E+03 0.  0.
      99925    2    3    3    0    0 -0.18838854752E+02 -0.62245181991E+02 -0.21958229544E+02  0.27177674189E+03  0.26296590740E+03 0.  0.
         25    1    4    4    0    0  0.24169959358E+02 -0.50335460618E+02  0.10247385891E+01  0.13699052420E+03  0.12509000000E+03 0.  0.
         25    1    3    3    0    0  0.18838854752E+02  0.62245181991E+02 -0.12004742094E+02  0.14149553725E+03  0.12509000000E+03 0.  0.
         25    1    4    4    0    0 -0.43008814109E+02 -0.11909721373E+02 -0.22982968133E+02  0.13478621769E+03  0.12509000000E+03 0.  0.
<mgrwt>
<rscale>  2 0.41187437E+03</rscale>
<asrwt>0</asrwt>
<pdfrwt beam="1">  1       21 0.27890390E-01 0.41187437E+03</pdfrwt>
<pdfrwt beam="2">  1       21 0.32884945E-01 0.41187437E+03</pdfrwt>
<totfact> 0.10278807E+05</totfact>
</mgrwt>
</event>
<event>
 7    0  0.4784406E-002  0.4557411E+03  0.7546771E-02  0.1026024E+00
         21   -1    0    0  502  501  0.00000000000E+00  0.00000000000E+00  0.10199952811E+03  0.10199952811E+03  0.00000000000E+00 0. -1.
         21   -1    0    0  501  502 -0.00000000000E+00 -0.00000000000E+00 -0.50907088084E+03  0.50907088084E+03  0.00000000000E+00 0. -1.
      99926    2    1    2    0    0  0.00000000000E+00  0.00000000000E+00 -0.40707135273E+03  0.61107040895E+03  0.45574110906E+03 0.  0.
      99925    2    3    3    0    0 -0.10923766026E+03 -0.56034430833E+01 -0.29870744079E+03  0.41269069602E+03  0.26291293313E+03 0.  0.
         25    1    3    3    0    0  0.10923766026E+03  0.56034430833E+01 -0.10836391193E+03  0.19837971293E+03  0.12509000000E+03 0.  0.
         25    1    4    4    0    0 -0.68966486354E+02 -0.21552954202E+02 -0.10722268678E+03  0.17990308151E+03  0.12509000000E+03 0.  0.
         25    1    4    4    0    0 -0.40271173901E+02  0.15949511119E+02 -0.19148475401E+03  0.23278761451E+03  0.12509000000E+03 0.  0.
<mgrwt>
<rscale>  2 0.45574111E+03</rscale>
<asrwt>0</asrwt>
<pdfrwt beam="1">  1       21 0.14999931E-01 0.45574111E+03</pdfrwt>
<pdfrwt beam="2">  1       21 0.74863365E-01 0.45574111E+03</pdfrwt>
<totfact> 0.57663686E+04</totfact>
</mgrwt>
</event>
<event>
 7    0  0.4784406E-002  0.4579334E+03  0.7546771E-02  0.1025382E+00
         21   -1    0    0  502  501  0.00000000000E+00  0.00000000000E+00  0.50805005931E+03  0.50805005931E+03  0.00000000000E+00 0.  1.
         21   -1    0    0  501  502 -0.00000000000E+00 -0.00000000000E+00 -0.10319013230E+03  0.10319013230E+03  0.00000000000E+00 0.  1.
      99926    2    1    2    0    0  0.71054273576E-14 -0.17763568394E-14  0.40485992701E+03  0.61124019161E+03  0.45793341365E+03 0.  0.
      99925    2    3    3    0    0 -0.59857790584E+02  0.79952008997E+01  0.38608733484E+03  0.47107316036E+03  0.26305819501E+03 0.  0.
         25    1    4    4    0    0 -0.14567567066E+02 -0.22599958551E+02  0.13999660811E+03  0.18965634848E+03  0.12509000000E+03 0.  0.
         25    1    4    4    0    0 -0.45290223519E+02  0.30595159450E+02  0.24609072673E+03  0.28141681189E+03  0.12509000000E+03 0.  0.
         25    1    3    3    0    0  0.59857790584E+02 -0.79952008997E+01  0.18772592171E+02  0.14016703124E+03  0.12509000000E+03 0.  0.
<mgrwt>
<rscale>  2 0.45793341E+03</rscale>
<asrwt>0</asrwt>
<pdfrwt beam="1">  1       21 0.74713243E-01 0.45793341E+03</pdfrwt>
<pdfrwt beam="2">  1       21 0.15175020E-01 0.45793341E+03</pdfrwt>
<totfact> 0.56667229E+04</totfact>
</mgrwt>
</event>
<event>
 7    0  0.4784406E-002  0.4538917E+03  0.7546771E-02  0.1026568E+00
         21   -1    0    0  502  501  0.00000000000E+00  0.00000000000E+00  0.20165566613E+03  0.20165566613E+03  0.00000000000E+00 0. -1.
         21   -1    0    0  501  502 -0.00000000000E+00 -0.00000000000E+00 -0.25540774103E+03  0.25540774103E+03  0.00000000000E+00 0. -1.
      99926    2    1    2    0    0  0.00000000000E+00 -0.35527136788E-14 -0.53752074895E+02  0.45706340716E+03  0.45389169701E+03 0.  0.
      99925    2    3    3    0    0 -0.52958523029E+02 -0.28138177894E+02 -0.12906599727E+03  0.29921519773E+03  0.26320209096E+03 0.  0.
         25    1    3    3    0    0  0.52958523029E+02  0.28138177894E+02  0.75313922378E+02  0.15784820943E+03  0.12509000000E+03 0.  0.
         25    1    4    4    0    0 -0.63236494495E+02 -0.44485951080E+01 -0.85586564456E+02  0.16429002511E+03  0.12509000000E+03 0.  0.
         25    1    4    4    0    0  0.10277971466E+02 -0.23689582786E+02 -0.43479432817E+02  0.13492517263E+03  0.12509000000E+03 0.  0.
<mgrwt>
<rscale>  2 0.45389170E+03</rscale>
<asrwt>0</asrwt>
<pdfrwt beam="1">  1       21 0.29655245E-01 0.45389170E+03</pdfrwt>
<pdfrwt beam="2">  1       21 0.37559962E-01 0.45389170E+03</pdfrwt>
<totfact> 0.69002928E+04</totfact>
</mgrwt>
</event>
<event>
 7    0  0.4784406E-002  0.4772970E+03  0.7546771E-02  0.1019881E+00
         21   -1    0    0  502  501  0.00000000000E+00  0.00000000000E+00  0.75397628938E+03  0.75397628938E+03  0.00000000000E+00 0. -1.
         21   -1    0    0  501  502 -0.00000000000E+00 -0.00000000000E+00 -0.75536998505E+02  0.75536998505E+02  0.00000000000E+00 0. -1.
      99926    2    1    2    0    0 -0.14210854715E-13  0.35527136788E-14  0.67843929088E+03  0.82951328789E+03  0.47729699703E+03 0.  0.
      99925    2    3    3    0    0  0.12214990478E+03  0.18712873591E+02  0.33344160640E+03  0.44229024974E+03  0.26299541681E+03 0.  0.
         25    1    3    3    0    0 -0.12214990478E+03 -0.18712873591E+02  0.34499768448E+03  0.38722303814E+03  0.12509000000E+03 0.  0.
         25    1    4    4    0    0  0.88460595685E+02 -0.19046585210E+01  0.22434606776E+03  0.27167548828E+03  0.12509000000E+03 0.  0.
         25    1    4    4    0    0  0.33689309091E+02  0.20617532112E+02  0.10909553864E+03  0.17061476146E+03  0.12509000000E+03 0.  0.
<mgrwt>
<rscale>  2 0.47729700E+03</rscale>
<asrwt>0</asrwt>
<pdfrwt beam="1">  1       21 0.11087886E+00 0.47729700E+03</pdfrwt>
<pdfrwt beam="2">  1       21 0.11108383E-01 0.47729700E+03</pdfrwt>
<totfact> 0.39072621E+04</totfact>
</mgrwt>
</event>
<event>
 7    0  0.4784406E-002  0.4630407E+03  0.7546771E-02  0.1023903E+00
         21   -1    0    0  502  501  0.00000000000E+00  0.00000000000E+00  0.25146022875E+03  0.25146022875E+03  0.00000000000E+00 0. -1.
         21   -1    0    0  501  502 -0.00000000000E+00 -0.00000000000E+00 -0.21316160128E+03  0.21316160128E+03  0.00000000000E+00 0. -1.
      99926    2    1    2    0    0  0.00000000000E+00 -0.35527136788E-14  0.38298627474E+02  0.46462183003E+03  0.46304066784E+03 0.  0.
      99925    2    3    3    0    0 -0.75223116439E+02  0.23788875941E+02 -0.67447597988E+02  0.28281368894E+03  0.26307789020E+03 0.  0.
         25    1    4    4    0    0 -0.53543718210E+02 -0.11227711667E+02 -0.38949319854E+01  0.13658576011E+03  0.12509000000E+03 0.  0.
         25    1    3    3    0    0  0.75223116439E+02 -0.23788875941E+02  0.10574622546E+03  0.18180814109E+03  0.12509000000E+03 0.  0.
         25    1    4    4    0    0 -0.21679398230E+02  0.35016587608E+02 -0.63552666003E+02  0.14622792883E+03  0.12509000000E+03 0.  0.
<mgrwt>
<rscale>  2 0.46304067E+03</rscale>
<asrwt>0</asrwt>
<pdfrwt beam="1">  1       21 0.36979445E-01 0.46304067E+03</pdfrwt>
<pdfrwt beam="2">  1       21 0.31347294E-01 0.46304067E+03</pdfrwt>
<totfact> 0.63663266E+04</totfact>
</mgrwt>
</event>
<event>
 7    0  0.4784406E-002  0.4575082E+03  0.7546771E-02  0.1025506E+00
         21   -1    0    0  502  501  0.00000000000E+00  0.00000000000E+00  0.11903233843E+03  0.11903233843E+03  0.00000000000E+00 0. -1.
         21   -1    0    0  501  502 -0.00000000000E+00 -0.00000000000E+00 -0.43961530196E+03  0.43961530196E+03  0.00000000000E+00 0. -1.
      99926    2    1    2    0    0  0.00000000000E+00  0.00000000000E+00 -0.32058296353E+03  0.55864764039E+03  0.45750819622E+03 0.  0.
      99925    2    3    3    0    0 -0.10457414441E+03  0.42263906746E+02 -0.17087356388E+03  0.33329812977E+03  0.26299786878E+03 0.  0.
         25    1    4    4    0    0 -0.61863049054E+02  0.48388890290E+02 -0.55646296996E+02  0.15783706792E+03  0.12509000000E+03 0.  0.
         25    1    4    4    0    0 -0.42711095360E+02 -0.61249835440E+01 -0.11522726689E+03  0.17546106185E+03  0.12509000000E+03 0.  0.
         25    1    3    3    0    0  0.10457414441E+03 -0.42263906746E+02 -0.14970939965E+03  0.22534951062E+03  0.12509000000E+03 0.  0.
<mgrwt>
<rscale>  2 0.45750820E+03</rscale>
<asrwt>0</asrwt>
<pdfrwt beam="1">  1       21 0.17504756E-01 0.45750820E+03</pdfrwt>
<pdfrwt beam="2">  1       21 0.64649308E-01 0.45750820E+03</pdfrwt>
<totfact> 0.60097403E+04</totfact>
</mgrwt>
</event>
<event>
 7    0  0.4784406E-002  0.4517862E+03  0.7546771E-02  0.1027191E+00
         21   -1    0    0  502  501  0.00000000000E+00  0.00000000000E+00  0.14262847596E+03  0.14262847596E+03  0.00000000000E+00 0. -1.
         21   -1    0    0  501  502 -0.00000000000E+00 -0.00000000000E+00 -0.35776653438E+03  0.35776653438E+03  0.00000000000E+00 0. -1.
      99926    2    1    2    0    0  0.00000000000E+00  0.71054273576E-14 -0.21513805842E+03  0.50039501033E+03  0.45178621292E+03 0.  0.
      99925    2    3    3    0    0  0.63353906213E+02  0.48887276355E+02 -0.21949679713E+03  0.35183461882E+03  0.26306856868E+03 0.  0.
         25    1    4    4    0    0  0.34281240303E+02  0.52718017781E+02 -0.15218006711E+03  0.20678654154E+03  0.12509000000E+03 0.  0.
         25    1    3    3    0    0 -0.63353906213E+02 -0.48887276355E+02  0.43587387109E+01  0.14856039151E+03  0.12509000000E+03 0.  0.
         25    1    4    4    0    0  0.29072665911E+02 -0.38307414259E+01 -0.67316730016E+02  0.14504807728E+03  0.12509000000E+03 0.  0.
<mgrwt>
<rscale>  2 0.45178621E+03</rscale>
<asrwt>0</asrwt>
<pdfrwt beam="1">  1       21 0.20974776E-01 0.45178621E+03</pdfrwt>
<pdfrwt beam="2">  1       21 0.52612724E-01 0.45178621E+03</pdfrwt>
<totfact> 0.66934197E+04</totfact>
</mgrwt>
</event>
<event>
 7    0  0.4784406E-002  0.4727647E+03  0.7546771E-02  0.1021143E+00
         21   -1    0    0  502  501  0.00000000000E+00  0.00000000000E+00  0.68834301907E+02  0.68834301907E+02  0.00000000000E+00 0. -1.
         21   -1    0    0  501  502 -0.00000000000E+00 -0.00000000000E+00 -0.81175523582E+03  0.81175523582E+03  0.00000000000E+00 0. -1.
      99926    2    1    2    0    0  0.00000000000E+00  0.00000000000E+00 -0.74292093392E+03  0.88058953773E+03  0.47276465594E+03 0.  0.
      99925    2    3    3    0    0 -0.36091401513E+02  0.81857361946E+02 -0.28753145844E+03  0.39993342424E+03  0.26319040115E+03 0.  0.
         25    1    4    4    0    0 -0.19996095499E+02  0.50440647878E+02 -0.89649601232E+02  0.16318290932E+03  0.12509000000E+03 0.  0.
         25    1    4    4    0    0 -0.16095306014E+02  0.31416714068E+02 -0.19788185721E+03  0.23675051491E+03  0.12509000000E+03 0.  0.
         25    1    3    3    0    0  0.36091401513E+02 -0.81857361946E+02 -0.45538947547E+03  0.48065611350E+03  0.12509000000E+03 0.  0.
<mgrwt>
<rscale>  2 0.47276466E+03</rscale>
<asrwt>0</asrwt>
<pdfrwt beam="1">  1       21 0.10122692E-01 0.47276466E+03</pdfrwt>
<pdfrwt beam="2">  1       21 0.11937576E+00 0.47276466E+03</pdfrwt>
<totfact> 0.38448458E+04</totfact>
</mgrwt>
</event>
<event>
 7    0  0.4784406E-002  0.4501270E+03  0.7546771E-02  0.1027684E+00
         21   -1    0    0  502  501  0.00000000000E+00  0.00000000000E+00  0.13264805189E+03  0.13264805189E+03  0.00000000000E+00 0. -1.
         21   -1    0    0  501  502 -0.00000000000E+00 -0.00000000000E+00 -0.38186444008E+03  0.38186444008E+03  0.00000000000E+00 0. -1.
      99926    2    1    2    0    0  0.00000000000E+00  0.00000000000E+00 -0.24921638819E+03  0.51451249196E+03  0.45012697791E+03 0.  0.
      99925    2    3    3    0    0  0.95752787188E+02 -0.43368241421E+02 -0.18830329702E+03  0.34013556289E+03  0.26302978701E+03 0.  0.
         25    1    4    4    0    0  0.37003603616E+02  0.13399044483E+02 -0.11159035585E+03  0.17218802714E+03  0.12509000000E+03 0.  0.
         25    1    3    3    0    0 -0.95752787188E+02  0.43368241421E+02 -0.60913091169E+02  0.17437692908E+03  0.12509000000E+03 0.  0.
         25    1    4    4    0    0  0.58749183572E+02 -0.56767285903E+02 -0.76712941173E+02  0.16794753574E+03  0.12509000000E+03 0.  0.
<mgrwt>
<rscale>  2 0.45012698E+03</rscale>
<asrwt>0</asrwt>
<pdfrwt beam="1">  1       21 0.19507067E-01 0.45012698E+03</pdfrwt>
<pdfrwt beam="2">  1       21 0.56156534E-01 0.45012698E+03</pdfrwt>
<totfact> 0.66808694E+04</totfact>
</mgrwt>
</event>
<event>
 7    0  0.4784406E-002  0.4516199E+03  0.7546771E-02  0.1027240E+00
         21   -1    0    0  502  501  0.00000000000E+00  0.00000000000E+00  0.23084784541E+03  0.23084784541E+03  0.00000000000E+00 0. -1.
         21   -1    0    0  501  502 -0.00000000000E+00 -0.00000000000E+00 -0.22088203124E+03  0.22088203124E+03  0.00000000000E+00 0. -1.
      99926    2    1    2    0    0  0.00000000000E+00  0.14210854715E-13  0.99658141678E+01  0.45172987664E+03  0.45161993313E+03 0.  0.
      99925    2    3    3    0    0 -0.35596848563E+02  0.64019302351E+02  0.88282644652E+02  0.28696750006E+03  0.26304165838E+03 0.  0.
         25    1    3    3    0    0  0.35596848563E+02 -0.64019302351E+02 -0.78316830484E+02  0.16476237659E+03  0.12509000000E+03 0.  0.
         25    1    4    4    0    0 -0.24477767878E+02 -0.46848733524E+01  0.22872895197E+02  0.12958312619E+03  0.12509000000E+03 0.  0.
         25    1    4    4    0    0 -0.11119080685E+02  0.68704175703E+02  0.65409749455E+02  0.15738437387E+03  0.12509000000E+03 0.  0.
<mgrwt>
<rscale>  2 0.45161993E+03</rscale>
<asrwt>0</asrwt>
<pdfrwt beam="1">  1       21 0.33948213E-01 0.45161993E+03</pdfrwt>
<pdfrwt beam="2">  1       21 0.32482651E-01 0.45161993E+03</pdfrwt>
<totfact> 0.70672887E+04</totfact>
</mgrwt>
</event>
<event>
 7    0  0.4784406E-002  0.4548816E+03  0.7546771E-02  0.1026276E+00
         21   -1    0    0  502  501  0.00000000000E+00  0.00000000000E+00  0.68322175181E+03  0.68322175181E+03  0.00000000000E+00 0.  1.
         21   -1    0    0  501  502 -0.00000000000E+00 -0.00000000000E+00 -0.75713819404E+02  0.75713819404E+02  0.00000000000E+00 0.  1.
      99926    2    1    2    0    0  0.00000000000E+00  0.00000000000E+00  0.60750793241E+03  0.75893557122E+03  0.45488164760E+03 0.  0.
      99925    2    3    3    0    0  0.25730283555E+02 -0.35112833181E+02  0.20815095513E+03  0.33818806742E+03  0.26296271652E+03 0.  0.
         25    1    4    4    0    0  0.39796301537E+02 -0.40019430276E+02  0.81775832553E+02  0.15975010268E+03  0.12509000000E+03 0.  0.
         25    1    3    3    0    0 -0.25730283555E+02  0.35112833181E+02  0.39935697728E+03  0.42074750379E+03  0.12509000000E+03 0.  0.
         25    1    4    4    0    0 -0.14066017981E+02  0.49065970945E+01  0.12637512258E+03  0.17843796475E+03  0.12509000000E+03 0.  0.
<mgrwt>
<rscale>  2 0.45488165E+03</rscale>
<asrwt>0</asrwt>
<pdfrwt beam="1">  1       21 0.10047378E+00 0.45488165E+03</pdfrwt>
<pdfrwt beam="2">  1       21 0.11134386E-01 0.45488165E+03</pdfrwt>
<totfact> 0.49860971E+04</totfact>
</mgrwt>
</event>
<event>
 7    0  0.4784406E-002  0.4547742E+03  0.7546771E-02  0.1026308E+00
         21   -1    0    0  502  501  0.00000000000E+00  0.00000000000E+00  0.70869568857E+02  0.70869568857E+02  0.00000000000E+00 0. -1.
         21   -1    0    0  501  502 -0.00000000000E+00 -0.00000000000E+00 -0.72957836127E+03  0.72957836127E+03  0.00000000000E+00 0. -1.
      99926    2    1    2    0    0  0.71054273576E-14  0.00000000000E+00 -0.65870879241E+03  0.80044793013E+03  0.45477424690E+03 0.  0.
      99925    2    3    3    0    0 -0.38380930494E+02 -0.12257342293E+02 -0.22904612311E+03  0.35113639482E+03  0.26308041164E+03 0.  0.
         25    1    4    4    0    0 -0.48935109097E+02  0.92590377563E+01 -0.14845028070E+03  0.20041299515E+03  0.12509000000E+03 0.  0.
         25    1    4    4    0    0  0.10554178604E+02 -0.21516380050E+02 -0.80595842405E+02  0.15072339967E+03  0.12509000000E+03 0.  0.
         25    1    3    3    0    0  0.38380930494E+02  0.12257342293E+02 -0.42966266930E+03  0.44931153531E+03  0.12509000000E+03 0.  0.
<mgrwt>
<rscale>  2 0.45477425E+03</rscale>
<asrwt>0</asrwt>
<pdfrwt beam="1">  1       21 0.10421995E-01 0.45477425E+03</pdfrwt>
<pdfrwt beam="2">  1       21 0.10729094E+00 0.45477425E+03</pdfrwt>
<totfact> 0.47827826E+04</totfact>
</mgrwt>
</event>
<event>
 7    0  0.4784406E-002  0.4440366E+03  0.7546771E-02  0.1029515E+00
         21   -1    0    0  502  501  0.00000000000E+00  0.00000000000E+00  0.20061739411E+02  0.20061739411E+02  0.00000000000E+00 0. -1.
         21   -1    0    0  501  502 -0.00000000000E+00 -0.00000000000E+00 -0.24570211829E+04  0.24570211829E+04  0.00000000000E+00 0. -1.
      99926    2    1    2    0    0 -0.71054273576E-14  0.00000000000E+00 -0.24369594435E+04  0.24770829223E+04  0.44403656922E+03 0.  0.
      99925    2    3    3    0    0 -0.47090536055E+02 -0.71539185280E+02 -0.18657936159E+04  0.18861402142E+04  0.26268558528E+03 0.  0.
         25    1    4    4    0    0 -0.53657137115E+02 -0.43525492980E+02 -0.11601113778E+04  0.11688795806E+04  0.12509000000E+03 0.  0.
         25    1    3    3    0    0  0.47090536055E+02  0.71539185280E+02 -0.57116582761E+03  0.59094270818E+03  0.12509000000E+03 0.  0.
         25    1    4    4    0    0  0.65666010609E+01 -0.28013692300E+02 -0.70568223811E+03  0.71726063358E+03  0.12509000000E+03 0.  0.
<mgrwt>
<rscale>  2 0.44403657E+03</rscale>
<asrwt>0</asrwt>
<pdfrwt beam="1">  1       21 0.29502540E-02 0.44403657E+03</pdfrwt>
<pdfrwt beam="2">  1       21 0.36132687E+00 0.44403657E+03</pdfrwt>
<totfact> 0.80322002E+03</totfact>
</mgrwt>
</event>
<event>
 7    0  0.4784406E-002  0.4516622E+03  0.7546771E-02  0.1027228E+00
         21   -1    0    0  502  501  0.00000000000E+00  0.00000000000E+00  0.11162928785E+03  0.11162928785E+03  0.00000000000E+00 0. -1.
         21   -1    0    0  501  502 -0.00000000000E+00 -0.00000000000E+00 -0.45686645988E+03  0.45686645988E+03  0.00000000000E+00 0. -1.
      99926    2    1    2    0    0  0.00000000000E+00  0.00000000000E+00 -0.34523717203E+03  0.56849574773E+03  0.45166216383E+03 0.  0.
      99925    2    3    3    0    0 -0.78812922781E+02  0.60988020907E+02 -0.15928987510E+03  0.32323074651E+03  0.26300919316E+03 0.  0.
         25    1    4    4    0    0 -0.78066165039E+02  0.16396736764E+02 -0.88211019705E+02  0.17260321897E+03  0.12509000000E+03 0.  0.
         25    1    3    3    0    0  0.78812922781E+02 -0.60988020907E+02 -0.18594729693E+03  0.24526500122E+03  0.12509000000E+03 0.  0.
         25    1    4    4    0    0 -0.74675774256E+00  0.44591284143E+02 -0.71078855400E+02  0.15062752754E+03  0.12509000000E+03 0.  0.
<mgrwt>
<rscale>  2 0.45166216E+03</rscale>
<asrwt>0</asrwt>
<pdfrwt beam="1">  1       21 0.16416072E-01 0.45166216E+03</pdfrwt>
<pdfrwt beam="2">  1       21 0.67186244E-01 0.45166216E+03</pdfrwt>
<totfact> 0.62288539E+04</totfact>
</mgrwt>
</event>
<event>
 7    0  0.4784406E-002  0.4746254E+03  0.7546771E-02  0.1020623E+00
         21   -1    0    0  502  501  0.00000000000E+00  0.00000000000E+00  0.38021612383E+03  0.38021612383E+03  0.00000000000E+00 0. -1.
         21   -1    0    0  501  502 -0.00000000000E+00 -0.00000000000E+00 -0.14811923792E+03  0.14811923792E+03  0.00000000000E+00 0. -1.
      99926    2    1    2    0    0  0.00000000000E+00  0.00000000000E+00  0.23209688591E+03  0.52833536175E+03  0.47462542075E+03 0.  0.
      99925    2    3    3    0    0 -0.10871914609E+03 -0.26296502231E+02  0.21876877420E+03  0.36000085721E+03  0.26311495942E+03 0.  0.
         25    1    4    4    0    0 -0.52913744313E+02  0.54448343012E+01  0.15335404641E+03  0.20492555284E+03  0.12509000000E+03 0.  0.
         25    1    4    4    0    0 -0.55805401775E+02 -0.31741336532E+02  0.65414727794E+02  0.15507530437E+03  0.12509000000E+03 0.  0.
         25    1    3    3    0    0  0.10871914609E+03  0.26296502231E+02  0.13328111705E+02  0.16833450454E+03  0.12509000000E+03 0.  0.
<mgrwt>
<rscale>  2 0.47462542E+03</rscale>
<asrwt>0</asrwt>
<pdfrwt beam="1">  1       21 0.55914136E-01 0.47462542E+03</pdfrwt>
<pdfrwt beam="2">  1       21 0.21782241E-01 0.47462542E+03</pdfrwt>
<totfact> 0.54352914E+04</totfact>
</mgrwt>
</event>
<event>
 7    0  0.4784406E-002  0.4492835E+03  0.7546771E-02  0.1027936E+00
         21   -1    0    0  502  501  0.00000000000E+00  0.00000000000E+00  0.27395844984E+03  0.27395844984E+03  0.00000000000E+00 0.  1.
         21   -1    0    0  501  502 -0.00000000000E+00 -0.00000000000E+00 -0.18420277225E+03  0.18420277225E+03  0.00000000000E+00 0.  1.
      99926    2    1    2    0    0  0.00000000000E+00  0.35527136788E-14  0.89755677590E+02  0.45816122208E+03  0.44928345592E+03 0.  0.
      99925    2    3    3    0    0  0.73370262476E+02 -0.11898999238E+01  0.13730864277E+03  0.30553945471E+03  0.26289937947E+03 0.  0.
         25    1    4    4    0    0  0.15295827008E+02 -0.33715161005E+02  0.54175543694E+02  0.14125569737E+03  0.12509000000E+03 0.  0.
         25    1    3    3    0    0 -0.73370262476E+02  0.11898999238E+01 -0.47552965182E+02  0.15262176737E+03  0.12509000000E+03 0.  0.
         25    1    4    4    0    0  0.58074435468E+02  0.32525261081E+02  0.83133099078E+02  0.16428375734E+03  0.12509000000E+03 0.  0.
<mgrwt>
<rscale>  2 0.44928346E+03</rscale>
<asrwt>0</asrwt>
<pdfrwt beam="1">  1       21 0.40288007E-01 0.44928346E+03</pdfrwt>
<pdfrwt beam="2">  1       21 0.27088643E-01 0.44928346E+03</pdfrwt>
<totfact> 0.71515485E+04</totfact>
</mgrwt>
</event>
<event>
 7    0  0.4784406E-002  0.4584735E+03  0.7546771E-02  0.1025225E+00
         21   -1    0    0  502  501  0.00000000000E+00  0.00000000000E+00  0.54641736301E+02  0.54641736301E+02  0.00000000000E+00 0.  1.
         21   -1    0    0  501  502 -0.00000000000E+00 -0.00000000000E+00 -0.96170954181E+03  0.96170954181E+03  0.00000000000E+00 0.  1.
      99926    2    1    2    0    0 -0.71054273576E-14 -0.14210854715E-13 -0.90706780551E+03  0.10163512781E+04  0.45847346349E+03 0.  0.
      99925    2    3    3    0    0 -0.28249123250E+02 -0.10046371491E+03 -0.68318124507E+03  0.73946922557E+03  0.26303450527E+03 0.  0.
         25    1    4    4    0    0  0.25187906702E+02 -0.40148959204E+02 -0.30349491463E+03  0.33166706329E+03  0.12509000000E+03 0.  0.
         25    1    3    3    0    0  0.28249123250E+02  0.10046371491E+03 -0.22388656043E+03  0.27688205254E+03  0.12509000000E+03 0.  0.
         25    1    4    4    0    0 -0.53437029952E+02 -0.60314755707E+02 -0.37968633045E+03  0.40780216227E+03  0.12509000000E+03 0.  0.
<mgrwt>
<rscale>  2 0.45847346E+03</rscale>
<asrwt>0</asrwt>
<pdfrwt beam="1">  1       21 0.80355501E-02 0.45847346E+03</pdfrwt>
<pdfrwt beam="2">  1       21 0.14142786E+00 0.45847346E+03</pdfrwt>
<totfact> 0.37509077E+04</totfact>
</mgrwt>
</event>
<event>
 7    0  0.4784406E-002  0.4552453E+03  0.7546771E-02  0.1026169E+00
         21   -1    0    0  502  501  0.00000000000E+00  0.00000000000E+00  0.15184266710E+03  0.15184266710E+03  0.00000000000E+00 0. -1.
         21   -1    0    0  501  502 -0.00000000000E+00 -0.00000000000E+00 -0.34122209879E+03  0.34122209879E+03  0.00000000000E+00 0. -1.
      99926    2    1    2    0    0  0.00000000000E+00  0.00000000000E+00 -0.18937943169E+03  0.49306476589E+03  0.45524531212E+03 0.  0.
      99925    2    3    3    0    0  0.28007385854E+02  0.79968337221E+02 -0.39602870905E+02  0.28032108235E+03  0.26425777795E+03 0.  0.
         25    1    3    3    0    0 -0.28007385854E+02 -0.79968337221E+02 -0.14977656079E+03  0.21274368353E+03  0.12509000000E+03 0.  0.
         25    1    4    4    0    0 -0.16369087633E+02  0.57437217354E+02  0.43976251701E+01  0.13868607780E+03  0.12509000000E+03 0.  0.
         25    1    4    4    0    0  0.44376473487E+02  0.22531119867E+02 -0.44000496075E+02  0.14163500456E+03  0.12509000000E+03 0.  0.
<mgrwt>
<rscale>  2 0.45524531E+03</rscale>
<asrwt>0</asrwt>
<pdfrwt beam="1">  1       21 0.22329805E-01 0.45524531E+03</pdfrwt>
<pdfrwt beam="2">  1       21 0.50179719E-01 0.45524531E+03</pdfrwt>
<totfact> 0.65632766E+04</totfact>
</mgrwt>
</event>
<event>
 7    0  0.4784406E-002  0.4514638E+03  0.7546771E-02  0.1027286E+00
         21   -1    0    0  502  501  0.00000000000E+00  0.00000000000E+00  0.45761599325E+02  0.45761599325E+02  0.00000000000E+00 0.  1.
         21   -1    0    0  501  502 -0.00000000000E+00 -0.00000000000E+00 -0.11134856348E+04  0.11134856348E+04  0.00000000000E+00 0.  1.
      99926    2    1    2    0    0  0.17763568394E-14  0.00000000000E+00 -0.10677240355E+04  0.11592472341E+04  0.45146376809E+03 0.  0.
      99925    2    3    3    0    0 -0.10710636280E+02  0.10004187591E+03 -0.56058472320E+03  0.62730655621E+03  0.26293571251E+03 0.  0.
         25    1    4    4    0    0 -0.35272617360E+02  0.35473742593E+02 -0.22020543479E+03  0.25814818528E+03  0.12509000000E+03 0.  0.
         25    1    4    4    0    0  0.24561981079E+02  0.64568133319E+02 -0.34037928841E+03  0.36915837094E+03  0.12509000000E+03 0.  0.
         25    1    3    3    0    0  0.10710636280E+02 -0.10004187591E+03 -0.50713931228E+03  0.53194067792E+03  0.12509000000E+03 0.  0.
<mgrwt>
<rscale>  2 0.45146377E+03</rscale>
<asrwt>0</asrwt>
<pdfrwt beam="1">  1       21 0.67296469E-02 0.45146377E+03</pdfrwt>
<pdfrwt beam="2">  1       21 0.16374789E+00 0.45146377E+03</pdfrwt>
<totfact> 0.34413742E+04</totfact>
</mgrwt>
</event>
<event>
 7    0  0.4784406E-002  0.4585707E+03  0.7546771E-02  0.1025197E+00
         21   -1    0    0  502  501  0.00000000000E+00  0.00000000000E+00  0.99139235358E+02  0.99139235358E+02  0.00000000000E+00 0. -1.
         21   -1    0    0  501  502 -0.00000000000E+00 -0.00000000000E+00 -0.53028209691E+03  0.53028209691E+03  0.00000000000E+00 0. -1.
      99926    2    1    2    0    0  0.00000000000E+00  0.00000000000E+00 -0.43114286155E+03  0.62942133227E+03  0.45857065589E+03 0.  0.
      99925    2    3    3    0    0 -0.36166731746E+02 -0.10943798893E+03 -0.24649458270E+03  0.37836914469E+03  0.26290478209E+03 0.  0.
         25    1    4    4    0    0 -0.23063700011E+02 -0.39727416654E+02 -0.69409771934E+02  0.15025121108E+03  0.12509000000E+03 0.  0.
         25    1    4    4    0    0 -0.13103031736E+02 -0.69710572274E+02 -0.17708481077E+03  0.22811793360E+03  0.12509000000E+03 0.  0.
         25    1    3    3    0    0  0.36166731746E+02  0.10943798893E+03 -0.18464827885E+03  0.25105218758E+03  0.12509000000E+03 0.  0.
<mgrwt>
<rscale>  2 0.45857066E+03</rscale>
<asrwt>0</asrwt>
<pdfrwt beam="1">  1       21 0.14579299E-01 0.45857066E+03</pdfrwt>
<pdfrwt beam="2">  1       21 0.77982660E-01 0.45857066E+03</pdfrwt>
<totfact> 0.55326753E+04</totfact>
</mgrwt>
</event>
<event>
 7    0  0.4784406E-002  0.4476439E+03  0.7546771E-02  0.1028427E+00
         21   -1    0    0  502  501  0.00000000000E+00  0.00000000000E+00  0.20172547329E+03  0.20172547329E+03  0.00000000000E+00 0.  1.
         21   -1    0    0  501  502 -0.00000000000E+00 -0.00000000000E+00 -0.24833884871E+03  0.24833884871E+03  0.00000000000E+00 0.  1.
      99926    2    1    2    0    0  0.00000000000E+00  0.00000000000E+00 -0.46613375417E+02  0.45006432201E+03  0.44764392900E+03 0.  0.
      99925    2    3    3    0    0  0.32361653524E+02  0.72167165788E+02 -0.10062408100E+03  0.29252054760E+03  0.26303552736E+03 0.  0.
         25    1    4    4    0    0  0.30538079659E+02  0.68277054736E+02 -0.29982197525E+02  0.14879775126E+03  0.12509000000E+03 0.  0.
         25    1    3    3    0    0 -0.32361653524E+02 -0.72167165788E+02  0.54010705582E+02  0.15754377441E+03  0.12509000000E+03 0.  0.
         25    1    4    4    0    0  0.18235738644E+01  0.38901110512E+01 -0.70641883474E+02  0.14372279634E+03  0.12509000000E+03 0.  0.
<mgrwt>
<rscale>  2 0.44764393E+03</rscale>
<asrwt>0</asrwt>
<pdfrwt beam="1">  1       21 0.29665511E-01 0.44764393E+03</pdfrwt>
<pdfrwt beam="2">  1       21 0.36520419E-01 0.44764393E+03</pdfrwt>
<totfact> 0.73106221E+04</totfact>
</mgrwt>
</event>
<event>
 7    0  0.4784406E-002  0.4514744E+03  0.7546771E-02  0.1027283E+00
         21   -1    0    0  502  501  0.00000000000E+00  0.00000000000E+00  0.23643559034E+02  0.23643559034E+02  0.00000000000E+00 0.  1.
         21   -1    0    0  501  502 -0.00000000000E+00 -0.00000000000E+00 -0.21552290786E+04  0.21552290786E+04  0.00000000000E+00 0.  1.
      99926    2    1    2    0    0  0.71054273576E-14 -0.71054273576E-14 -0.21315855196E+04  0.21788726376E+04  0.45147441102E+03 0.  0.
      99925    2    3    3    0    0 -0.30899468586E+02  0.43079221376E+02 -0.88191269484E+03  0.92183633210E+03  0.26306201814E+03 0.  0.
         25    1    4    4    0    0 -0.27842244308E+02  0.61894562915E+01 -0.31537961383E+03  0.34047805929E+03  0.12509000000E+03 0.  0.
         25    1    4    4    0    0 -0.30572242774E+01  0.36889765085E+02 -0.56653308100E+03  0.58135827280E+03  0.12509000000E+03 0.  0.
         25    1    3    3    0    0  0.30899468586E+02 -0.43079221376E+02 -0.12496728247E+04  0.12570363055E+04  0.12509000000E+03 0.  0.
<mgrwt>
<rscale>  2 0.45147441E+03</rscale>
<asrwt>0</asrwt>
<pdfrwt beam="1">  1       21 0.34769936E-02 0.45147441E+03</pdfrwt>
<pdfrwt beam="2">  1       21 0.31694549E+00 0.45147441E+03</pdfrwt>
<totfact> 0.11309672E+04</totfact>
</mgrwt>
</event>
<event>
 7    0  0.4784406E-002  0.4362699E+03  0.7546771E-02  0.1031897E+00
         21   -1    0    0  502  501  0.00000000000E+00  0.00000000000E+00  0.19686798869E+03  0.19686798869E+03  0.00000000000E+00 0.  1.
         21   -1    0    0  501  502 -0.00000000000E+00 -0.00000000000E+00 -0.24169934733E+03  0.24169934733E+03  0.00000000000E+00 0.  1.
      99926    2    1    2    0    0  0.71054273576E-14  0.00000000000E+00 -0.44831358633E+02  0.43856733602E+03  0.43626993652E+03 0.  0.
      99925    2    3    3    0    0  0.60453451706E+02 -0.72140839191E+02 -0.18558087232E+02  0.27983260953E+03  0.26287443058E+03 0.  0.
         25    1    4    4    0    0  0.33270521715E+02 -0.31546796053E+02  0.30827621877E+02  0.13674786407E+03  0.12509000000E+03 0.  0.
         25    1    3    3    0    0 -0.60453451706E+02  0.72140839191E+02 -0.26273271401E+02  0.15873472649E+03  0.12509000000E+03 0.  0.
         25    1    4    4    0    0  0.27182929991E+02 -0.40594043139E+02 -0.49385709108E+02  0.14308474547E+03  0.12509000000E+03 0.  0.
<mgrwt>
<rscale>  2 0.43626994E+03</rscale>
<asrwt>0</asrwt>
<pdfrwt beam="1">  1       21 0.28951175E-01 0.43626994E+03</pdfrwt>
<pdfrwt beam="2">  1       21 0.35544021E-01 0.43626994E+03</pdfrwt>
<totfact> 0.81245958E+04</totfact>
</mgrwt>
</event>
<event>
 7    0  0.4784406E-002  0.4494300E+03  0.7546771E-02  0.1027892E+00
         21   -1    0    0  502  501  0.00000000000E+00  0.00000000000E+00  0.19754387689E+03  0.19754387689E+03  0.00000000000E+00 0.  1.
         21   -1    0    0  501  502 -0.00000000000E+00 -0.00000000000E+00 -0.25562332955E+03  0.25562332955E+03  0.00000000000E+00 0.  1.
      99926    2    1    2    0    0  0.71054273576E-14  0.00000000000E+00 -0.58079452661E+02  0.45316720644E+03  0.44942996582E+03 0.  0.
      99925    2    3    3    0    0 -0.48129903344E+02  0.87859100059E+02 -0.77756470033E+02  0.29170389119E+03  0.26269636930E+03 0.  0.
         25    1    3    3    0    0  0.48129903344E+02 -0.87859100059E+02  0.19677017372E+02  0.16146331525E+03  0.12509000000E+03 0.  0.
         25    1    4    4    0    0  0.13134430770E+02  0.26143681342E+02 -0.28471283770E+02  0.13158315791E+03  0.12509000000E+03 0.  0.
         25    1    4    4    0    0 -0.61264334113E+02  0.61715418717E+02 -0.49285186263E+02  0.16012073328E+03  0.12509000000E+03 0.  0.
<mgrwt>
<rscale>  2 0.44942997E+03</rscale>
<asrwt>0</asrwt>
<pdfrwt beam="1">  1       21 0.29050570E-01 0.44942997E+03</pdfrwt>
<pdfrwt beam="2">  1       21 0.37591666E-01 0.44942997E+03</pdfrwt>
<totfact> 0.71818985E+04</totfact>
</mgrwt>
</event>
<event>
 7    0  0.4784406E-002  0.4539061E+03  0.7546771E-02  0.1026564E+00
         21   -1    0    0  502  501  0.00000000000E+00  0.00000000000E+00  0.58227016696E+02  0.58227016696E+02  0.00000000000E+00 0. -1.
         21   -1    0    0  501  502 -0.00000000000E+00 -0.00000000000E+00 -0.88460108135E+03  0.88460108135E+03  0.00000000000E+00 0. -1.
      99926    2    1    2    0    0  0.71054273576E-14  0.88817841970E-15 -0.82637406465E+03  0.94282809804E+03  0.45390607810E+03 0.  0.
      99925    2    3    3    0    0 -0.63051437485E+02 -0.70080314374E+01 -0.71249314881E+03  0.76215998418E+03  0.26309077923E+03 0.  0.
         25    1    4    4    0    0 -0.24094857100E+02  0.34188097918E+02 -0.31049489692E+03  0.33734845085E+03  0.12509000000E+03 0.  0.
         25    1    4    4    0    0 -0.38956580384E+02 -0.41196129355E+02 -0.40199825189E+03  0.42481153333E+03  0.12509000000E+03 0.  0.
         25    1    3    3    0    0  0.63051437485E+02  0.70080314374E+01 -0.11388091584E+03  0.18066811386E+03  0.12509000000E+03 0.  0.
<mgrwt>
<rscale>  2 0.45390608E+03</rscale>
<asrwt>0</asrwt>
<pdfrwt beam="1">  1       21 0.85627966E-02 0.45390608E+03</pdfrwt>
<pdfrwt beam="2">  1       21 0.13008839E+00 0.45390608E+03</pdfrwt>
<totfact> 0.41788938E+04</totfact>
</mgrwt>
</event>
<event>
 7    0  0.4784406E-002  0.4610360E+03  0.7546771E-02  0.1024481E+00
         21   -1    0    0  502  501  0.00000000000E+00  0.00000000000E+00  0.34552570279E+03  0.34552570279E+03  0.00000000000E+00 0. -1.
         21   -1    0    0  501  502 -0.00000000000E+00 -0.00000000000E+00 -0.15379041207E+03  0.15379041207E+03  0.00000000000E+00 0. -1.
      99926    2    1    2    0    0 -0.44408920985E-15  0.14210854715E-13  0.19173529072E+03  0.49931611485E+03  0.46103596481E+03 0.  0.
      99925    2    3    3    0    0  0.34136410122E+01  0.87741891785E+02  0.20657182495E+03  0.34576507003E+03  0.26300431987E+03 0.  0.
         25    1    3    3    0    0 -0.34136410122E+01 -0.87741891785E+02 -0.14836534233E+02  0.15355104483E+03  0.12509000000E+03 0.  0.
         25    1    4    4    0    0 -0.24767009626E+01  0.50557295356E+02  0.55140835649E+02  0.14577446284E+03  0.12509000000E+03 0.  0.
         25    1    4    4    0    0  0.58903419748E+01  0.37184596429E+02  0.15143098930E+03  0.19999060718E+03  0.12509000000E+03 0.  0.
<mgrwt>
<rscale>  2 0.46103596E+03</rscale>
<asrwt>0</asrwt>
<pdfrwt beam="1">  1       21 0.50812603E-01 0.46103596E+03</pdfrwt>
<pdfrwt beam="2">  1       21 0.22616237E-01 0.46103596E+03</pdfrwt>
<totfact> 0.62280557E+04</totfact>
</mgrwt>
</event>
<event>
 7    0  0.4784406E-002  0.4502362E+03  0.7546771E-02  0.1027652E+00
         21   -1    0    0  502  501  0.00000000000E+00  0.00000000000E+00  0.22843293026E+03  0.22843293026E+03  0.00000000000E+00 0.  1.
         21   -1    0    0  501  502 -0.00000000000E+00 -0.00000000000E+00 -0.22185140867E+03  0.22185140867E+03  0.00000000000E+00 0.  1.
      99926    2    1    2    0    0  0.00000000000E+00  0.71054273576E-14  0.65815215929E+01  0.45028433892E+03  0.45023623738E+03 0.  0.
      99925    2    3    3    0    0 -0.19261215425E+02  0.62231982409E+02  0.90814439010E+02  0.28600863612E+03  0.26326766522E+03 0.  0.
         25    1    4    4    0    0  0.17660944339E+02  0.11069283009E+00  0.34501546482E+02  0.13095719155E+03  0.12509000000E+03 0.  0.
         25    1    4    4    0    0 -0.36922159764E+02  0.62121289579E+02  0.56312892528E+02  0.15505144458E+03  0.12509000000E+03 0.  0.
         25    1    3    3    0    0  0.19261215425E+02 -0.62231982409E+02 -0.84232917417E+02  0.16427570280E+03  0.12509000000E+03 0.  0.
<mgrwt>
<rscale>  2 0.45023624E+03</rscale>
<asrwt>0</asrwt>
<pdfrwt beam="1">  1       21 0.33593078E-01 0.45023624E+03</pdfrwt>
<pdfrwt beam="2">  1       21 0.32625207E-01 0.45023624E+03</pdfrwt>
<totfact> 0.71574749E+04</totfact>
</mgrwt>
</event>
<event>
 7    0  0.4784406E-002  0.4515393E+03  0.7546771E-02  0.1027264E+00
         21   -1    0    0  502  501  0.00000000000E+00  0.00000000000E+00  0.11442458698E+03  0.11442458698E+03  0.00000000000E+00 0.  1.
         21   -1    0    0  501  502 -0.00000000000E+00 -0.00000000000E+00 -0.44546320337E+03  0.44546320337E+03  0.00000000000E+00 0.  1.
      99926    2    1    2    0    0  0.00000000000E+00  0.00000000000E+00 -0.33103861638E+03  0.55988779035E+03  0.45153933632E+03 0.  0.
      99925    2    3    3    0    0 -0.10725029108E+03  0.23472460327E+02 -0.20544528661E+03  0.35138173789E+03  0.26307371325E+03 0.  0.
         25    1    4    4    0    0 -0.38371450248E+02  0.18647443988E+02 -0.52863545466E+02  0.14234520681E+03  0.12509000000E+03 0.  0.
         25    1    3    3    0    0  0.10725029108E+03 -0.23472460327E+02 -0.12559332977E+03  0.20850605246E+03  0.12509000000E+03 0.  0.
         25    1    4    4    0    0 -0.68878840830E+02  0.48250163386E+01 -0.15258174115E+03  0.20903653109E+03  0.12509000000E+03 0.  0.
<mgrwt>
<rscale>  2 0.45153934E+03</rscale>
<asrwt>0</asrwt>
<pdfrwt beam="1">  1       21 0.16827145E-01 0.45153934E+03</pdfrwt>
<pdfrwt beam="2">  1       21 0.65509295E-01 0.45153934E+03</pdfrwt>
<totfact> 0.62922603E+04</totfact>
</mgrwt>
</event>
<event>
 7    0  0.4784406E-002  0.4541558E+03  0.7546771E-02  0.1026490E+00
         21   -1    0    0  502  501  0.00000000000E+00  0.00000000000E+00  0.18166247794E+04  0.18166247794E+04  0.00000000000E+00 0.  1.
         21   -1    0    0  501  502 -0.00000000000E+00 -0.00000000000E+00 -0.28384718311E+02  0.28384718311E+02  0.00000000000E+00 0.  1.
      99926    2    1    2    0    0 -0.14210854715E-13 -0.17763568394E-14  0.17882400610E+04  0.18450094977E+04  0.45415584391E+03 0.  0.
      99925    2    3    3    0    0 -0.93523171636E+02 -0.15330501784E+02  0.13713136279E+04  0.13995246307E+04  0.26303330212E+03 0.  0.
         25    1    4    4    0    0 -0.21430777764E+02 -0.25560197077E+01  0.47990316185E+03  0.49640745797E+03  0.12509000000E+03 0.  0.
         25    1    4    4    0    0 -0.72092393871E+02 -0.12774482076E+02  0.89141046607E+03  0.90311717278E+03  0.12509000000E+03 0.  0.
         25    1    3    3    0    0  0.93523171636E+02  0.15330501784E+02  0.41692643312E+03  0.44548486692E+03  0.12509000000E+03 0.  0.
<mgrwt>
<rscale>  2 0.45415584E+03</rscale>
<asrwt>0</asrwt>
<pdfrwt beam="1">  1       21 0.26715062E+00 0.45415584E+03</pdfrwt>
<pdfrwt beam="2">  1       21 0.41742245E-02 0.45415584E+03</pdfrwt>
<totfact> 0.16517798E+04</totfact>
</mgrwt>
</event>
<event>
 7    0  0.4784406E-002  0.4439252E+03  0.7546771E-02  0.1029549E+00
         21   -1    0    0  502  501  0.00000000000E+00  0.00000000000E+00  0.58381587133E+02  0.58381587133E+02  0.00000000000E+00 0.  1.
         21   -1    0    0  501  502 -0.00000000000E+00 -0.00000000000E+00 -0.84388596484E+03  0.84388596484E+03  0.00000000000E+00 0.  1.
      99926    2    1    2    0    0  0.00000000000E+00  0.17763568394E-14 -0.78550437771E+03  0.90226755198E+03  0.44392522788E+03 0.  0.
      99925    2    3    3    0    0 -0.16192858095E+01 -0.59933351861E+01 -0.70729755393E+03  0.75461133796E+03  0.26292565380E+03 0.  0.
         25    1    3    3    0    0  0.16192858095E+01  0.59933351861E+01 -0.78206823781E+02  0.14765621402E+03  0.12509000000E+03 0.  0.
         25    1    4    4    0    0 -0.33285425961E+02 -0.26794096015E+02 -0.34471027944E+03  0.36918630529E+03  0.12509000000E+03 0.  0.
         25    1    4    4    0    0  0.31666140151E+02  0.20800760829E+02 -0.36258727449E+03  0.38542503267E+03  0.12509000000E+03 0.  0.
<mgrwt>
<rscale>  2 0.44392523E+03</rscale>
<asrwt>0</asrwt>
<pdfrwt beam="1">  1       21 0.85855275E-02 0.44392523E+03</pdfrwt>
<pdfrwt beam="2">  1       21 0.12410088E+00 0.44392523E+03</pdfrwt>
<totfact> 0.47085991E+04</totfact>
</mgrwt>
</event>
<event>
 7    0  0.4784406E-002  0.4632228E+03  0.7546771E-02  0.1023851E+00
         21   -1    0    0  502  501  0.00000000000E+00  0.00000000000E+00  0.62880164326E+03  0.62880164326E+03  0.00000000000E+00 0. -1.
         21   -1    0    0  501  502 -0.00000000000E+00 -0.00000000000E+00 -0.85311244897E+02  0.85311244897E+02  0.00000000000E+00 0. -1.
      99926    2    1    2    0    0  0.00000000000E+00  0.00000000000E+00  0.54349039836E+03  0.71411288815E+03  0.46322284477E+03 0.  0.
      99925    2    3    3    0    0  0.82960418802E+02  0.86573138591E+02  0.30709131394E+03  0.42100987789E+03  0.26185282654E+03 0.  0.
         25    1    3    3    0    0 -0.82960418802E+02 -0.86573138591E+02  0.23639908442E+03  0.29310301026E+03  0.12509000000E+03 0.  0.
         25    1    4    4    0    0  0.15699381387E+02  0.70865963130E+02  0.16667049129E+03  0.22066947245E+03  0.12509000000E+03 0.  0.
         25    1    4    4    0    0  0.67261037415E+02  0.15707175462E+02  0.14042082266E+03  0.20034040544E+03  0.12509000000E+03 0.  0.
<mgrwt>
<rscale>  2 0.46322284E+03</rscale>
<asrwt>0</asrwt>
<pdfrwt beam="1">  1       21 0.92470827E-01 0.46322284E+03</pdfrwt>
<pdfrwt beam="2">  1       21 0.12545772E-01 0.46322284E+03</pdfrwt>
<totfact> 0.48902368E+04</totfact>
</mgrwt>
</event>
<event>
 7    0  0.4784406E-002  0.4534928E+03  0.7546771E-02  0.1026686E+00
         21   -1    0    0  502  501  0.00000000000E+00  0.00000000000E+00  0.16125824192E+03  0.16125824192E+03  0.00000000000E+00 0.  1.
         21   -1    0    0  501  502 -0.00000000000E+00 -0.00000000000E+00 -0.31882983315E+03  0.31882983315E+03  0.00000000000E+00 0.  1.
      99926    2    1    2    0    0  0.17763568394E-14  0.00000000000E+00 -0.15757159124E+03  0.48008807507E+03  0.45349283728E+03 0.  0.
      99925    2    3    3    0    0  0.14294212165E+02  0.96586621393E+02 -0.42610484714E+02  0.28413689736E+03  0.26340999051E+03 0.  0.
         25    1    3    3    0    0 -0.14294212165E+02 -0.96586621393E+02 -0.11496110652E+03  0.19595117771E+03  0.12509000000E+03 0.  0.
         25    1    4    4    0    0 -0.16450787202E+02  0.72455750983E+02 -0.47333536803E+02  0.15299815704E+03  0.12509000000E+03 0.  0.
         25    1    4    4    0    0  0.30744999368E+02  0.24130870410E+02  0.47230520886E+01  0.13113874032E+03  0.12509000000E+03 0.  0.
<mgrwt>
<rscale>  2 0.45349284E+03</rscale>
<asrwt>0</asrwt>
<pdfrwt beam="1">  1       21 0.23714448E-01 0.45349284E+03</pdfrwt>
<pdfrwt beam="2">  1       21 0.46886740E-01 0.45349284E+03</pdfrwt>
<totfact> 0.67497579E+04</totfact>
</mgrwt>
</event>
<event>
 7    0  0.4784406E-002  0.4580273E+03  0.7546771E-02  0.1025355E+00
         21   -1    0    0  502  501  0.00000000000E+00  0.00000000000E+00  0.12464010909E+04  0.12464010909E+04  0.00000000000E+00 0. -1.
         21   -1    0    0  501  502 -0.00000000000E+00 -0.00000000000E+00 -0.42078952827E+02  0.42078952827E+02  0.00000000000E+00 0. -1.
      99926    2    1    2    0    0  0.00000000000E+00  0.00000000000E+00  0.12043221380E+04  0.12884800437E+04  0.45802730358E+03 0.  0.
      99925    2    3    3    0    0 -0.64465533586E+02 -0.93916580539E+02  0.81442722009E+03  0.86346041560E+03  0.26324145449E+03 0.  0.
         25    1    4    4    0    0  0.96442307337E+01 -0.42436659504E+02  0.39008877668E+03  0.41195951627E+03  0.12509000000E+03 0.  0.
         25    1    3    3    0    0  0.64465533586E+02  0.93916580539E+02  0.38989491794E+03  0.42501962808E+03  0.12509000000E+03 0.  0.
         25    1    4    4    0    0 -0.74109764320E+02 -0.51479921035E+02  0.42433844341E+03  0.45150089932E+03  0.12509000000E+03 0.  0.
<mgrwt>
<rscale>  2 0.45802730E+03</rscale>
<asrwt>0</asrwt>
<pdfrwt beam="1">  1       21 0.18329425E+00 0.45802730E+03</pdfrwt>
<pdfrwt beam="2">  1       21 0.61880821E-02 0.45802730E+03</pdfrwt>
<totfact> 0.28767594E+04</totfact>
</mgrwt>
</event>
<event>
 7    0  0.4784406E-002  0.4577213E+03  0.7546771E-02  0.1025444E+00
         21   -1    0    0  502  501  0.00000000000E+00  0.00000000000E+00  0.60626705444E+03  0.60626705444E+03  0.00000000000E+00 0.  1.
         21   -1    0    0  501  502 -0.00000000000E+00 -0.00000000000E+00 -0.86392930694E+02  0.86392930694E+02  0.00000000000E+00 0.  1.
      99926    2    1    2    0    0  0.00000000000E+00 -0.71054273576E-14  0.51987412374E+03  0.69265998513E+03  0.45772125848E+03 0.  0.
      99925    2    3    3    0    0 -0.88580474262E+02  0.33655352914E+02  0.42685026249E+03  0.51023156064E+03  0.26297512370E+03 0.  0.
         25    1    4    4    0    0 -0.39097766105E+02  0.52145148645E+02  0.18210632152E+03  0.23034316200E+03  0.12509000000E+03 0.  0.
         25    1    3    3    0    0  0.88580474262E+02 -0.33655352914E+02  0.93023861256E+02  0.18242842449E+03  0.12509000000E+03 0.  0.
         25    1    4    4    0    0 -0.49482708157E+02 -0.18489795732E+02  0.24474394097E+03  0.27988839864E+03  0.12509000000E+03 0.  0.
<mgrwt>
<rscale>  2 0.45772126E+03</rscale>
<asrwt>0</asrwt>
<pdfrwt beam="1">  1       21 0.89156918E-01 0.45772126E+03</pdfrwt>
<pdfrwt beam="2">  1       21 0.12704843E-01 0.45772126E+03</pdfrwt>
<totfact> 0.52176693E+04</totfact>
</mgrwt>
</event>
<event>
 7    0  0.4784406E-002  0.4532757E+03  0.7546771E-02  0.1026750E+00
         21   -1    0    0  502  501  0.00000000000E+00  0.00000000000E+00  0.52726931718E+03  0.52726931718E+03  0.00000000000E+00 0. -1.
         21   -1    0    0  501  502 -0.00000000000E+00 -0.00000000000E+00 -0.97416455451E+02  0.97416455451E+02  0.00000000000E+00 0. -1.
      99926    2    1    2    0    0  0.00000000000E+00  0.00000000000E+00  0.42985286173E+03  0.62468577263E+03  0.45327566865E+03 0.  0.
      99925    2    3    3    0    0 -0.87679903149E+02 -0.68019707588E+02  0.25481411457E+03  0.38261033574E+03  0.26295625111E+03 0.  0.
         25    1    4    4    0    0 -0.68881950051E+02 -0.56183379574E+02  0.17417173403E+03  0.23213055856E+03  0.12509000000E+03 0.  0.
         25    1    4    4    0    0 -0.18797953098E+02 -0.11836328014E+02  0.80642380536E+02  0.15047977718E+03  0.12509000000E+03 0.  0.
         25    1    3    3    0    0  0.87679903149E+02  0.68019707588E+02  0.17503874716E+03  0.24207543689E+03  0.12509000000E+03 0.  0.
<mgrwt>
<rscale>  2 0.45327567E+03</rscale>
<asrwt>0</asrwt>
<pdfrwt beam="1">  1       21 0.77539604E-01 0.45327567E+03</pdfrwt>
<pdfrwt beam="2">  1       21 0.14325950E-01 0.45327567E+03</pdfrwt>
<totfact> 0.57969126E+04</totfact>
</mgrwt>
</event>
<event>
 7    0  0.4784406E-002  0.4564089E+03  0.7546771E-02  0.1025828E+00
         21   -1    0    0  502  501  0.00000000000E+00  0.00000000000E+00  0.11477853664E+03  0.11477853664E+03  0.00000000000E+00 0.  1.
         21   -1    0    0  501  502 -0.00000000000E+00 -0.00000000000E+00 -0.45371966992E+03  0.45371966992E+03  0.00000000000E+00 0.  1.
      99926    2    1    2    0    0  0.00000000000E+00  0.00000000000E+00 -0.33894113328E+03  0.56849820656E+03  0.45640893839E+03 0.  0.
      99925    2    3    3    0    0  0.81858867260E+02  0.71507687435E+02 -0.25792587302E+03  0.38403898612E+03  0.26295620049E+03 0.  0.
         25    1    3    3    0    0 -0.81858867260E+02 -0.71507687435E+02 -0.81015260258E+02  0.18445922044E+03  0.12509000000E+03 0.  0.
         25    1    4    4    0    0  0.19937582896E+02  0.42925362247E+02 -0.17118753597E+03  0.21723898017E+03  0.12509000000E+03 0.  0.
         25    1    4    4    0    0  0.61921284364E+02  0.28582325188E+02 -0.86738337054E+02  0.16680000595E+03  0.12509000000E+03 0.  0.
<mgrwt>
<rscale>  2 0.45640894E+03</rscale>
<asrwt>0</asrwt>
<pdfrwt beam="1">  1       21 0.16879196E-01 0.45640894E+03</pdfrwt>
<pdfrwt beam="2">  1       21 0.66723481E-01 0.45640894E+03</pdfrwt>
<totfact> 0.59989226E+04</totfact>
</mgrwt>
</event>
<event>
 7    0  0.4784406E-002  0.4553834E+03  0.7546771E-02  0.1026129E+00
         21   -1    0    0  502  501  0.00000000000E+00  0.00000000000E+00  0.56202552329E+02  0.56202552329E+02  0.00000000000E+00 0.  1.
         21   -1    0    0  501  502 -0.00000000000E+00 -0.00000000000E+00 -0.92244062034E+03  0.92244062034E+03  0.00000000000E+00 0.  1.
      99926    2    1    2    0    0  0.00000000000E+00 -0.71054273576E-14 -0.86623806801E+03  0.97864317267E+03  0.45538343068E+03 0.  0.
      99925    2    3    3    0    0  0.61115948150E+02 -0.37191182319E+02 -0.73454285902E+03  0.78342667917E+03  0.26284179033E+03 0.  0.
         25    1    4    4    0    0  0.26039658496E+02 -0.34911557895E+02 -0.47577497230E+03  0.49386861923E+03  0.12509000000E+03 0.  0.
         25    1    3    3    0    0 -0.61115948150E+02  0.37191182319E+02 -0.13169520899E+03  0.19521649349E+03  0.12509000000E+03 0.  0.
         25    1    4    4    0    0  0.35076289654E+02 -0.22796244239E+01 -0.25876788672E+03  0.28955805995E+03  0.12509000000E+03 0.  0.
<mgrwt>
<rscale>  2 0.45538343E+03</rscale>
<asrwt>0</asrwt>
<pdfrwt beam="1">  1       21 0.82650812E-02 0.45538343E+03</pdfrwt>
<pdfrwt beam="2">  1       21 0.13565303E+00 0.45538343E+03</pdfrwt>
<totfact> 0.39882436E+04</totfact>
</mgrwt>
</event>
<event>
 7    0  0.4784406E-002  0.4564458E+03  0.7546771E-02  0.1025817E+00
         21   -1    0    0  502  501  0.00000000000E+00  0.00000000000E+00  0.33310651055E+03  0.33310651055E+03  0.00000000000E+00 0. -1.
         21   -1    0    0  501  502 -0.00000000000E+00 -0.00000000000E+00 -0.15636351064E+03  0.15636351064E+03  0.00000000000E+00 0. -1.
      99926    2    1    2    0    0 -0.14210854715E-13  0.17763568394E-14  0.17674299991E+03  0.48947002119E+03  0.45644584961E+03 0.  0.
      99925    2    3    3    0    0  0.70349656432E+02  0.14274079916E+02  0.15318167312E+02  0.27300222175E+03  0.26295007761E+03 0.  0.
         25    1    4    4    0    0  0.64776760547E+02 -0.19700417849E+02 -0.97830494245E+00  0.14224134543E+03  0.12509000000E+03 0.  0.
         25    1    3    3    0    0 -0.70349656432E+02 -0.14274079916E+02  0.16142483259E+03  0.21646779944E+03  0.12509000000E+03 0.  0.
         25    1    4    4    0    0  0.55728958855E+01  0.33974497765E+02  0.16296472254E+02  0.13076087632E+03  0.12509000000E+03 0.  0.
<mgrwt>
<rscale>  2 0.45644585E+03</rscale>
<asrwt>0</asrwt>
<pdfrwt beam="1">  1       21 0.48986252E-01 0.45644585E+03</pdfrwt>
<pdfrwt beam="2">  1       21 0.22994634E-01 0.45644585E+03</pdfrwt>
<totfact> 0.65264610E+04</totfact>
</mgrwt>
</event>
<event>
 7    0  0.4784406E-002  0.4334974E+03  0.7546771E-02  0.1032761E+00
         21   -1    0    0  502  501  0.00000000000E+00  0.00000000000E+00  0.10604345047E+03  0.10604345047E+03  0.00000000000E+00 0.  1.
         21   -1    0    0  501  502 -0.00000000000E+00 -0.00000000000E+00 -0.44302599572E+03  0.44302599572E+03  0.00000000000E+00 0.  1.
      99926    2    1    2    0    0  0.00000000000E+00  0.00000000000E+00 -0.33698254526E+03  0.54906944619E+03  0.43349742898E+03 0.  0.
      99925    2    3    3    0    0 -0.16841358381E+02 -0.89810037789E+02 -0.22185687226E+03  0.35606451640E+03  0.26308172463E+03 0.  0.
         25    1    4    4    0    0 -0.97574991181E+01 -0.23219494111E+01 -0.93441771047E+02  0.15645917332E+03  0.12509000000E+03 0.  0.
         25    1    4    4    0    0 -0.70838592624E+01 -0.87488088378E+02 -0.12841510121E+03  0.19960534309E+03  0.12509000000E+03 0.  0.
         25    1    3    3    0    0  0.16841358381E+02  0.89810037789E+02 -0.11512567300E+03  0.19300492979E+03  0.12509000000E+03 0.  0.
<mgrwt>
<rscale>  2 0.43349743E+03</rscale>
<asrwt>0</asrwt>
<pdfrwt beam="1">  1       21 0.15594625E-01 0.43349743E+03</pdfrwt>
<pdfrwt beam="2">  1       21 0.65150881E-01 0.43349743E+03</pdfrwt>
<totfact> 0.73686525E+04</totfact>
</mgrwt>
</event>
<event>
 7    0  0.4784406E-002  0.4557338E+03  0.7546771E-02  0.1026026E+00
         21   -1    0    0  502  501  0.00000000000E+00  0.00000000000E+00  0.20001982037E+03  0.20001982037E+03  0.00000000000E+00 0. -1.
         21   -1    0    0  501  502 -0.00000000000E+00 -0.00000000000E+00 -0.25959086753E+03  0.25959086753E+03  0.00000000000E+00 0. -1.
      99926    2    1    2    0    0  0.00000000000E+00 -0.35527136788E-14 -0.59571047165E+02  0.45961068790E+03  0.45573377620E+03 0.  0.
      99925    2    3    3    0    0 -0.52841085542E+02 -0.27175976247E+02  0.60496307205E+02  0.27632295866E+03  0.26299022851E+03 0.  0.
         25    1    4    4    0    0 -0.42839936109E+01  0.20376072221E+02  0.36452950321E+02  0.13194643840E+03  0.12509000000E+03 0.  0.
         25    1    3    3    0    0  0.52841085542E+02  0.27175976247E+02 -0.12006735437E+03  0.18328772924E+03  0.12509000000E+03 0.  0.
         25    1    4    4    0    0 -0.48557091931E+02 -0.47552048467E+02  0.24043356884E+02  0.14437652025E+03  0.12509000000E+03 0.  0.
<mgrwt>
<rscale>  2 0.45573378E+03</rscale>
<asrwt>0</asrwt>
<pdfrwt beam="1">  1       21 0.29414680E-01 0.45573378E+03</pdfrwt>
<pdfrwt beam="2">  1       21 0.38175127E-01 0.45573378E+03</pdfrwt>
<totfact> 0.67811254E+04</totfact>
</mgrwt>
</event>
<event>
 7    0  0.4784406E-002  0.4623664E+03  0.7546771E-02  0.1024097E+00
         21   -1    0    0  502  501  0.00000000000E+00  0.00000000000E+00  0.94693868596E+02  0.94693868596E+02  0.00000000000E+00 0. -1.
         21   -1    0    0  501  502 -0.00000000000E+00 -0.00000000000E+00 -0.56440465908E+03  0.56440465908E+03  0.00000000000E+00 0. -1.
      99926    2    1    2    0    0 -0.14210854715E-13 -0.35527136788E-14 -0.46971079049E+03  0.65909852768E+03  0.46236635095E+03 0.  0.
      99925    2    3    3    0    0 -0.11648219754E+03 -0.25916616216E+02 -0.31076991285E+03  0.42425925493E+03  0.26301749623E+03 0.  0.
         25    1    4    4    0    0 -0.21157643784E+02 -0.17772777919E+00 -0.16623042619E+03  0.20911178869E+03  0.12509000000E+03 0.  0.
         25    1    3    3    0    0  0.11648219754E+03  0.25916616216E+02 -0.15894087764E+03  0.23483927275E+03  0.12509000000E+03 0.  0.
         25    1    4    4    0    0 -0.95324553756E+02 -0.25738888437E+02 -0.14453948665E+03  0.21514746624E+03  0.12509000000E+03 0.  0.
<mgrwt>
<rscale>  2 0.46236635E+03</rscale>
<asrwt>0</asrwt>
<pdfrwt beam="1">  1       21 0.13925569E-01 0.46236635E+03</pdfrwt>
<pdfrwt beam="2">  1       21 0.83000686E-01 0.46236635E+03</pdfrwt>
<totfact> 0.52087502E+04</totfact>
</mgrwt>
</event>
<event>
 7    0  0.4784406E-002  0.4372256E+03  0.7546771E-02  0.1031601E+00
         21   -1    0    0  502  501  0.00000000000E+00  0.00000000000E+00  0.59748386437E+03  0.59748386437E+03  0.00000000000E+00 0. -1.
         21   -1    0    0  501  502 -0.00000000000E+00 -0.00000000000E+00 -0.79988027485E+02  0.79988027485E+02  0.00000000000E+00 0. -1.
      99926    2    1    2    0    0  0.00000000000E+00 -0.71054273576E-14  0.51749583688E+03  0.67747189185E+03  0.43722559744E+03 0.  0.
      99925    2    3    3    0    0  0.23481570816E+02  0.51754255847E+02  0.45019012280E+03  0.52447694287E+03  0.26301146318E+03 0.  0.
         25    1    3    3    0    0 -0.23481570816E+02 -0.51754255847E+02  0.67305714078E+02  0.15299494898E+03  0.12509000000E+03 0.  0.
         25    1    4    4    0    0  0.43824727240E+01  0.61213138510E+02  0.19732864027E+03  0.24156232066E+03  0.12509000000E+03 0.  0.
         25    1    4    4    0    0  0.19099098092E+02 -0.94588826636E+01  0.25286148254E+03  0.28291462221E+03  0.12509000000E+03 0.  0.
<mgrwt>
<rscale>  2 0.43722560E+03</rscale>
<asrwt>0</asrwt>
<pdfrwt beam="1">  1       21 0.87865272E-01 0.43722560E+03</pdfrwt>
<pdfrwt beam="2">  1       21 0.11762946E-01 0.43722560E+03</pdfrwt>
<totfact> 0.62434025E+04</totfact>
</mgrwt>
</event>
<event>
 7    0  0.4784406E-002  0.4620891E+03  0.7546771E-02  0.1024177E+00
         21   -1    0    0  502  501  0.00000000000E+00  0.00000000000E+00  0.77601993066E+02  0.77601993066E+02  0.00000000000E+00 0. -1.
         21   -1    0    0  501  502 -0.00000000000E+00 -0.00000000000E+00 -0.68788948566E+03  0.68788948566E+03  0.00000000000E+00 0. -1.
      99926    2    1    2    0    0  0.00000000000E+00  0.00000000000E+00 -0.61028749259E+03  0.76549147872E+03  0.46208914766E+03 0.  0.
      99925    2    3    3    0    0 -0.95781807032E+02 -0.71761026174E+02 -0.38872124808E+03  0.48431020580E+03  0.26292274017E+03 0.  0.
         25    1    3    3    0    0  0.95781807032E+02  0.71761026174E+02 -0.22156624451E+03  0.28118127292E+03  0.12509000000E+03 0.  0.
         25    1    4    4    0    0 -0.20585658611E+02 -0.49966394193E+02 -0.14185623272E+03  0.19670055605E+03  0.12509000000E+03 0.  0.
         25    1    4    4    0    0 -0.75196148421E+02 -0.21794631980E+02 -0.24686501536E+03  0.28760964975E+03  0.12509000000E+03 0.  0.
<mgrwt>
<rscale>  2 0.46208915E+03</rscale>
<asrwt>0</asrwt>
<pdfrwt beam="1">  1       21 0.11412058E-01 0.46208915E+03</pdfrwt>
<pdfrwt beam="2">  1       21 0.10116022E+00 0.46208915E+03</pdfrwt>
<totfact> 0.46818535E+04</totfact>
</mgrwt>
</event>
<event>
 7    0  0.4784406E-002  0.4586155E+03  0.7546771E-02  0.1025184E+00
         21   -1    0    0  502  501  0.00000000000E+00  0.00000000000E+00  0.25643752139E+03  0.25643752139E+03  0.00000000000E+00 0.  1.
         21   -1    0    0  501  502 -0.00000000000E+00 -0.00000000000E+00 -0.20504813235E+03  0.20504813235E+03  0.00000000000E+00 0.  1.
      99926    2    1    2    0    0  0.14210854715E-13  0.00000000000E+00  0.51389389039E+02  0.46148565375E+03  0.45861545908E+03 0.  0.
      99925    2    3    3    0    0  0.93309656973E+02  0.24865534345E+02  0.97946836922E+02  0.29674315487E+03  0.26294092533E+03 0.  0.
         25    1    3    3    0    0 -0.93309656973E+02 -0.24865534345E+02 -0.46557447883E+02  0.16474249888E+03  0.12509000000E+03 0.  0.
         25    1    4    4    0    0  0.55504723542E+02  0.45347539412E+02  0.74943520206E+02  0.16248450076E+03  0.12509000000E+03 0.  0.
         25    1    4    4    0    0  0.37804933431E+02 -0.20482005067E+02  0.23003316715E+02  0.13425865411E+03  0.12509000000E+03 0.  0.
<mgrwt>
<rscale>  2 0.45861546E+03</rscale>
<asrwt>0</asrwt>
<pdfrwt beam="1">  1       21 0.37711400E-01 0.45861546E+03</pdfrwt>
<pdfrwt beam="2">  1       21 0.30154137E-01 0.45861546E+03</pdfrwt>
<totfact> 0.66144497E+04</totfact>
</mgrwt>
</event>
<event>
 7    0  0.4784406E-002  0.4278507E+03  0.7546771E-02  0.1034541E+00
         21   -1    0    0  502  501  0.00000000000E+00  0.00000000000E+00  0.94089634332E+03  0.94089634332E+03  0.00000000000E+00 0.  1.
         21   -1    0    0  501  502 -0.00000000000E+00 -0.00000000000E+00 -0.48638780336E+02  0.48638780336E+02  0.00000000000E+00 0.  1.
      99926    2    1    2    0    0  0.35527136788E-14  0.00000000000E+00  0.89225756299E+03  0.98953512366E+03  0.42785067751E+03 0.  0.
      99925    2    3    3    0    0  0.28167539152E+02  0.15741667251E+02  0.39533190533E+03  0.47609201319E+03  0.26331555082E+03 0.  0.
         25    1    3    3    0    0 -0.28167539152E+02 -0.15741667251E+02  0.49692565766E+03  0.51344311047E+03  0.12509000000E+03 0.  0.
         25    1    4    4    0    0  0.54773115674E+02  0.11124033027E+01  0.20452693563E+03  0.24592703622E+03  0.12509000000E+03 0.  0.
         25    1    4    4    0    0 -0.26605576522E+02  0.14629263949E+02  0.19080496970E+03  0.23016497698E+03  0.12509000000E+03 0.  0.
<mgrwt>
<rscale>  2 0.42785068E+03</rscale>
<asrwt>0</asrwt>
<pdfrwt beam="1">  1       21 0.13836710E+00 0.42785068E+03</pdfrwt>
<pdfrwt beam="2">  1       21 0.71527624E-02 0.42785068E+03</pdfrwt>
<totfact> 0.49212969E+04</totfact>
</mgrwt>
</event>
<event>
 7    0  0.4784406E-002  0.4221594E+03  0.7546771E-02  0.1036366E+00
         21   -1    0    0  502  501  0.00000000000E+00  0.00000000000E+00  0.40266985065E+03  0.40266985065E+03  0.00000000000E+00 0. -1.
         21   -1    0    0  501  502 -0.00000000000E+00 -0.00000000000E+00 -0.11064808171E+03  0.11064808171E+03  0.00000000000E+00 0. -1.
      99926    2    1    2    0    0  0.71054273576E-14 -0.35527136788E-14  0.29202176895E+03  0.51331793236E+03  0.42215943214E+03 0.  0.
      99925    2    3    3    0    0 -0.36393774972E+02  0.27181140312E+02  0.26768714684E+03  0.37802934017E+03  0.26303317699E+03 0.  0.
         25    1    4    4    0    0 -0.30873651940E+02 -0.17945768666E+02  0.10081345617E+03  0.16457853457E+03  0.12509000000E+03 0.  0.
         25    1    3    3    0    0  0.36393774972E+02 -0.27181140312E+02  0.24334622111E+02  0.13528859220E+03  0.12509000000E+03 0.  0.
         25    1    4    4    0    0 -0.55201230320E+01  0.45126908978E+02  0.16687369066E+03  0.21345080559E+03  0.12509000000E+03 0.  0.
<mgrwt>
<rscale>  2 0.42215943E+03</rscale>
<asrwt>0</asrwt>
<pdfrwt beam="1">  1       21 0.59216154E-01 0.42215943E+03</pdfrwt>
<pdfrwt beam="2">  1       21 0.16271777E-01 0.42215943E+03</pdfrwt>
<totfact> 0.84214112E+04</totfact>
</mgrwt>
</event>
<event>
 7    0  0.4784406E-002  0.4563586E+03  0.7546771E-02  0.1025843E+00
         21   -1    0    0  502  501  0.00000000000E+00  0.00000000000E+00  0.17975618776E+04  0.17975618776E+04  0.00000000000E+00 0. -1.
         21   -1    0    0  501  502 -0.00000000000E+00 -0.00000000000E+00 -0.28964667742E+02  0.28964667742E+02  0.00000000000E+00 0. -1.
      99926    2    1    2    0    0  0.00000000000E+00  0.00000000000E+00  0.17685972099E+04  0.18265265454E+04  0.45635855435E+03 0.  0.
      99925    2    3    3    0    0  0.37158760078E+02 -0.82031765613E+02  0.13942238132E+04  0.14216649243E+04  0.26298504043E+03 0.  0.
         25    1    3    3    0    0 -0.37158760078E+02  0.82031765613E+02  0.37437339667E+03  0.40486162112E+03  0.12509000000E+03 0.  0.
         25    1    4    4    0    0  0.29982098662E+02 -0.22952358301E+02  0.50078515902E+03  0.51755098357E+03  0.12509000000E+03 0.  0.
         25    1    4    4    0    0  0.71766614159E+01 -0.59079407313E+02  0.89343865420E+03  0.90411394069E+03  0.12509000000E+03 0.  0.
<mgrwt>
<rscale>  2 0.45635855E+03</rscale>
<asrwt>0</asrwt>
<pdfrwt beam="1">  1       21 0.26434726E+00 0.45635855E+03</pdfrwt>
<pdfrwt beam="2">  1       21 0.42595112E-02 0.45635855E+03</pdfrwt>
<totfact> 0.16579773E+04</totfact>
</mgrwt>
</event>
<event>
 7    0  0.4784406E-002  0.4522952E+03  0.7546771E-02  0.1027040E+00
         21   -1    0    0  502  501  0.00000000000E+00  0.00000000000E+00  0.64152727781E+03  0.64152727781E+03  0.00000000000E+00 0.  1.
         21   -1    0    0  501  502 -0.00000000000E+00 -0.00000000000E+00 -0.79720271562E+02  0.79720271562E+02  0.00000000000E+00 0.  1.
      99926    2    1    2    0    0  0.00000000000E+00 -0.17763568394E-14  0.56180700625E+03  0.72124754938E+03  0.45229516381E+03 0.  0.
      99925    2    3    3    0    0 -0.10935191674E+03 -0.12306573687E+02  0.33555828666E+03  0.44027551399E+03  0.26293320639E+03 0.  0.
         25    1    3    3    0    0  0.10935191674E+03  0.12306573687E+02  0.22624871959E+03  0.28097203538E+03  0.12509000000E+03 0.  0.
         25    1    4    4    0    0 -0.14830027285E+02 -0.22311483057E+02  0.15039738502E+03  0.19744521647E+03  0.12509000000E+03 0.  0.
         25    1    4    4    0    0 -0.94521889460E+02  0.10004909371E+02  0.18516090164E+03  0.24283029752E+03  0.12509000000E+03 0.  0.
<mgrwt>
<rscale>  2 0.45229516E+03</rscale>
<asrwt>0</asrwt>
<pdfrwt beam="1">  1       21 0.94342244E-01 0.45229516E+03</pdfrwt>
<pdfrwt beam="2">  1       21 0.11723570E-01 0.45229516E+03</pdfrwt>
<totfact> 0.52880582E+04</totfact>
</mgrwt>
</event>
<event>
 7    0  0.4784406E-002  0.4554860E+03  0.7546771E-02  0.1026099E+00
         21   -1    0    0  502  501  0.00000000000E+00  0.00000000000E+00  0.45828075912E+02  0.45828075912E+02  0.00000000000E+00 0.  1.
         21   -1    0    0  501  502 -0.00000000000E+00 -0.00000000000E+00 -0.11317704863E+04  0.11317704863E+04  0.00000000000E+00 0.  1.
      99926    2    1    2    0    0  0.00000000000E+00  0.00000000000E+00 -0.10859424104E+04  0.11775985623E+04  0.45548595483E+03 0.  0.
      99925    2    3    3    0    0  0.26771001031E+02  0.62954263026E+02 -0.91754816805E+03  0.95695392784E+03  0.26303279944E+03 0.  0.
         25    1    3    3    0    0 -0.26771001031E+02 -0.62954263026E+02 -0.16839424238E+03  0.22064463441E+03  0.12509000000E+03 0.  0.
         25    1    4    4    0    0  0.14173711381E+02 -0.37768965160E+01 -0.35505165655E+03  0.37672847777E+03  0.12509000000E+03 0.  0.
         25    1    4    4    0    0  0.12597289650E+02  0.66731159542E+02 -0.56249651150E+03  0.58022545007E+03  0.12509000000E+03 0.  0.
<mgrwt>
<rscale>  2 0.45548595E+03</rscale>
<asrwt>0</asrwt>
<pdfrwt beam="1">  1       21 0.67394226E-02 0.45548595E+03</pdfrwt>
<pdfrwt beam="2">  1       21 0.16643684E+00 0.45548595E+03</pdfrwt>
<totfact> 0.32749968E+04</totfact>
</mgrwt>
</event>
<event>
 7    0  0.4784406E-002  0.4457382E+03  0.7546771E-02  0.1029001E+00
         21   -1    0    0  502  501  0.00000000000E+00  0.00000000000E+00  0.87002710394E+03  0.87002710394E+03  0.00000000000E+00 0.  1.
         21   -1    0    0  501  502 -0.00000000000E+00 -0.00000000000E+00 -0.57090900025E+02  0.57090900025E+02  0.00000000000E+00 0.  1.
      99926    2    1    2    0    0  0.00000000000E+00  0.00000000000E+00  0.81293620391E+03  0.92711800396E+03  0.44573817611E+03 0.  0.
      99925    2    3    3    0    0 -0.57405239071E+02  0.86154962868E+02  0.49242637617E+03  0.56782411746E+03  0.26310160266E+03 0.  0.
         25    1    4    4    0    0 -0.62950045875E+00  0.21772336896E+02  0.27270525764E+03  0.30081571862E+03  0.12509000000E+03 0.  0.
         25    1    4    4    0    0 -0.56775738612E+02  0.64382625972E+02  0.21972111853E+03  0.26700839884E+03  0.12509000000E+03 0.  0.
         25    1    3    3    0    0  0.57405239071E+02 -0.86154962868E+02  0.32050982774E+03  0.35929388650E+03  0.12509000000E+03 0.  0.
<mgrwt>
<rscale>  2 0.44573818E+03</rscale>
<asrwt>0</asrwt>
<pdfrwt beam="1">  1       21 0.12794515E+00 0.44573818E+03</pdfrwt>
<pdfrwt beam="2">  1       21 0.83957211E-02 0.44573818E+03</pdfrwt>
<totfact> 0.45273381E+04</totfact>
</mgrwt>
</event>
<event>
 7    0  0.4784406E-002  0.4558373E+03  0.7546771E-02  0.1025995E+00
         21   -1    0    0  502  501  0.00000000000E+00  0.00000000000E+00  0.65992809070E+02  0.65992809070E+02  0.00000000000E+00 0. -1.
         21   -1    0    0  501  502 -0.00000000000E+00 -0.00000000000E+00 -0.78716031212E+03  0.78716031212E+03  0.00000000000E+00 0. -1.
      99926    2    1    2    0    0  0.14210854715E-13  0.00000000000E+00 -0.72116750305E+03  0.85315312120E+03  0.45583734023E+03 0.  0.
      99925    2    3    3    0    0 -0.11087390600E+03  0.33926654431E+01 -0.40359279216E+03  0.49425795780E+03  0.26286736913E+03 0.  0.
         25    1    4    4    0    0 -0.68684110937E+02  0.18280454905E+02 -0.14921382878E+03  0.20727748775E+03  0.12509000000E+03 0.  0.
         25    1    4    4    0    0 -0.42189795060E+02 -0.14887789462E+02 -0.25437896338E+03  0.28698047005E+03  0.12509000000E+03 0.  0.
         25    1    3    3    0    0  0.11087390600E+03 -0.33926654431E+01 -0.31757471089E+03  0.35889516340E+03  0.12509000000E+03 0.  0.
<mgrwt>
<rscale>  2 0.45583734E+03</rscale>
<asrwt>0</asrwt>
<pdfrwt beam="1">  1       21 0.97048248E-02 0.45583734E+03</pdfrwt>
<pdfrwt beam="2">  1       21 0.11575887E+00 0.45583734E+03</pdfrwt>
<totfact> 0.45002332E+04</totfact>
</mgrwt>
</event>
<event>
 7    0  0.4784406E-002  0.4562271E+03  0.7546771E-02  0.1025881E+00
         21   -1    0    0  502  501  0.00000000000E+00  0.00000000000E+00  0.85604468749E+03  0.85604468749E+03  0.00000000000E+00 0.  1.
         21   -1    0    0  501  502 -0.00000000000E+00 -0.00000000000E+00 -0.60786294940E+02  0.60786294940E+02  0.00000000000E+00 0.  1.
      99926    2    1    2    0    0  0.00000000000E+00  0.00000000000E+00  0.79525839255E+03  0.91683098243E+03  0.45622707002E+03 0.  0.
      99925    2    3    3    0    0 -0.55154653890E+02 -0.18251887952E+02  0.29969957169E+03  0.40243695030E+03  0.26222223101E+03 0.  0.
         25    1    4    4    0    0 -0.40363343381E+02  0.26581508039E+02  0.16536369359E+03  0.21290475644E+03  0.12509000000E+03 0.  0.
         25    1    3    3    0    0  0.55154653890E+02  0.18251887952E+02  0.49555882086E+03  0.51439403213E+03  0.12509000000E+03 0.  0.
         25    1    4    4    0    0 -0.14791310509E+02 -0.44833395991E+02  0.13433587810E+03  0.18953219385E+03  0.12509000000E+03 0.  0.
<mgrwt>
<rscale>  2 0.45622707E+03</rscale>
<asrwt>0</asrwt>
<pdfrwt beam="1">  1       21 0.12588892E+00 0.45622707E+03</pdfrwt>
<pdfrwt beam="2">  1       21 0.89391615E-02 0.45622707E+03</pdfrwt>
<totfact> 0.42108183E+04</totfact>
</mgrwt>
</event>
<event>
 7    0  0.4784406E-002  0.4483290E+03  0.7546771E-02  0.1028222E+00
         21   -1    0    0  502  501  0.00000000000E+00  0.00000000000E+00  0.77288097792E+03  0.77288097792E+03  0.00000000000E+00 0. -1.
         21   -1    0    0  501  502 -0.00000000000E+00 -0.00000000000E+00 -0.65016133544E+02  0.65016133544E+02  0.00000000000E+00 0. -1.
      99926    2    1    2    0    0 -0.14210854715E-13  0.71054273576E-14  0.70786484437E+03  0.83789711146E+03  0.44832904378E+03 0.  0.
      99925    2    3    3    0    0 -0.93332678711E+02  0.46896669996E+02  0.48952160945E+03  0.56544241264E+03  0.26302743074E+03 0.  0.
         25    1    3    3    0    0  0.93332678711E+02 -0.46896669996E+02  0.21834323492E+03  0.27245469882E+03  0.12509000000E+03 0.  0.
         25    1    4    4    0    0 -0.58183178516E+02 -0.11816004647E+02  0.20801061787E+03  0.24988162293E+03  0.12509000000E+03 0.  0.
         25    1    4    4    0    0 -0.35149500195E+02  0.58712674643E+02  0.28151099158E+03  0.31556078972E+03  0.12509000000E+03 0.  0.
<mgrwt>
<rscale>  2 0.44832904E+03</rscale>
<asrwt>0</asrwt>
<pdfrwt beam="1">  1       21 0.11365896E+00 0.44832904E+03</pdfrwt>
<pdfrwt beam="2">  1       21 0.95611966E-02 0.44832904E+03</pdfrwt>
<totfact> 0.48473298E+04</totfact>
</mgrwt>
</event>
<event>
 7    0  0.4784406E-002  0.4486835E+03  0.7546771E-02  0.1028115E+00
         21   -1    0    0  502  501  0.00000000000E+00  0.00000000000E+00  0.30943485297E+03  0.30943485297E+03  0.00000000000E+00 0. -1.
         21   -1    0    0  501  502 -0.00000000000E+00 -0.00000000000E+00 -0.16264887418E+03  0.16264887418E+03  0.00000000000E+00 0. -1.
      99926    2    1    2    0    0 -0.35527136788E-14  0.00000000000E+00  0.14678597878E+03  0.47208372715E+03  0.44868354313E+03 0.  0.
      99925    2    3    3    0    0 -0.25179154399E+02  0.86981188008E+02  0.15315262552E+03  0.31752707355E+03  0.26299809666E+03 0.  0.
         25    1    4    4    0    0 -0.51228898664E+02  0.34060152913E+02  0.67827466833E+02  0.15502440915E+03  0.12509000000E+03 0.  0.
         25    1    4    4    0    0  0.26049744265E+02  0.52921035095E+02  0.85325158682E+02  0.16250266440E+03  0.12509000000E+03 0.  0.
         25    1    3    3    0    0  0.25179154399E+02 -0.86981188008E+02 -0.63666467332E+01  0.15455665361E+03  0.12509000000E+03 0.  0.
<mgrwt>
<rscale>  2 0.44868354E+03</rscale>
<asrwt>0</asrwt>
<pdfrwt beam="1">  1       21 0.45505125E-01 0.44868354E+03</pdfrwt>
<pdfrwt beam="2">  1       21 0.23918952E-01 0.44868354E+03</pdfrwt>
<totfact> 0.70762220E+04</totfact>
</mgrwt>
</event>
<event>
 7    0  0.4784406E-002  0.4535802E+03  0.7546771E-02  0.1026660E+00
         21   -1    0    0  502  501  0.00000000000E+00  0.00000000000E+00  0.32775129706E+03  0.32775129706E+03  0.00000000000E+00 0.  1.
         21   -1    0    0  501  502 -0.00000000000E+00 -0.00000000000E+00 -0.15692922288E+03  0.15692922288E+03  0.00000000000E+00 0.  1.
      99926    2    1    2    0    0  0.00000000000E+00  0.00000000000E+00  0.17082207418E+03  0.48468051994E+03  0.45358023037E+03 0.  0.
      99925    2    3    3    0    0  0.46554342816E+02  0.80093901610E+02  0.17462618844E+03  0.32897464563E+03  0.26295944910E+03 0.  0.
         25    1    4    4    0    0  0.48670458527E+02  0.25151572744E+02  0.54488292614E+02  0.14703025973E+03  0.12509000000E+03 0.  0.
         25    1    4    4    0    0 -0.21161157105E+01  0.54942328866E+02  0.12013789582E+03  0.18194438590E+03  0.12509000000E+03 0.  0.
         25    1    3    3    0    0 -0.46554342816E+02 -0.80093901610E+02 -0.38041142573E+01  0.15570587431E+03  0.12509000000E+03 0.  0.
<mgrwt>
<rscale>  2 0.45358023E+03</rscale>
<asrwt>0</asrwt>
<pdfrwt beam="1">  1       21 0.48198720E-01 0.45358023E+03</pdfrwt>
<pdfrwt beam="2">  1       21 0.23077827E-01 0.45358023E+03</pdfrwt>
<totfact> 0.67114184E+04</totfact>
</mgrwt>
</event>
<event>
 7    0  0.4784406E-002  0.4707933E+03  0.7546771E-02  0.1021697E+00
         21   -1    0    0  502  501  0.00000000000E+00  0.00000000000E+00  0.19696761201E+03  0.19696761201E+03  0.00000000000E+00 0.  1.
         21   -1    0    0  501  502 -0.00000000000E+00 -0.00000000000E+00 -0.28132332774E+03  0.28132332774E+03  0.00000000000E+00 0.  1.
      99926    2    1    2    0    0  0.00000000000E+00  0.00000000000E+00 -0.84355715734E+02  0.47829093974E+03  0.47079330525E+03 0.  0.
      99925    2    3    3    0    0  0.64825251615E+02 -0.10699566181E+03 -0.77030176787E+02  0.30122723224E+03  0.26297112468E+03 0.  0.
         25    1    3    3    0    0 -0.64825251615E+02  0.10699566181E+03 -0.73255389467E+01  0.17706370750E+03  0.12509000000E+03 0.  0.
         25    1    4    4    0    0  0.16269549714E+02 -0.16340594432E+02 -0.51782714133E+02  0.13733415765E+03  0.12509000000E+03 0.  0.
         25    1    4    4    0    0  0.48555701902E+02 -0.90655067381E+02 -0.25247462654E+02  0.16389307459E+03  0.12509000000E+03 0.  0.
<mgrwt>
<rscale>  2 0.47079331E+03</rscale>
<asrwt>0</asrwt>
<pdfrwt beam="1">  1       21 0.28965826E-01 0.47079331E+03</pdfrwt>
<pdfrwt beam="2">  1       21 0.41371077E-01 0.47079331E+03</pdfrwt>
<totfact> 0.59063917E+04</totfact>
</mgrwt>
</event>
<event>
 6    0  0.4784406E-002  0.4638359E+03  0.7546771E-02  0.1023675E+00
         21   -1    0    0  502  501  0.00000000000E+00  0.00000000000E+00  0.22530156881E+03  0.22530156881E+03  0.00000000000E+00 0. -1.
         21   -1    0    0  501  502 -0.00000000000E+00 -0.00000000000E+00 -0.23872863351E+03  0.23872863351E+03  0.00000000000E+00 0. -1.
      99926    2    1    2    0    0 -0.17763568394E-14  0.00000000000E+00 -0.13427064694E+02  0.46403020232E+03  0.46383590051E+03 0.  0.
         25    1    3    3    0    0  0.41052985439E+02 -0.59846559386E+02 -0.22951708551E+02  0.14642830092E+03  0.12509000000E+03 0.  0.
         25    1    3    3    0    0 -0.14602454855E+02  0.10916434431E+03  0.51223735731E+02  0.17436015875E+03  0.12509000000E+03 0.  0.
         25    1    3    3    0    0 -0.26450530584E+02 -0.49317784919E+02 -0.41699091873E+02  0.14324174266E+03  0.12509000000E+03 0.  0.
<mgrwt>
<rscale>  2 0.46383590E+03</rscale>
<asrwt>0</asrwt>
<pdfrwt beam="1">  1       21 0.33132584E-01 0.46383590E+03</pdfrwt>
<pdfrwt beam="2">  1       21 0.35107152E-01 0.46383590E+03</pdfrwt>
<totfact> 0.63306939E+04</totfact>
</mgrwt>
</event>
<event>
 7    0  0.4784406E-002  0.4564571E+03  0.7546771E-02  0.1025814E+00
         21   -1    0    0  502  501  0.00000000000E+00  0.00000000000E+00  0.38783343757E+03  0.38783343757E+03  0.00000000000E+00 0. -1.
         21   -1    0    0  501  502 -0.00000000000E+00 -0.00000000000E+00 -0.13430575870E+03  0.13430575870E+03  0.00000000000E+00 0. -1.
      99926    2    1    2    0    0 -0.35527136788E-14 -0.14210854715E-13  0.25352767888E+03  0.52213919627E+03  0.45645706953E+03 0.  0.
      99925    2    3    3    0    0 -0.19362221320E+02 -0.91732267658E+02  0.23461362338E+03  0.36467506023E+03  0.26297270340E+03 0.  0.
         25    1    4    4    0    0 -0.21222551876E+02 -0.82072079621E+02  0.15270092378E+03  0.21482854369E+03  0.12509000000E+03 0.  0.
         25    1    4    4    0    0  0.18603305553E+01 -0.96601880368E+01  0.81912699595E+02  0.14984651653E+03  0.12509000000E+03 0.  0.
         25    1    3    3    0    0  0.19362221320E+02  0.91732267658E+02  0.18914055503E+02  0.15746413604E+03  0.12509000000E+03 0.  0.
<mgrwt>
<rscale>  2 0.45645707E+03</rscale>
<asrwt>0</asrwt>
<pdfrwt beam="1">  1       21 0.57034329E-01 0.45645707E+03</pdfrwt>
<pdfrwt beam="2">  1       21 0.19750847E-01 0.45645707E+03</pdfrwt>
<totfact> 0.63010210E+04</totfact>
</mgrwt>
</event>
<event>
 7    0  0.4784406E-002  0.4485496E+03  0.7546771E-02  0.1028155E+00
         21   -1    0    0  502  501  0.00000000000E+00  0.00000000000E+00  0.19916124494E+03  0.19916124494E+03  0.00000000000E+00 0.  1.
         21   -1    0    0  501  502 -0.00000000000E+00 -0.00000000000E+00 -0.25255509491E+03  0.25255509491E+03  0.00000000000E+00 0.  1.
      99926    2    1    2    0    0  0.00000000000E+00  0.71054273576E-14 -0.53393849972E+02  0.45171633985E+03  0.44854960537E+03 0.  0.
      99925    2    3    3    0    0 -0.78027938646E+02  0.40065691761E+02  0.27933365854E+02  0.27864050965E+03  0.26299551674E+03 0.  0.
         25    1    3    3    0    0  0.78027938646E+02 -0.40065691761E+02 -0.81327215827E+02  0.17307583020E+03  0.12509000000E+03 0.  0.
         25    1    4    4    0    0 -0.48919390602E+02 -0.14150107303E+02  0.33398565729E+02  0.13912693703E+03  0.12509000000E+03 0.  0.
         25    1    4    4    0    0 -0.29108548044E+02  0.54215799064E+02 -0.54651998747E+01  0.13951357263E+03  0.12509000000E+03 0.  0.
<mgrwt>
<rscale>  2 0.44854961E+03</rscale>
<asrwt>0</asrwt>
<pdfrwt beam="1">  1       21 0.29288418E-01 0.44854961E+03</pdfrwt>
<pdfrwt beam="2">  1       21 0.37140455E-01 0.44854961E+03</pdfrwt>
<totfact> 0.72443978E+04</totfact>
</mgrwt>
</event>
<event>
 7    0  0.4784406E-002  0.4653252E+03  0.7546771E-02  0.1023248E+00
         21   -1    0    0  502  501  0.00000000000E+00  0.00000000000E+00  0.84868808771E+02  0.84868808771E+02  0.00000000000E+00 0. -1.
         21   -1    0    0  501  502 -0.00000000000E+00 -0.00000000000E+00 -0.63783026232E+03  0.63783026232E+03  0.00000000000E+00 0. -1.
      99926    2    1    2    0    0  0.71054273576E-14  0.00000000000E+00 -0.55296145354E+03  0.72269907109E+03  0.46532523921E+03 0.  0.
      99925    2    3    3    0    0 -0.59429122527E+02 -0.10598555051E+03 -0.31838749477E+03  0.43040263293E+03  0.26288984782E+03 0.  0.
         25    1    3    3    0    0  0.59429122527E+02  0.10598555051E+03 -0.23457395878E+03  0.29229643816E+03  0.12509000000E+03 0.  0.
         25    1    4    4    0    0 -0.83002928286E+01 -0.56779168914E+02 -0.20664149056E+03  0.24827602100E+03  0.12509000000E+03 0.  0.
         25    1    4    4    0    0 -0.51128829699E+02 -0.49206381600E+02 -0.11174600421E+03  0.18212661193E+03  0.12509000000E+03 0.  0.
<mgrwt>
<rscale>  2 0.46532524E+03</rscale>
<asrwt>0</asrwt>
<pdfrwt beam="1">  1       21 0.12480707E-01 0.46532524E+03</pdfrwt>
<pdfrwt beam="2">  1       21 0.93798570E-01 0.46532524E+03</pdfrwt>
<totfact> 0.47694891E+04</totfact>
</mgrwt>
</event>
<event>
 7    0  0.4784406E-002  0.4536833E+03  0.7546771E-02  0.1026629E+00
         21   -1    0    0  502  501  0.00000000000E+00  0.00000000000E+00  0.22793762672E+03  0.22793762672E+03  0.00000000000E+00 0.  1.
         21   -1    0    0  501  502 -0.00000000000E+00 -0.00000000000E+00 -0.22575093090E+03  0.22575093090E+03  0.00000000000E+00 0.  1.
      99926    2    1    2    0    0  0.14210854715E-13  0.00000000000E+00  0.21866958124E+01  0.45368855762E+03  0.45368328785E+03 0.  0.
      99925    2    3    3    0    0  0.78922784216E+02 -0.37347512975E+02 -0.68774392402E+02  0.28544282444E+03  0.26291452295E+03 0.  0.
         25    1    4    4    0    0  0.42036067246E+02  0.18709223165E+02 -0.17094408243E+02  0.13437556651E+03  0.12509000000E+03 0.  0.
         25    1    4    4    0    0  0.36886716970E+02 -0.56056736140E+02 -0.51679984158E+02  0.15106725793E+03  0.12509000000E+03 0.  0.
         25    1    3    3    0    0 -0.78922784216E+02  0.37347512975E+02  0.70961088214E+02  0.16824573318E+03  0.12509000000E+03 0.  0.
<mgrwt>
<rscale>  2 0.45368329E+03</rscale>
<asrwt>0</asrwt>
<pdfrwt beam="1">  1       21 0.33520239E-01 0.45368329E+03</pdfrwt>
<pdfrwt beam="2">  1       21 0.33198666E-01 0.45368329E+03</pdfrwt>
<totfact> 0.69367891E+04</totfact>
</mgrwt>
</event>
<event>
 7    0  0.4784406E-002  0.4556004E+03  0.7546771E-02  0.1026065E+00
         21   -1    0    0  502  501  0.00000000000E+00  0.00000000000E+00  0.83943103508E+02  0.83943103508E+02  0.00000000000E+00 0.  1.
         21   -1    0    0  501  502 -0.00000000000E+00 -0.00000000000E+00 -0.61819159942E+03  0.61819159942E+03  0.00000000000E+00 0.  1.
      99926    2    1    2    0    0 -0.71054273576E-14 -0.35527136788E-14 -0.53424849591E+03  0.70213470293E+03  0.45560035741E+03 0.  0.
      99925    2    3    3    0    0 -0.57054053584E+02 -0.29713718954E+02 -0.19161159925E+03  0.33174892947E+03  0.26306705821E+03 0.  0.
         25    1    3    3    0    0  0.57054053584E+02  0.29713718954E+02 -0.34263689666E+03  0.37038577346E+03  0.12509000000E+03 0.  0.
         25    1    4    4    0    0 -0.62749175204E+02 -0.39366505618E+01 -0.12453726510E+03  0.18737661195E+03  0.12509000000E+03 0.  0.
         25    1    4    4    0    0  0.56951216197E+01 -0.25777068392E+02 -0.67074334145E+02  0.14437231752E+03  0.12509000000E+03 0.  0.
<mgrwt>
<rscale>  2 0.45560036E+03</rscale>
<asrwt>0</asrwt>
<pdfrwt beam="1">  1       21 0.12344574E-01 0.45560036E+03</pdfrwt>
<pdfrwt beam="2">  1       21 0.90910530E-01 0.45560036E+03</pdfrwt>
<totfact> 0.52538551E+04</totfact>
</mgrwt>
</event>
<event>
 7    0  0.4784406E-002  0.4578583E+03  0.7546771E-02  0.1025404E+00
         21   -1    0    0  502  501  0.00000000000E+00  0.00000000000E+00  0.36049948948E+02  0.36049948948E+02  0.00000000000E+00 0. -1.
         21   -1    0    0  501  502 -0.00000000000E+00 -0.00000000000E+00 -0.14537761354E+04  0.14537761354E+04  0.00000000000E+00 0. -1.
      99926    2    1    2    0    0  0.00000000000E+00  0.71054273576E-14 -0.14177261865E+04  0.14898260844E+04  0.45785829889E+03 0.  0.
      99925    2    3    3    0    0 -0.53158248876E+02 -0.55734422910E+02 -0.11713002190E+04  0.12029369231E+04  0.26302264648E+03 0.  0.
         25    1    4    4    0    0 -0.29583543603E+02 -0.36646689810E+02 -0.42201068139E+03  0.44267221421E+03  0.12509000000E+03 0.  0.
         25    1    4    4    0    0 -0.23574705273E+02 -0.19087733101E+02 -0.74928953761E+03  0.76026470887E+03  0.12509000000E+03 0.  0.
         25    1    3    3    0    0  0.53158248876E+02  0.55734422910E+02 -0.24642596748E+03  0.28688916130E+03  0.12509000000E+03 0.  0.
<mgrwt>
<rscale>  2 0.45785830E+03</rscale>
<asrwt>0</asrwt>
<pdfrwt beam="1">  1       21 0.53014626E-02 0.45785830E+03</pdfrwt>
<pdfrwt beam="2">  1       21 0.21379063E+00 0.45785830E+03</pdfrwt>
<totfact> 0.23503405E+04</totfact>
</mgrwt>
</event>
<event>
 7    0  0.4784406E-002  0.4564020E+03  0.7546771E-02  0.1025830E+00
         21   -1    0    0  502  501  0.00000000000E+00  0.00000000000E+00  0.45096478537E+03  0.45096478537E+03  0.00000000000E+00 0.  1.
         21   -1    0    0  501  502 -0.00000000000E+00 -0.00000000000E+00 -0.11547618700E+03  0.11547618700E+03  0.00000000000E+00 0.  1.
      99926    2    1    2    0    0  0.71054273576E-14  0.14210854715E-13  0.33548859837E+03  0.56644097237E+03  0.45640198897E+03 0.  0.
      99925    2    3    3    0    0  0.49632422432E+02  0.10065217728E+03  0.18530594173E+03  0.34106001353E+03  0.26341868317E+03 0.  0.
         25    1    4    4    0    0  0.53287514633E+01  0.84070066107E+02  0.11710515076E+03  0.19093793767E+03  0.12509000000E+03 0.  0.
         25    1    4    4    0    0  0.44303670968E+02  0.16582111176E+02  0.68200790968E+02  0.15012207586E+03  0.12509000000E+03 0.  0.
         25    1    3    3    0    0 -0.49632422432E+02 -0.10065217728E+03  0.15018265664E+03  0.22538095883E+03  0.12509000000E+03 0.  0.
<mgrwt>
<rscale>  2 0.45640199E+03</rscale>
<asrwt>0</asrwt>
<pdfrwt beam="1">  1       21 0.66318350E-01 0.45640199E+03</pdfrwt>
<pdfrwt beam="2">  1       21 0.16981792E-01 0.45640199E+03</pdfrwt>
<totfact> 0.60123562E+04</totfact>
</mgrwt>
</event>
<event>
 7    0  0.4784406E-002  0.4577449E+03  0.7546771E-02  0.1025437E+00
         21   -1    0    0  502  501  0.00000000000E+00  0.00000000000E+00  0.49247979785E+02  0.49247979785E+02  0.00000000000E+00 0.  1.
         21   -1    0    0  501  502 -0.00000000000E+00 -0.00000000000E+00 -0.10636498418E+04  0.10636498418E+04  0.00000000000E+00 0.  1.
      99926    2    1    2    0    0  0.00000000000E+00 -0.71054273576E-14 -0.10144018621E+04  0.11128978216E+04  0.45774493295E+03 0.  0.
      99925    2    3    3    0    0  0.85008709480E+02  0.47694548510E+02 -0.48531718388E+03  0.56055793042E+03  0.26304215201E+03 0.  0.
         25    1    4    4    0    0  0.42740179326E+02  0.65062300734E+02 -0.25232940336E+03  0.29219421932E+03  0.12509000000E+03 0.  0.
         25    1    4    4    0    0  0.42268530154E+02 -0.17367752224E+02 -0.23298778053E+03  0.26836371110E+03  0.12509000000E+03 0.  0.
         25    1    3    3    0    0 -0.85008709480E+02 -0.47694548510E+02 -0.52908467817E+03  0.55233989120E+03  0.12509000000E+03 0.  0.
<mgrwt>
<rscale>  2 0.45774493E+03</rscale>
<asrwt>0</asrwt>
<pdfrwt beam="1">  1       21 0.72423504E-02 0.45774493E+03</pdfrwt>
<pdfrwt beam="2">  1       21 0.15641909E+00 0.45774493E+03</pdfrwt>
<totfact> 0.34305391E+04</totfact>
</mgrwt>
</event>
<event>
 7    0  0.4784406E-002  0.4537706E+03  0.7546771E-02  0.1026604E+00
         21   -1    0    0  502  501  0.00000000000E+00  0.00000000000E+00  0.79653384268E+02  0.79653384268E+02  0.00000000000E+00 0.  1.
         21   -1    0    0  501  502 -0.00000000000E+00 -0.00000000000E+00 -0.64626183506E+03  0.64626183506E+03  0.00000000000E+00 0.  1.
      99926    2    1    2    0    0 -0.14210854715E-13  0.00000000000E+00 -0.56660845079E+03  0.72591521933E+03  0.45377061291E+03 0.  0.
      99925    2    3    3    0    0 -0.67938509666E+02  0.21768940051E+01 -0.21439039521E+03  0.34601332839E+03  0.26294790720E+03 0.  0.
         25    1    4    4    0    0 -0.51115172287E+02  0.12506788780E+01 -0.15760505003E+03  0.20760824871E+03  0.12509000000E+03 0.  0.
         25    1    4    4    0    0 -0.16823337379E+02  0.92621512707E+00 -0.56785345184E+02  0.13840507969E+03  0.12509000000E+03 0.  0.
         25    1    3    3    0    0  0.67938509666E+02 -0.21768940051E+01 -0.35221805557E+03  0.37990189093E+03  0.12509000000E+03 0.  0.
<mgrwt>
<rscale>  2 0.45377061E+03</rscale>
<asrwt>0</asrwt>
<pdfrwt beam="1">  1       21 0.11713733E-01 0.45377061E+03</pdfrwt>
<pdfrwt beam="2">  1       21 0.95038504E-01 0.45377061E+03</pdfrwt>
<totfact> 0.52019576E+04</totfact>
</mgrwt>
</event>
<event>
 7    0  0.4784406E-002  0.4548222E+03  0.7546771E-02  0.1026294E+00
         21   -1    0    0  502  501  0.00000000000E+00  0.00000000000E+00  0.18027004033E+03  0.18027004033E+03  0.00000000000E+00 0. -1.
         21   -1    0    0  501  502 -0.00000000000E+00 -0.00000000000E+00 -0.28687968366E+03  0.28687968366E+03  0.00000000000E+00 0. -1.
      99926    2    1    2    0    0  0.00000000000E+00  0.00000000000E+00 -0.10660964332E+03  0.46714972399E+03  0.45482221645E+03 0.  0.
      99925    2    3    3    0    0 -0.97562994654E+02  0.44912496634E+01 -0.89212691407E+01  0.28079190741E+03  0.26310795688E+03 0.  0.
         25    1    4    4    0    0 -0.80868761348E+02 -0.15853561045E+02  0.15693719931E+02  0.15061504873E+03  0.12509000000E+03 0.  0.
         25    1    4    4    0    0 -0.16694233307E+02  0.20344810708E+02 -0.24614989072E+02  0.13017685868E+03  0.12509000000E+03 0.  0.
         25    1    3    3    0    0  0.97562994654E+02 -0.44912496634E+01 -0.97688374182E+02  0.18635781658E+03  0.12509000000E+03 0.  0.
<mgrwt>
<rscale>  2 0.45482222E+03</rscale>
<asrwt>0</asrwt>
<pdfrwt beam="1">  1       21 0.26510300E-01 0.45482222E+03</pdfrwt>
<pdfrwt beam="2">  1       21 0.42188188E-01 0.45482222E+03</pdfrwt>
<totfact> 0.67743983E+04</totfact>
</mgrwt>
</event>
<event>
 7    0  0.4784406E-002  0.4478670E+03  0.7546771E-02  0.1028360E+00
         21   -1    0    0  502  501  0.00000000000E+00  0.00000000000E+00  0.57826381787E+02  0.57826381787E+02  0.00000000000E+00 0.  1.
         21   -1    0    0  501  502 -0.00000000000E+00 -0.00000000000E+00 -0.86718557298E+03  0.86718557298E+03  0.00000000000E+00 0.  1.
      99926    2    1    2    0    0  0.00000000000E+00  0.00000000000E+00 -0.80935919119E+03  0.92501195477E+03  0.44786696249E+03 0.  0.
      99925    2    3    3    0    0  0.87250315498E+02  0.49917018466E+02 -0.58465650645E+03  0.64889036757E+03  0.26292803635E+03 0.  0.
         25    1    4    4    0    0  0.26221823201E+02 -0.83816212339E+01 -0.31188932420E+03  0.33716508455E+03  0.12509000000E+03 0.  0.
         25    1    4    4    0    0  0.61028492297E+02  0.58298639700E+02 -0.27276718225E+03  0.31172528302E+03  0.12509000000E+03 0.  0.
         25    1    3    3    0    0 -0.87250315498E+02 -0.49917018466E+02 -0.22470268475E+03  0.27612158720E+03  0.12509000000E+03 0.  0.
<mgrwt>
<rscale>  2 0.44786696E+03</rscale>
<asrwt>0</asrwt>
<pdfrwt beam="1">  1       21 0.85038799E-02 0.44786696E+03</pdfrwt>
<pdfrwt beam="2">  1       21 0.12752729E+00 0.44786696E+03</pdfrwt>
<totfact> 0.44606864E+04</totfact>
</mgrwt>
</event>
<event>
 7    0  0.4784406E-002  0.4556025E+03  0.7546771E-02  0.1026064E+00
         21   -1    0    0  502  501  0.00000000000E+00  0.00000000000E+00  0.26937526322E+03  0.26937526322E+03  0.00000000000E+00 0.  1.
         21   -1    0    0  501  502 -0.00000000000E+00 -0.00000000000E+00 -0.19264358220E+03  0.19264358220E+03  0.00000000000E+00 0.  1.
      99926    2    1    2    0    0 -0.22204460493E-15 -0.14210854715E-13  0.76731681021E+02  0.46201884541E+03  0.45560252704E+03 0.  0.
      99925    2    3    3    0    0 -0.19908846718E+01  0.11136216615E+03  0.71491457054E+02  0.29444658124E+03  0.26302521762E+03 0.  0.
         25    1    4    4    0    0 -0.19627869717E+02  0.24864375659E+02  0.55647288473E+02  0.14052622268E+03  0.12509000000E+03 0.  0.
         25    1    4    4    0    0  0.17636985045E+02  0.86497790492E+02  0.15844168580E+02  0.15392035856E+03  0.12509000000E+03 0.  0.
         25    1    3    3    0    0  0.19908846718E+01 -0.11136216615E+03  0.52402239671E+01  0.16757226417E+03  0.12509000000E+03 0.  0.
<mgrwt>
<rscale>  2 0.45560253E+03</rscale>
<asrwt>0</asrwt>
<pdfrwt beam="1">  1       21 0.39614010E-01 0.45560253E+03</pdfrwt>
<pdfrwt beam="2">  1       21 0.28329938E-01 0.45560253E+03</pdfrwt>
<totfact> 0.67707073E+04</totfact>
</mgrwt>
</event>
<event>
 7    0  0.4784406E-002  0.4553593E+03  0.7546771E-02  0.1026136E+00
         21   -1    0    0  502  501  0.00000000000E+00  0.00000000000E+00  0.31183696738E+03  0.31183696738E+03  0.00000000000E+00 0. -1.
         21   -1    0    0  501  502 -0.00000000000E+00 -0.00000000000E+00 -0.16623437796E+03  0.16623437796E+03  0.00000000000E+00 0. -1.
      99926    2    1    2    0    0  0.63837823916E-15  0.71054273576E-14  0.14560258942E+03  0.47807134534E+03  0.45535930559E+03 0.  0.
      99925    2    3    3    0    0 -0.20841337789E+00  0.37592042358E+02 -0.19916889369E+02  0.26722208391E+03  0.26381386348E+03 0.  0.
         25    1    3    3    0    0  0.20841337789E+00 -0.37592042358E+02  0.16551947878E+03  0.21084926142E+03  0.12509000000E+03 0.  0.
         25    1    4    4    0    0  0.27814379507E+02  0.49952136282E+02 -0.14870342078E+02  0.13833832007E+03  0.12509000000E+03 0.  0.
         25    1    4    4    0    0 -0.28022792885E+02 -0.12360093924E+02 -0.50465472910E+01  0.12888376384E+03  0.12509000000E+03 0.  0.
<mgrwt>
<rscale>  2 0.45535931E+03</rscale>
<asrwt>0</asrwt>
<pdfrwt beam="1">  1       21 0.45858377E-01 0.45535931E+03</pdfrwt>
<pdfrwt beam="2">  1       21 0.24446232E-01 0.45535931E+03</pdfrwt>
<totfact> 0.66650483E+04</totfact>
</mgrwt>
</event>
<event>
 7    0  0.4784406E-002  0.4575858E+03  0.7546771E-02  0.1025484E+00
         21   -1    0    0  502  501  0.00000000000E+00  0.00000000000E+00  0.36501621764E+03  0.36501621764E+03  0.00000000000E+00 0.  1.
         21   -1    0    0  501  502 -0.00000000000E+00 -0.00000000000E+00 -0.14340786828E+03  0.14340786828E+03  0.00000000000E+00 0.  1.
      99926    2    1    2    0    0  0.00000000000E+00 -0.71054273576E-14  0.22160834936E+03  0.50842408592E+03  0.45758582871E+03 0.  0.
      99925    2    3    3    0    0 -0.59979614312E+02  0.41616460298E+02  0.39588114128E+02  0.27581205262E+03  0.26301252003E+03 0.  0.
         25    1    4    4    0    0 -0.11668478767E+02 -0.15673969251E+02  0.26959641476E+02  0.12944557573E+03  0.12509000000E+03 0.  0.
         25    1    3    3    0    0  0.59979614312E+02 -0.41616460298E+02  0.18202023524E+03  0.23261203330E+03  0.12509000000E+03 0.  0.
         25    1    4    4    0    0 -0.48311135544E+02  0.57290429549E+02  0.12628472653E+02  0.14636647689E+03  0.12509000000E+03 0.  0.
<mgrwt>
<rscale>  2 0.45758583E+03</rscale>
<asrwt>0</asrwt>
<pdfrwt beam="1">  1       21 0.53678855E-01 0.45758583E+03</pdfrwt>
<pdfrwt beam="2">  1       21 0.21089392E-01 0.45758583E+03</pdfrwt>
<totfact> 0.63372162E+04</totfact>
</mgrwt>
</event>
<event>
 7    0  0.4784406E-002  0.4550667E+03  0.7546771E-02  0.1026222E+00
         21   -1    0    0  502  501  0.00000000000E+00  0.00000000000E+00  0.66587851058E+03  0.66587851058E+03  0.00000000000E+00 0. -1.
         21   -1    0    0  501  502 -0.00000000000E+00 -0.00000000000E+00 -0.77749063512E+02  0.77749063512E+02  0.00000000000E+00 0. -1.
      99926    2    1    2    0    0  0.00000000000E+00  0.00000000000E+00  0.58812944707E+03  0.74362757409E+03  0.45506672307E+03 0.  0.
      99925    2    3    3    0    0  0.59685508634E+02  0.82034282036E+02  0.45230707791E+03  0.53294485664E+03  0.26297631855E+03 0.  0.
         25    1    4    4    0    0  0.53480195963E+02  0.42795805951E+02  0.29801710020E+03  0.33038358385E+03  0.12509000000E+03 0.  0.
         25    1    3    3    0    0 -0.59685508634E+02 -0.82034282036E+02  0.13582236915E+03  0.21068271745E+03  0.12509000000E+03 0.  0.
         25    1    4    4    0    0  0.62053126711E+01  0.39238476085E+02  0.15428997771E+03  0.20256127279E+03  0.12509000000E+03 0.  0.
<mgrwt>
<rscale>  2 0.45506672E+03</rscale>
<asrwt>0</asrwt>
<pdfrwt beam="1">  1       21 0.97923308E-01 0.45506672E+03</pdfrwt>
<pdfrwt beam="2">  1       21 0.11433686E-01 0.45506672E+03</pdfrwt>
<totfact> 0.50570910E+04</totfact>
</mgrwt>
</event>
<event>
 7    0  0.4784406E-002  0.4636038E+03  0.7546771E-02  0.1023741E+00
         21   -1    0    0  502  501  0.00000000000E+00  0.00000000000E+00  0.33237627212E+03  0.33237627212E+03  0.00000000000E+00 0.  1.
         21   -1    0    0  501  502 -0.00000000000E+00 -0.00000000000E+00 -0.16166053225E+03  0.16166053225E+03  0.00000000000E+00 0.  1.
      99926    2    1    2    0    0  0.71054273576E-14  0.71054273576E-14  0.17071573987E+03  0.49403680437E+03  0.46360381819E+03 0.  0.
      99925    2    3    3    0    0  0.60772442972E+02  0.34098155541E+02  0.21220840478E+03  0.34495587542E+03  0.26288053350E+03 0.  0.
         25    1    4    4    0    0  0.21817955328E+02  0.30879106766E+02  0.59111346761E+02  0.14342664266E+03  0.12509000000E+03 0.  0.
         25    1    4    4    0    0  0.38954487644E+02  0.32190487743E+01  0.15309705802E+03  0.20152923276E+03  0.12509000000E+03 0.  0.
         25    1    3    3    0    0 -0.60772442972E+02 -0.34098155541E+02 -0.41492664910E+02  0.14908092895E+03  0.12509000000E+03 0.  0.
<mgrwt>
<rscale>  2 0.46360382E+03</rscale>
<asrwt>0</asrwt>
<pdfrwt beam="1">  1       21 0.48878863E-01 0.46360382E+03</pdfrwt>
<pdfrwt beam="2">  1       21 0.23773608E-01 0.46360382E+03</pdfrwt>
<totfact> 0.61390195E+04</totfact>
</mgrwt>
</event>
<event>
 7    0  0.4784406E-002  0.4575079E+03  0.7546771E-02  0.1025506E+00
         21   -1    0    0  502  501  0.00000000000E+00  0.00000000000E+00  0.57553590061E+03  0.57553590061E+03  0.00000000000E+00 0. -1.
         21   -1    0    0  501  502 -0.00000000000E+00 -0.00000000000E+00 -0.90921112982E+02  0.90921112982E+02  0.00000000000E+00 0. -1.
      99926    2    1    2    0    0  0.00000000000E+00 -0.14210854715E-13  0.48461478763E+03  0.66645701359E+03  0.45750787816E+03 0.  0.
      99925    2    3    3    0    0 -0.40623096805E+02  0.10725264916E+03  0.28366701295E+03  0.40343442332E+03  0.26294294616E+03 0.  0.
         25    1    4    4    0    0 -0.81841769789E+01  0.12041891266E+02  0.13556136793E+03  0.18503075548E+03  0.12509000000E+03 0.  0.
         25    1    4    4    0    0 -0.32438919826E+02  0.95210757896E+02  0.14810564502E+03  0.21840366784E+03  0.12509000000E+03 0.  0.
         25    1    3    3    0    0  0.40623096805E+02 -0.10725264916E+03  0.20094777468E+03  0.26302259027E+03  0.12509000000E+03 0.  0.
<mgrwt>
<rscale>  2 0.45750788E+03</rscale>
<asrwt>0</asrwt>
<pdfrwt beam="1">  1       21 0.84637631E-01 0.45750788E+03</pdfrwt>
<pdfrwt beam="2">  1       21 0.13370752E-01 0.45750788E+03</pdfrwt>
<totfact> 0.53692590E+04</totfact>
</mgrwt>
</event>
<event>
 7    0  0.4784406E-002  0.4827157E+03  0.7546771E-02  0.1018391E+00
         21   -1    0    0  502  501  0.00000000000E+00  0.00000000000E+00  0.31074466275E+03  0.31074466275E+03  0.00000000000E+00 0.  1.
         21   -1    0    0  501  502 -0.00000000000E+00 -0.00000000000E+00 -0.18746458511E+03  0.18746458511E+03  0.00000000000E+00 0.  1.
      99926    2    1    2    0    0  0.00000000000E+00  0.00000000000E+00  0.12328007764E+03  0.49820924786E+03  0.48271573117E+03 0.  0.
      99925    2    3    3    0    0 -0.58425857087E+02  0.28678124735E+02  0.20067241187E+03  0.33735808339E+03  0.26325851160E+03 0.  0.
         25    1    3    3    0    0  0.58425857087E+02 -0.28678124735E+02 -0.77392334233E+02  0.16085116447E+03  0.12509000000E+03 0.  0.
         25    1    4    4    0    0 -0.91095681362E+01  0.24939805399E+02  0.14055876196E+03  0.19002434526E+03  0.12509000000E+03 0.  0.
         25    1    4    4    0    0 -0.49316288951E+02  0.37383193359E+01  0.60113649905E+02  0.14733373813E+03  0.12509000000E+03 0.  0.
<mgrwt>
<rscale>  2 0.48271573E+03</rscale>
<asrwt>0</asrwt>
<pdfrwt beam="1">  1       21 0.45697745E-01 0.48271573E+03</pdfrwt>
<pdfrwt beam="2">  1       21 0.27568321E-01 0.48271573E+03</pdfrwt>
<totfact> 0.52790291E+04</totfact>
</mgrwt>
</event>
<event>
 7    0  0.4784406E-002  0.4399801E+03  0.7546771E-02  0.1030753E+00
         21   -1    0    0  502  501  0.00000000000E+00  0.00000000000E+00  0.30608181800E+02  0.30608181800E+02  0.00000000000E+00 0.  1.
         21   -1    0    0  501  502 -0.00000000000E+00 -0.00000000000E+00 -0.15811333075E+04  0.15811333075E+04  0.00000000000E+00 0.  1.
      99926    2    1    2    0    0 -0.26645352591E-14 -0.14210854715E-13 -0.15505251257E+04  0.16117414893E+04  0.43998007103E+03 0.  0.
      99925    2    3    3    0    0 -0.37143097976E+01 -0.73155108978E+02 -0.74922033683E+03  0.79743052976E+03  0.26305678209E+03 0.  0.
         25    1    4    4    0    0  0.31873686626E+02 -0.30147531478E+02 -0.43246214998E+03  0.45232269987E+03  0.12509000000E+03 0.  0.
         25    1    3    3    0    0  0.37143097976E+01  0.73155108978E+02 -0.80130478890E+03  0.81431095958E+03  0.12509000000E+03 0.  0.
         25    1    4    4    0    0 -0.35587996424E+02 -0.43007577500E+02 -0.31675818686E+03  0.34510782989E+03  0.12509000000E+03 0.  0.
<mgrwt>
<rscale>  2 0.43998007E+03</rscale>
<asrwt>0</asrwt>
<pdfrwt beam="1">  1       21 0.45012037E-02 0.43998007E+03</pdfrwt>
<pdfrwt beam="2">  1       21 0.23251958E+00 0.43998007E+03</pdfrwt>
<totfact> 0.23825767E+04</totfact>
</mgrwt>
</event>
<event>
 7    0  0.4784406E-002  0.4519861E+03  0.7546771E-02  0.1027131E+00
         21   -1    0    0  502  501  0.00000000000E+00  0.00000000000E+00  0.30709083330E+02  0.30709083330E+02  0.00000000000E+00 0.  1.
         21   -1    0    0  501  502 -0.00000000000E+00 -0.00000000000E+00 -0.16631191338E+04  0.16631191338E+04  0.00000000000E+00 0.  1.
      99926    2    1    2    0    0  0.00000000000E+00  0.00000000000E+00 -0.16324100505E+04  0.16938282172E+04  0.45198612398E+03 0.  0.
      99925    2    3    3    0    0  0.18519348277E+02 -0.92913171084E+02 -0.81763748864E+03  0.86408267829E+03  0.26292962645E+03 0.  0.
         25    1    4    4    0    0  0.18275653386E+02 -0.88312980771E+02 -0.44018870045E+03  0.46641910573E+03  0.12509000000E+03 0.  0.
         25    1    4    4    0    0  0.24369489107E+00 -0.46001903122E+01 -0.37744878819E+03  0.39766357256E+03  0.12509000000E+03 0.  0.
         25    1    3    3    0    0 -0.18519348277E+02  0.92913171084E+02 -0.81477256185E+03  0.82974553886E+03  0.12509000000E+03 0.  0.
<mgrwt>
<rscale>  2 0.45198612E+03</rscale>
<asrwt>0</asrwt>
<pdfrwt beam="1">  1       21 0.45160412E-02 0.45198612E+03</pdfrwt>
<pdfrwt beam="2">  1       21 0.24457637E+00 0.45198612E+03</pdfrwt>
<totfact> 0.19850768E+04</totfact>
</mgrwt>
</event>
<event>
 7    0  0.4784406E-002  0.4379366E+03  0.7546771E-02  0.1031382E+00
         21   -1    0    0  502  501  0.00000000000E+00  0.00000000000E+00  0.48492419117E+03  0.48492419117E+03  0.00000000000E+00 0. -1.
         21   -1    0    0  501  502 -0.00000000000E+00 -0.00000000000E+00 -0.98875470458E+02  0.98875470458E+02  0.00000000000E+00 0. -1.
      99926    2    1    2    0    0  0.14210854715E-13  0.88817841970E-15  0.38604872071E+03  0.58379966162E+03  0.43793655951E+03 0.  0.
      99925    2    3    3    0    0  0.80316029907E+02  0.66024449139E+01  0.31723688173E+03  0.41985810428E+03  0.26295880222E+03 0.  0.
         25    1    4    4    0    0  0.95414021219E+01 -0.11909198115E+02  0.11184929199E+03  0.16849522122E+03  0.12509000000E+03 0.  0.
         25    1    3    3    0    0 -0.80316029907E+02 -0.66024449139E+01  0.68811838979E+02  0.16394155734E+03  0.12509000000E+03 0.  0.
         25    1    4    4    0    0  0.70774627785E+02  0.18511643029E+02  0.20538758974E+03  0.25136288307E+03  0.12509000000E+03 0.  0.
<mgrwt>
<rscale>  2 0.43793656E+03</rscale>
<asrwt>0</asrwt>
<pdfrwt beam="1">  1       21 0.71312380E-01 0.43793656E+03</pdfrwt>
<pdfrwt beam="2">  1       21 0.14540511E-01 0.43793656E+03</pdfrwt>
<totfact> 0.68464084E+04</totfact>
</mgrwt>
</event>
<event>
 7    0  0.4784406E-002  0.4609313E+03  0.7546771E-02  0.1024511E+00
         21   -1    0    0  502  501  0.00000000000E+00  0.00000000000E+00  0.37368496234E+03  0.37368496234E+03  0.00000000000E+00 0.  1.
         21   -1    0    0  501  502 -0.00000000000E+00 -0.00000000000E+00 -0.14213690423E+03  0.14213690423E+03  0.00000000000E+00 0.  1.
      99926    2    1    2    0    0  0.00000000000E+00  0.26645352591E-14  0.23154805812E+03  0.51582186657E+03  0.46093133416E+03 0.  0.
      99925    2    3    3    0    0 -0.11135436586E+03  0.74445530372E+01  0.99869568863E+02  0.30265069404E+03  0.26299866093E+03 0.  0.
         25    1    3    3    0    0  0.11135436586E+03 -0.74445530372E+01  0.13167848925E+03  0.21317117253E+03  0.12509000000E+03 0.  0.
         25    1    4    4    0    0 -0.54606438441E+02  0.43927101189E+02  0.44611160842E+02  0.15016363445E+03  0.12509000000E+03 0.  0.
         25    1    4    4    0    0 -0.56747927418E+02 -0.36482548152E+02  0.55258408021E+02  0.15248705959E+03  0.12509000000E+03 0.  0.
<mgrwt>
<rscale>  2 0.46093133E+03</rscale>
<asrwt>0</asrwt>
<pdfrwt beam="1">  1       21 0.54953671E-01 0.46093133E+03</pdfrwt>
<pdfrwt beam="2">  1       21 0.20902486E-01 0.46093133E+03</pdfrwt>
<totfact> 0.61239165E+04</totfact>
</mgrwt>
</event>
<event>
 7    0  0.4784406E-002  0.4520365E+03  0.7546771E-02  0.1027116E+00
         21   -1    0    0  502  501  0.00000000000E+00  0.00000000000E+00  0.31584854297E+03  0.31584854297E+03  0.00000000000E+00 0. -1.
         21   -1    0    0  501  502 -0.00000000000E+00 -0.00000000000E+00 -0.16173656622E+03  0.16173656622E+03  0.00000000000E+00 0. -1.
      99926    2    1    2    0    0  0.00000000000E+00  0.00000000000E+00  0.15411197675E+03  0.47758510919E+03  0.45203654183E+03 0.  0.
      99925    2    3    3    0    0 -0.93802170574E+02 -0.48058233032E+02  0.62858878109E+02  0.29028033863E+03  0.26306462223E+03 0.  0.
         25    1    3    3    0    0  0.93802170574E+02  0.48058233032E+02  0.91253098639E+02  0.18730477057E+03  0.12509000000E+03 0.  0.
         25    1    4    4    0    0 -0.21631220176E+02 -0.40008546431E+02  0.13614139086E+01  0.13310880896E+03  0.12509000000E+03 0.  0.
         25    1    4    4    0    0 -0.72170950398E+02 -0.80496866009E+01  0.61497464200E+02  0.15717152967E+03  0.12509000000E+03 0.  0.
<mgrwt>
<rscale>  2 0.45203654E+03</rscale>
<asrwt>0</asrwt>
<pdfrwt beam="1">  1       21 0.46448315E-01 0.45203654E+03</pdfrwt>
<pdfrwt beam="2">  1       21 0.23784789E-01 0.45203654E+03</pdfrwt>
<totfact> 0.68472785E+04</totfact>
</mgrwt>
</event>
<event>
 7    0  0.4784406E-002  0.4552381E+03  0.7546771E-02  0.1026171E+00
         21   -1    0    0  502  501  0.00000000000E+00  0.00000000000E+00  0.97097758414E+02  0.97097758414E+02  0.00000000000E+00 0. -1.
         21   -1    0    0  501  502 -0.00000000000E+00 -0.00000000000E+00 -0.53359040976E+03  0.53359040976E+03  0.00000000000E+00 0. -1.
      99926    2    1    2    0    0  0.00000000000E+00  0.00000000000E+00 -0.43649265135E+03  0.63068816818E+03  0.45523810341E+03 0.  0.
      99925    2    3    3    0    0 -0.79248169525E+02  0.62282034412E+02 -0.34684690532E+03  0.44672297564E+03  0.26286748953E+03 0.  0.
         25    1    3    3    0    0  0.79248169525E+02 -0.62282034412E+02 -0.89645746024E+02  0.18396519253E+03  0.12509000000E+03 0.  0.
         25    1    4    4    0    0 -0.11954770608E+02  0.60517869623E+02 -0.17283067524E+03  0.22208844969E+03  0.12509000000E+03 0.  0.
         25    1    4    4    0    0 -0.67293398918E+02  0.17641647885E+01 -0.17401623009E+03  0.22463452595E+03  0.12509000000E+03 0.  0.
<mgrwt>
<rscale>  2 0.45523810E+03</rscale>
<asrwt>0</asrwt>
<pdfrwt beam="1">  1       21 0.14279083E-01 0.45523810E+03</pdfrwt>
<pdfrwt beam="2">  1       21 0.78469175E-01 0.45523810E+03</pdfrwt>
<totfact> 0.56721309E+04</totfact>
</mgrwt>
</event>
<event>
 6    0  0.4784406E-002  0.4595316E+03  0.7546771E-02  0.1024917E+00
         21   -1    0    0  502  501  0.00000000000E+00  0.00000000000E+00  0.26451763012E+03  0.26451763012E+03  0.00000000000E+00 0. -1.
         21   -1    0    0  501  502 -0.00000000000E+00 -0.00000000000E+00 -0.19957963651E+03  0.19957963651E+03  0.00000000000E+00 0. -1.
      99926    2    1    2    0    0  0.00000000000E+00  0.00000000000E+00  0.64937993611E+02  0.46409726663E+03  0.45953164187E+03 0.  0.
         25    1    3    3    0    0  0.11407430994E+03 -0.39496133297E+02  0.22853359530E+02  0.17533589728E+03  0.12509000000E+03 0.  0.
         25    1    3    3    0    0 -0.69028103335E+02 -0.50735005432E+01  0.22183199483E+01  0.14297918905E+03  0.12509000000E+03 0.  0.
         25    1    3    3    0    0 -0.45046206603E+02  0.44569633840E+02  0.39866314133E+02  0.14578218030E+03  0.12509000000E+03 0.  0.
<mgrwt>
<rscale>  2 0.45953164E+03</rscale>
<asrwt>0</asrwt>
<pdfrwt beam="1">  1       21 0.38899652E-01 0.45953164E+03</pdfrwt>
<pdfrwt beam="2">  1       21 0.29349946E-01 0.45953164E+03</pdfrwt>
<totfact> 0.65484294E+04</totfact>
</mgrwt>
</event>
<event>
 7    0  0.4784406E-002  0.4514786E+03  0.7546771E-02  0.1027282E+00
         21   -1    0    0  502  501  0.00000000000E+00  0.00000000000E+00  0.35754976729E+02  0.35754976729E+02  0.00000000000E+00 0. -1.
         21   -1    0    0  501  502 -0.00000000000E+00 -0.00000000000E+00 -0.14252066745E+04  0.14252066745E+04  0.00000000000E+00 0. -1.
      99926    2    1    2    0    0  0.00000000000E+00  0.00000000000E+00 -0.13894516978E+04  0.14609616513E+04  0.45147859964E+03 0.  0.
      99925    2    3    3    0    0  0.17231657108E+02 -0.22940330492E+02 -0.53466472650E+03  0.59659398459E+03  0.26312511078E+03 0.  0.
         25    1    4    4    0    0 -0.16790587091E+02  0.15471724339E+02 -0.29868741355E+03  0.32462744366E+03  0.12509000000E+03 0.  0.
         25    1    4    4    0    0  0.34022244199E+02 -0.38412054831E+02 -0.23597731295E+03  0.27196654093E+03  0.12509000000E+03 0.  0.
         25    1    3    3    0    0 -0.17231657108E+02  0.22940330492E+02 -0.85478697132E+03  0.86436766669E+03  0.12509000000E+03 0.  0.
<mgrwt>
<rscale>  2 0.45147860E+03</rscale>
<asrwt>0</asrwt>
<pdfrwt beam="1">  1       21 0.52580847E-02 0.45147860E+03</pdfrwt>
<pdfrwt beam="2">  1       21 0.20958922E+00 0.45147860E+03</pdfrwt>
<totfact> 0.25440605E+04</totfact>
</mgrwt>
</event>
<event>
 7    0  0.4784406E-002  0.4763404E+03  0.7546771E-02  0.1020146E+00
         21   -1    0    0  502  501  0.00000000000E+00  0.00000000000E+00  0.35648603969E+03  0.35648603969E+03  0.00000000000E+00 0. -1.
         21   -1    0    0  501  502 -0.00000000000E+00 -0.00000000000E+00 -0.15912278687E+03  0.15912278687E+03  0.00000000000E+00 0. -1.
      99926    2    1    2    0    0 -0.71054273576E-14  0.35527136788E-14  0.19736325282E+03  0.51560882656E+03  0.47634043337E+03 0.  0.
      99925    2    3    3    0    0  0.45925200400E+02 -0.31103772234E+02 -0.80050016964E+01  0.26882917436E+03  0.26292294737E+03 0.  0.
         25    1    4    4    0    0  0.32945275514E+02 -0.52793439470E+02  0.93973095901E+01  0.14002983952E+03  0.12509000000E+03 0.  0.
         25    1    4    4    0    0  0.12979924887E+02  0.21689667236E+02 -0.17402311287E+02  0.12879933483E+03  0.12509000000E+03 0.  0.
         25    1    3    3    0    0 -0.45925200400E+02  0.31103772234E+02  0.20536825452E+03  0.24677965220E+03  0.12509000000E+03 0.  0.
<mgrwt>
<rscale>  2 0.47634043E+03</rscale>
<asrwt>0</asrwt>
<pdfrwt beam="1">  1       21 0.52424417E-01 0.47634043E+03</pdfrwt>
<pdfrwt beam="2">  1       21 0.23400410E-01 0.47634043E+03</pdfrwt>
<totfact> 0.54376369E+04</totfact>
</mgrwt>
</event>
<event>
 7    0  0.4784406E-002  0.4317128E+03  0.7546771E-02  0.1033320E+00
         21   -1    0    0  502  501  0.00000000000E+00  0.00000000000E+00  0.16894883786E+03  0.16894883786E+03  0.00000000000E+00 0. -1.
         21   -1    0    0  501  502 -0.00000000000E+00 -0.00000000000E+00 -0.27578748968E+03  0.27578748968E+03  0.00000000000E+00 0. -1.
      99926    2    1    2    0    0  0.14210854715E-13  0.00000000000E+00 -0.10683865182E+03  0.44473632754E+03  0.43171275579E+03 0.  0.
      99925    2    3    3    0    0 -0.78367975582E+02  0.36253843842E+02 -0.93369379874E+02  0.29214271635E+03  0.26300883032E+03 0.  0.
         25    1    4    4    0    0 -0.74624992057E+02  0.10653551888E+02 -0.71263069069E+02  0.16250637132E+03  0.12509000000E+03 0.  0.
         25    1    4    4    0    0 -0.37429835242E+01  0.25600291954E+02 -0.22106310805E+02  0.12963634502E+03  0.12509000000E+03 0.  0.
         25    1    3    3    0    0  0.78367975582E+02 -0.36253843842E+02 -0.13469271946E+02  0.15259361119E+03  0.12509000000E+03 0.  0.
<mgrwt>
<rscale>  2 0.43171276E+03</rscale>
<asrwt>0</asrwt>
<pdfrwt beam="1">  1       21 0.24845417E-01 0.43171276E+03</pdfrwt>
<pdfrwt beam="2">  1       21 0.40556984E-01 0.43171276E+03</pdfrwt>
<totfact> 0.83803809E+04</totfact>
</mgrwt>
</event>
<event>
 7    0  0.4784406E-002  0.4581530E+03  0.7546771E-02  0.1025318E+00
         21   -1    0    0  502  501  0.00000000000E+00  0.00000000000E+00  0.66688926689E+02  0.66688926689E+02  0.00000000000E+00 0.  1.
         21   -1    0    0  501  502 -0.00000000000E+00 -0.00000000000E+00 -0.78687797739E+03  0.78687797739E+03  0.00000000000E+00 0.  1.
      99926    2    1    2    0    0  0.00000000000E+00 -0.17763568394E-14 -0.72018905070E+03  0.85356690408E+03  0.45815302137E+03 0.  0.
      99925    2    3    3    0    0 -0.96606848126E+02 -0.11502304823E+01 -0.33379325139E+03  0.43609423676E+03  0.26348822085E+03 0.  0.
         25    1    4    4    0    0 -0.32546921148E+02 -0.28692910083E+02 -0.20164546280E+03  0.24122807866E+03  0.12509000000E+03 0.  0.
         25    1    3    3    0    0  0.96606848126E+02  0.11502304823E+01 -0.38639579931E+03  0.41747266732E+03  0.12509000000E+03 0.  0.
         25    1    4    4    0    0 -0.64059926978E+02  0.27542679600E+02 -0.13214778859E+03  0.19486615810E+03  0.12509000000E+03 0.  0.
<mgrwt>
<rscale>  2 0.45815302E+03</rscale>
<asrwt>0</asrwt>
<pdfrwt beam="1">  1       21 0.98071949E-02 0.45815302E+03</pdfrwt>
<pdfrwt beam="2">  1       21 0.11571735E+00 0.45815302E+03</pdfrwt>
<totfact> 0.44177405E+04</totfact>
</mgrwt>
</event>
<event>
 7    0  0.4784406E-002  0.4521131E+03  0.7546771E-02  0.1027094E+00
         21   -1    0    0  502  501  0.00000000000E+00  0.00000000000E+00  0.92338112126E+03  0.92338112126E+03  0.00000000000E+00 0. -1.
         21   -1    0    0  501  502 -0.00000000000E+00 -0.00000000000E+00 -0.55341778202E+02  0.55341778202E+02  0.00000000000E+00 0. -1.
      99926    2    1    2    0    0 -0.35527136788E-14  0.00000000000E+00  0.86803934306E+03  0.97872289946E+03  0.45211305316E+03 0.  0.
      99925    2    3    3    0    0  0.18224485487E+02 -0.40729845416E+02  0.32866943919E+03  0.42324251864E+03  0.26290602342E+03 0.  0.
         25    1    4    4    0    0  0.65133116033E+01  0.77513089903E+01  0.20523513664E+03  0.24056490897E+03  0.12509000000E+03 0.  0.
         25    1    4    4    0    0  0.11711173884E+02 -0.48481154406E+02  0.12343430255E+03  0.18267760966E+03  0.12509000000E+03 0.  0.
         25    1    3    3    0    0 -0.18224485487E+02  0.40729845416E+02  0.53936990387E+03  0.55548038083E+03  0.12509000000E+03 0.  0.
<mgrwt>
<rscale>  2 0.45211305E+03</rscale>
<asrwt>0</asrwt>
<pdfrwt beam="1">  1       21 0.13579133E+00 0.45211305E+03</pdfrwt>
<pdfrwt beam="2">  1       21 0.81384973E-02 0.45211305E+03</pdfrwt>
<totfact> 0.40914557E+04</totfact>
</mgrwt>
</event>
<event>
 7    0  0.4784406E-002  0.4560885E+03  0.7546771E-02  0.1025922E+00
         21   -1    0    0  502  501  0.00000000000E+00  0.00000000000E+00  0.13171008925E+03  0.13171008925E+03  0.00000000000E+00 0. -1.
         21   -1    0    0  501  502 -0.00000000000E+00 -0.00000000000E+00 -0.39483822445E+03  0.39483822445E+03  0.00000000000E+00 0. -1.
      99926    2    1    2    0    0  0.00000000000E+00  0.00000000000E+00 -0.26312813520E+03  0.52654831370E+03  0.45608849046E+03 0.  0.
      99925    2    3    3    0    0 -0.48732139404E+02 -0.29809527301E+02 -0.51222521477E+02  0.27393214922E+03  0.26296700619E+03 0.  0.
         25    1    4    4    0    0 -0.30386555549E+02 -0.55335971081E+02 -0.27382929401E+02  0.14276815253E+03  0.12509000000E+03 0.  0.
         25    1    4    4    0    0 -0.18345583855E+02  0.25526443780E+02 -0.23839592075E+02  0.13116399670E+03  0.12509000000E+03 0.  0.
         25    1    3    3    0    0  0.48732139404E+02  0.29809527301E+02 -0.21190561372E+03  0.25261616448E+03  0.12509000000E+03 0.  0.
<mgrwt>
<rscale>  2 0.45608849E+03</rscale>
<asrwt>0</asrwt>
<pdfrwt beam="1">  1       21 0.19369131E-01 0.45608849E+03</pdfrwt>
<pdfrwt beam="2">  1       21 0.58064444E-01 0.45608849E+03</pdfrwt>
<totfact> 0.62896338E+04</totfact>
</mgrwt>
</event>
<event>
 7    0  0.4784406E-002  0.4481249E+03  0.7546771E-02  0.1028283E+00
         21   -1    0    0  502  501  0.00000000000E+00  0.00000000000E+00  0.35169758466E+03  0.35169758466E+03  0.00000000000E+00 0.  1.
         21   -1    0    0  501  502 -0.00000000000E+00 -0.00000000000E+00 -0.14274761179E+03  0.14274761179E+03  0.00000000000E+00 0.  1.
      99926    2    1    2    0    0  0.00000000000E+00  0.00000000000E+00  0.20894997287E+03  0.49444519645E+03  0.44812493919E+03 0.  0.
      99925    2    3    3    0    0 -0.38297154993E+02 -0.80275984273E+02  0.67702973970E+02  0.28585677747E+03  0.26309598783E+03 0.  0.
         25    1    4    4    0    0 -0.11318664468E+02 -0.78045502315E+02  0.19770141703E+02  0.14918974227E+03  0.12509000000E+03 0.  0.
         25    1    4    4    0    0 -0.26978490525E+02 -0.22304819582E+01  0.47932832267E+02  0.13666703520E+03  0.12509000000E+03 0.  0.
         25    1    3    3    0    0  0.38297154993E+02  0.80275984273E+02  0.14124699890E+03  0.20858841897E+03  0.12509000000E+03 0.  0.
<mgrwt>
<rscale>  2 0.44812494E+03</rscale>
<asrwt>0</asrwt>
<pdfrwt beam="1">  1       21 0.51720233E-01 0.44812494E+03</pdfrwt>
<pdfrwt beam="2">  1       21 0.20992296E-01 0.44812494E+03</pdfrwt>
<totfact> 0.69372121E+04</totfact>
</mgrwt>
</event>
<event>
 7    0  0.4784406E-002  0.4329996E+03  0.7546771E-02  0.1032917E+00
         21   -1    0    0  502  501  0.00000000000E+00  0.00000000000E+00  0.10393281634E+03  0.10393281634E+03  0.00000000000E+00 0. -1.
         21   -1    0    0  501  502 -0.00000000000E+00 -0.00000000000E+00 -0.45098517525E+03  0.45098517525E+03  0.00000000000E+00 0. -1.
      99926    2    1    2    0    0  0.00000000000E+00  0.00000000000E+00 -0.34705235891E+03  0.55491799158E+03  0.43299958147E+03 0.  0.
      99925    2    3    3    0    0 -0.86061473869E+02  0.28196843940E+02 -0.21176134607E+03  0.34960650738E+03  0.26302129765E+03 0.  0.
         25    1    3    3    0    0  0.86061473869E+02 -0.28196843940E+02 -0.13529101284E+03  0.20531148421E+03  0.12509000000E+03 0.  0.
         25    1    4    4    0    0 -0.11056274385E+02  0.13264049072E+02 -0.64468940126E+02  0.14178127007E+03  0.12509000000E+03 0.  0.
         25    1    4    4    0    0 -0.75005199484E+02  0.14932794868E+02 -0.14729240595E+03  0.20782523731E+03  0.12509000000E+03 0.  0.
<mgrwt>
<rscale>  2 0.43299958E+03</rscale>
<asrwt>0</asrwt>
<pdfrwt beam="1">  1       21 0.15284238E-01 0.43299958E+03</pdfrwt>
<pdfrwt beam="2">  1       21 0.66321348E-01 0.43299958E+03</pdfrwt>
<totfact> 0.73527944E+04</totfact>
</mgrwt>
</event>
<event>
 7    0  0.4784406E-002  0.4467558E+03  0.7546771E-02  0.1028694E+00
         21   -1    0    0  502  501  0.00000000000E+00  0.00000000000E+00  0.20236831057E+03  0.20236831057E+03  0.00000000000E+00 0.  1.
         21   -1    0    0  501  502 -0.00000000000E+00 -0.00000000000E+00 -0.24656862527E+03  0.24656862527E+03  0.00000000000E+00 0.  1.
      99926    2    1    2    0    0  0.00000000000E+00  0.00000000000E+00 -0.44200314693E+02  0.44893693584E+03  0.44675575490E+03 0.  0.
      99925    2    3    3    0    0 -0.29952223063E+02  0.63838851392E+02  0.50535896443E+02  0.27690498411E+03  0.26296379748E+03 0.  0.
         25    1    3    3    0    0  0.29952223063E+02 -0.63838851392E+02 -0.94736211136E+02  0.17203195172E+03  0.12509000000E+03 0.  0.
         25    1    4    4    0    0 -0.30617227520E+01  0.62781378919E+02  0.18588915691E+01  0.14000656864E+03  0.12509000000E+03 0.  0.
         25    1    4    4    0    0 -0.26890500311E+02  0.10574724726E+01  0.48677004874E+02  0.13689841547E+03  0.12509000000E+03 0.  0.
<mgrwt>
<rscale>  2 0.44675575E+03</rscale>
<asrwt>0</asrwt>
<pdfrwt beam="1">  1       21 0.29760046E-01 0.44675575E+03</pdfrwt>
<pdfrwt beam="2">  1       21 0.36260092E-01 0.44675575E+03</pdfrwt>
<totfact> 0.73723555E+04</totfact>
</mgrwt>
</event>
<event>
 7    0  0.4784406E-002  0.4564282E+03  0.7546771E-02  0.1025822E+00
         21   -1    0    0  502  501  0.00000000000E+00  0.00000000000E+00  0.83018534853E+03  0.83018534853E+03  0.00000000000E+00 0. -1.
         21   -1    0    0  501  502 -0.00000000000E+00 -0.00000000000E+00 -0.62734989250E+02  0.62734989250E+02  0.00000000000E+00 0. -1.
      99926    2    1    2    0    0  0.00000000000E+00  0.00000000000E+00  0.76745035928E+03  0.89292033778E+03  0.45642817142E+03 0.  0.
      99925    2    3    3    0    0 -0.79879919356E+02 -0.53677270369E+02  0.36093818865E+03  0.45684499584E+03  0.26299985425E+03 0.  0.
         25    1    4    4    0    0 -0.52331085380E+02 -0.62526990515E+02  0.16442482052E+03  0.22210627354E+03  0.12509000000E+03 0.  0.
         25    1    4    4    0    0 -0.27548833976E+02  0.88497201462E+01  0.19651336812E+03  0.23473872231E+03  0.12509000000E+03 0.  0.
         25    1    3    3    0    0  0.79879919356E+02  0.53677270369E+02  0.40651217064E+03  0.43607534194E+03  0.12509000000E+03 0.  0.
<mgrwt>
<rscale>  2 0.45642817E+03</rscale>
<asrwt>0</asrwt>
<pdfrwt beam="1">  1       21 0.12208607E+00 0.45642817E+03</pdfrwt>
<pdfrwt beam="2">  1       21 0.92257342E-02 0.45642817E+03</pdfrwt>
<totfact> 0.43057664E+04</totfact>
</mgrwt>
</event>
<event>
 7    0  0.4784406E-002  0.4560730E+03  0.7546771E-02  0.1025926E+00
         21   -1    0    0  502  501  0.00000000000E+00  0.00000000000E+00  0.29261342593E+03  0.29261342593E+03  0.00000000000E+00 0.  1.
         21   -1    0    0  501  502 -0.00000000000E+00 -0.00000000000E+00 -0.17771104654E+03  0.17771104654E+03  0.00000000000E+00 0.  1.
      99926    2    1    2    0    0  0.17763568394E-14 -0.14210854715E-13  0.11490237938E+03  0.47032447247E+03  0.45607296852E+03 0.  0.
      99925    2    3    3    0    0 -0.10385757034E+02 -0.99120877570E+02  0.14774159367E+02  0.28162900124E+03  0.26299012573E+03 0.  0.
         25    1    4    4    0    0 -0.28798028605E+02 -0.44129678993E+02 -0.25236876459E+02  0.13806217097E+03  0.12509000000E+03 0.  0.
         25    1    3    3    0    0  0.10385757034E+02  0.99120877570E+02  0.10012822001E+03  0.18869547123E+03  0.12509000000E+03 0.  0.
         25    1    4    4    0    0  0.18412271571E+02 -0.54991198577E+02  0.40011035827E+02  0.14356683027E+03  0.12509000000E+03 0.  0.
<mgrwt>
<rscale>  2 0.45607297E+03</rscale>
<asrwt>0</asrwt>
<pdfrwt beam="1">  1       21 0.43031387E-01 0.45607297E+03</pdfrwt>
<pdfrwt beam="2">  1       21 0.26133977E-01 0.45607297E+03</pdfrwt>
<totfact> 0.66840862E+04</totfact>
</mgrwt>
</event>
<event>
 7    0  0.4784406E-002  0.4522795E+03  0.7546771E-02  0.1027044E+00
         21   -1    0    0  502  501  0.00000000000E+00  0.00000000000E+00  0.59390356205E+03  0.59390356205E+03  0.00000000000E+00 0. -1.
         21   -1    0    0  501  502 -0.00000000000E+00 -0.00000000000E+00 -0.86106896758E+02  0.86106896758E+02  0.00000000000E+00 0. -1.
      99926    2    1    2    0    0  0.14210854715E-13  0.00000000000E+00  0.50779666530E+03  0.68001045881E+03  0.45227952729E+03 0.  0.
      99925    2    3    3    0    0  0.10787094512E+03  0.24308936057E+02  0.31333524560E+03  0.42371021101E+03  0.26291500833E+03 0.  0.
         25    1    3    3    0    0 -0.10787094512E+03 -0.24308936057E+02  0.19446141970E+03  0.25630024780E+03  0.12509000000E+03 0.  0.
         25    1    4    4    0    0  0.74661370260E+02  0.40134894592E+02  0.20195668249E+03  0.25222834828E+03  0.12509000000E+03 0.  0.
         25    1    4    4    0    0  0.33209574857E+02 -0.15825958535E+02  0.11137856311E+03  0.17148186273E+03  0.12509000000E+03 0.  0.
<mgrwt>
<rscale>  2 0.45227953E+03</rscale>
<asrwt>0</asrwt>
<pdfrwt beam="1">  1       21 0.87338757E-01 0.45227953E+03</pdfrwt>
<pdfrwt beam="2">  1       21 0.12662779E-01 0.45227953E+03</pdfrwt>
<totfact> 0.55174625E+04</totfact>
</mgrwt>
</event>
<event>
 7    0  0.4784406E-002  0.4550466E+03  0.7546771E-02  0.1026228E+00
         21   -1    0    0  502  501  0.00000000000E+00  0.00000000000E+00  0.16042261120E+03  0.16042261120E+03  0.00000000000E+00 0.  1.
         21   -1    0    0  501  502 -0.00000000000E+00 -0.00000000000E+00 -0.32269044336E+03  0.32269044336E+03  0.00000000000E+00 0.  1.
      99926    2    1    2    0    0 -0.14210854715E-13  0.71054273576E-14 -0.16226783216E+03  0.48311305456E+03  0.45504656259E+03 0.  0.
      99925    2    3    3    0    0 -0.10102238949E+03  0.50887055679E+02 -0.96643968513E+02  0.30214616479E+03  0.26297762763E+03 0.  0.
         25    1    4    4    0    0 -0.67146835335E+02  0.40228142643E+02 -0.14345553394E+02  0.14825755953E+03  0.12509000000E+03 0.  0.
         25    1    3    3    0    0  0.10102238949E+03 -0.50887055679E+02 -0.65623863649E+02  0.18096688977E+03  0.12509000000E+03 0.  0.
         25    1    4    4    0    0 -0.33875554151E+02  0.10658913036E+02 -0.82298415119E+02  0.15388860525E+03  0.12509000000E+03 0.  0.
<mgrwt>
<rscale>  2 0.45504656E+03</rscale>
<asrwt>0</asrwt>
<pdfrwt beam="1">  1       21 0.23591560E-01 0.45504656E+03</pdfrwt>
<pdfrwt beam="2">  1       21 0.47454477E-01 0.45504656E+03</pdfrwt>
<totfact> 0.66449620E+04</totfact>
</mgrwt>
</event>
<event>
 7    0  0.4784406E-002  0.4584215E+03  0.7546771E-02  0.1025240E+00
         21   -1    0    0  502  501  0.00000000000E+00  0.00000000000E+00  0.71717151772E+03  0.71717151772E+03  0.00000000000E+00 0. -1.
         21   -1    0    0  501  502 -0.00000000000E+00 -0.00000000000E+00 -0.73256622878E+02  0.73256622878E+02  0.00000000000E+00 0. -1.
      99926    2    1    2    0    0 -0.13322676296E-14  0.14210854715E-13  0.64391489484E+03  0.79042814060E+03  0.45842148035E+03 0.  0.
      99925    2    3    3    0    0 -0.11488902304E+01  0.11271084121E+03  0.35449798371E+03  0.45559279267E+03  0.26304166704E+03 0.  0.
         25    1    3    3    0    0  0.11488902304E+01 -0.11271084121E+03  0.28941691113E+03  0.33483534793E+03  0.12509000000E+03 0.  0.
         25    1    4    4    0    0  0.38294866599E+02  0.66616486366E+02  0.19322917568E+03  0.24267112621E+03  0.12509000000E+03 0.  0.
         25    1    4    4    0    0 -0.39443756830E+02  0.46094354848E+02  0.16126880803E+03  0.21292166645E+03  0.12509000000E+03 0.  0.
<mgrwt>
<rscale>  2 0.45842148E+03</rscale>
<asrwt>0</asrwt>
<pdfrwt beam="1">  1       21 0.10546640E+00 0.45842148E+03</pdfrwt>
<pdfrwt beam="2">  1       21 0.10773033E-01 0.45842148E+03</pdfrwt>
<totfact> 0.46957583E+04</totfact>
</mgrwt>
</event>
<event>
 7    0  0.4784406E-002  0.4557608E+03  0.7546771E-02  0.1026018E+00
         21   -1    0    0  502  501  0.00000000000E+00  0.00000000000E+00  0.48130003655E+02  0.48130003655E+02  0.00000000000E+00 0. -1.
         21   -1    0    0  501  502 -0.00000000000E+00 -0.00000000000E+00 -0.10789420660E+04  0.10789420660E+04  0.00000000000E+00 0. -1.
      99926    2    1    2    0    0  0.00000000000E+00 -0.14210854715E-13 -0.10308120623E+04  0.11270720696E+04  0.45576083895E+03 0.  0.
      99925    2    3    3    0    0 -0.77300106944E+02 -0.68396540143E+02 -0.76689075637E+03  0.81730545253E+03  0.26308435395E+03 0.  0.
         25    1    4    4    0    0 -0.21468733404E+02 -0.64930846086E+02 -0.33135083672E+03  0.36071845861E+03  0.12509000000E+03 0.  0.
         25    1    4    4    0    0 -0.55831373540E+02 -0.34656940564E+01 -0.43553991966E+03  0.45658699392E+03  0.12509000000E+03 0.  0.
         25    1    3    3    0    0  0.77300106944E+02  0.68396540143E+02 -0.26392130596E+03  0.30976661711E+03  0.12509000000E+03 0.  0.
<mgrwt>
<rscale>  2 0.45576084E+03</rscale>
<asrwt>0</asrwt>
<pdfrwt beam="1">  1       21 0.70779417E-02 0.45576084E+03</pdfrwt>
<pdfrwt beam="2">  1       21 0.15866795E+00 0.45576084E+03</pdfrwt>
<totfact> 0.34352961E+04</totfact>
</mgrwt>
</event>
<event>
 7    0  0.4784406E-002  0.4433610E+03  0.7546771E-02  0.1029721E+00
         21   -1    0    0  502  501  0.00000000000E+00  0.00000000000E+00  0.27238388719E+03  0.27238388719E+03  0.00000000000E+00 0.  1.
         21   -1    0    0  501  502 -0.00000000000E+00 -0.00000000000E+00 -0.18041534811E+03  0.18041534811E+03  0.00000000000E+00 0.  1.
      99926    2    1    2    0    0  0.00000000000E+00  0.71054273576E-14  0.91968539078E+02  0.45279923530E+03  0.44336095375E+03 0.  0.
      99925    2    3    3    0    0  0.61905885628E+02  0.31919661860E+02  0.13427658857E+03  0.30350528820E+03  0.26312364820E+03 0.  0.
         25    1    4    4    0    0  0.51808518024E+02  0.47127373399E+02  0.91388813821E+02  0.17001333846E+03  0.12509000000E+03 0.  0.
         25    1    4    4    0    0  0.10097367604E+02 -0.15207711539E+02  0.42887774752E+02  0.13349194974E+03  0.12509000000E+03 0.  0.
         25    1    3    3    0    0 -0.61905885628E+02 -0.31919661860E+02 -0.42308049495E+02  0.14929394710E+03  0.12509000000E+03 0.  0.
<mgrwt>
<rscale>  2 0.44336095E+03</rscale>
<asrwt>0</asrwt>
<pdfrwt beam="1">  1       21 0.40056454E-01 0.44336095E+03</pdfrwt>
<pdfrwt beam="2">  1       21 0.26531669E-01 0.44336095E+03</pdfrwt>
<totfact> 0.75467209E+04</totfact>
</mgrwt>
</event>
<event>
 7    0  0.4784406E-002  0.4476900E+03  0.7546771E-02  0.1028413E+00
         21   -1    0    0  502  501  0.00000000000E+00  0.00000000000E+00  0.25311129649E+03  0.25311129649E+03  0.00000000000E+00 0. -1.
         21   -1    0    0  501  502 -0.00000000000E+00 -0.00000000000E+00 -0.19796267084E+03  0.19796267084E+03  0.00000000000E+00 0. -1.
      99926    2    1    2    0    0  0.17763568394E-14  0.00000000000E+00  0.55148625649E+02  0.45107396733E+03  0.44769001897E+03 0.  0.
      99925    2    3    3    0    0  0.12007394513E+02  0.85522377987E+02 -0.27279984178E+02  0.27815711309E+03  0.26299986192E+03 0.  0.
         25    1    4    4    0    0  0.31667839779E+02  0.10107449995E+02 -0.13360196082E+02  0.13011923594E+03  0.12509000000E+03 0.  0.
         25    1    3    3    0    0 -0.12007394513E+02 -0.85522377987E+02  0.82428609827E+02  0.17291685423E+03  0.12509000000E+03 0.  0.
         25    1    4    4    0    0 -0.19660445267E+02  0.75414927992E+02 -0.13919788095E+02  0.14803787716E+03  0.12509000000E+03 0.  0.
<mgrwt>
<rscale>  2 0.44769002E+03</rscale>
<asrwt>0</asrwt>
<pdfrwt beam="1">  1       21 0.37222250E-01 0.44769002E+03</pdfrwt>
<pdfrwt beam="2">  1       21 0.29112157E-01 0.44769002E+03</pdfrwt>
<totfact> 0.72999684E+04</totfact>
</mgrwt>
</event>
<event>
 7    0  0.4784406E-002  0.4601641E+03  0.7546771E-02  0.1024734E+00
         21   -1    0    0  502  501  0.00000000000E+00  0.00000000000E+00  0.46140904132E+02  0.46140904132E+02  0.00000000000E+00 0.  1.
         21   -1    0    0  501  502 -0.00000000000E+00 -0.00000000000E+00 -0.11473060708E+04  0.11473060708E+04  0.00000000000E+00 0.  1.
      99926    2    1    2    0    0 -0.14210854715E-13  0.00000000000E+00 -0.11011651667E+04  0.11934469749E+04  0.46016405519E+03 0.  0.
      99925    2    3    3    0    0 -0.11631970908E+03 -0.17366607014E+02 -0.71249478560E+03  0.76854222445E+03  0.26301417738E+03 0.  0.
         25    1    3    3    0    0  0.11631970908E+03  0.17366607014E+02 -0.38867038107E+03  0.42490475048E+03  0.12509000000E+03 0.  0.
         25    1    4    4    0    0 -0.15282334536E+02 -0.10796915074E+02 -0.28722020019E+03  0.31383606329E+03  0.12509000000E+03 0.  0.
         25    1    4    4    0    0 -0.10103737454E+03 -0.65696919400E+01 -0.42527458541E+03  0.45470616116E+03  0.12509000000E+03 0.  0.
<mgrwt>
<rscale>  2 0.46016406E+03</rscale>
<asrwt>0</asrwt>
<pdfrwt beam="1">  1       21 0.67854272E-02 0.46016406E+03</pdfrwt>
<pdfrwt beam="2">  1       21 0.16872148E+00 0.46016406E+03</pdfrwt>
<totfact> 0.31094427E+04</totfact>
</mgrwt>
</event>
<event>
 7    0  0.4784406E-002  0.4595498E+03  0.7546771E-02  0.1024912E+00
         21   -1    0    0  502  501  0.00000000000E+00  0.00000000000E+00  0.32505541663E+03  0.32505541663E+03  0.00000000000E+00 0.  1.
         21   -1    0    0  501  502 -0.00000000000E+00 -0.00000000000E+00 -0.16242309069E+03  0.16242309069E+03  0.00000000000E+00 0.  1.
      99926    2    1    2    0    0  0.00000000000E+00  0.71054273576E-14  0.16263232594E+03  0.48747850732E+03  0.45954980324E+03 0.  0.
      99925    2    3    3    0    0  0.30712592074E+02  0.50659016118E+02  0.20909541727E+03  0.34147876012E+03  0.26339561664E+03 0.  0.
         25    1    4    4    0    0  0.25370737869E+02  0.65931793980E+02  0.11761338853E+03  0.18566392503E+03  0.12509000000E+03 0.  0.
         25    1    3    3    0    0 -0.30712592074E+02 -0.50659016118E+02 -0.46463091331E+02  0.14599974720E+03  0.12509000000E+03 0.  0.
         25    1    4    4    0    0  0.53418542056E+01 -0.15272777863E+02  0.91482028740E+02  0.15581483508E+03  0.12509000000E+03 0.  0.
<mgrwt>
<rscale>  2 0.45954980E+03</rscale>
<asrwt>0</asrwt>
<pdfrwt beam="1">  1       21 0.47802267E-01 0.45954980E+03</pdfrwt>
<pdfrwt beam="2">  1       21 0.23885749E-01 0.45954980E+03</pdfrwt>
<totfact> 0.63823132E+04</totfact>
</mgrwt>
</event>
<event>
 7    0  0.4784406E-002  0.4550208E+03  0.7546771E-02  0.1026235E+00
         21   -1    0    0  502  501  0.00000000000E+00  0.00000000000E+00  0.31479386505E+03  0.31479386505E+03  0.00000000000E+00 0. -1.
         21   -1    0    0  501  502 -0.00000000000E+00 -0.00000000000E+00 -0.16442817123E+03  0.16442817123E+03  0.00000000000E+00 0. -1.
      99926    2    1    2    0    0  0.35527136788E-14  0.00000000000E+00  0.15036569382E+03  0.47922203628E+03  0.45502078873E+03 0.  0.
      99925    2    3    3    0    0 -0.17148684971E+02 -0.37832616499E+02 -0.16317214236E+02  0.26672242639E+03  0.26296238703E+03 0.  0.
         25    1    4    4    0    0  0.18330985736E+02  0.95096819092E+01 -0.19709277805E+02  0.12830597344E+03  0.12509000000E+03 0.  0.
         25    1    4    4    0    0 -0.35479670707E+02 -0.47342298408E+02  0.33920635692E+01  0.13841645295E+03  0.12509000000E+03 0.  0.
         25    1    3    3    0    0  0.17148684971E+02  0.37832616499E+02  0.16668290805E+03  0.21249960989E+03  0.12509000000E+03 0.  0.
<mgrwt>
<rscale>  2 0.45502079E+03</rscale>
<asrwt>0</asrwt>
<pdfrwt beam="1">  1       21 0.46293215E-01 0.45502079E+03</pdfrwt>
<pdfrwt beam="2">  1       21 0.24180613E-01 0.45502079E+03</pdfrwt>
<totfact> 0.66745755E+04</totfact>
</mgrwt>
</event>
<event>
 7    0  0.4784406E-002  0.4524496E+03  0.7546771E-02  0.1026994E+00
         21   -1    0    0  502  501  0.00000000000E+00  0.00000000000E+00  0.17264506396E+03  0.17264506396E+03  0.00000000000E+00 0.  1.
         21   -1    0    0  501  502 -0.00000000000E+00 -0.00000000000E+00 -0.29643274064E+03  0.29643274064E+03  0.00000000000E+00 0.  1.
      99926    2    1    2    0    0 -0.14210854715E-13  0.00000000000E+00 -0.12378767669E+03  0.46907780460E+03  0.45244955284E+03 0.  0.
      99925    2    3    3    0    0 -0.64579381916E+02  0.42730691709E+02  0.40682354593E+01  0.27416487288E+03  0.26297037551E+03 0.  0.
         25    1    3    3    0    0  0.64579381916E+02 -0.42730691709E+02 -0.12785591215E+03  0.19491293173E+03  0.12509000000E+03 0.  0.
         25    1    4    4    0    0 -0.54737755329E+02  0.28106489073E+02 -0.31515826712E+02  0.14292288837E+03  0.12509000000E+03 0.  0.
         25    1    4    4    0    0 -0.98416265871E+01  0.14624202636E+02  0.35584062172E+02  0.13124198451E+03  0.12509000000E+03 0.  0.
<mgrwt>
<rscale>  2 0.45244955E+03</rscale>
<asrwt>0</asrwt>
<pdfrwt beam="1">  1       21 0.25388980E-01 0.45244955E+03</pdfrwt>
<pdfrwt beam="2">  1       21 0.43593049E-01 0.45244955E+03</pdfrwt>
<totfact> 0.68887689E+04</totfact>
</mgrwt>
</event>
<event>
 7    0  0.4784406E-002  0.4591809E+03  0.7546771E-02  0.1025019E+00
         21   -1    0    0  502  501  0.00000000000E+00  0.00000000000E+00  0.25782993234E+03  0.25782993234E+03  0.00000000000E+00 0.  1.
         21   -1    0    0  501  502 -0.00000000000E+00 -0.00000000000E+00 -0.20444399295E+03  0.20444399295E+03  0.00000000000E+00 0.  1.
      99926    2    1    2    0    0  0.00000000000E+00  0.71054273576E-14  0.53385939397E+02  0.46227392529E+03  0.45918092673E+03 0.  0.
      99925    2    3    3    0    0  0.73847671626E+02 -0.59678964407E+02  0.10240378315E+03  0.29775853238E+03  0.26298013500E+03 0.  0.
         25    1    4    4    0    0 -0.23785714159E+01 -0.21931791944E+02  0.61092231384E+02  0.14094832363E+03  0.12509000000E+03 0.  0.
         25    1    4    4    0    0  0.76226243041E+02 -0.37747172463E+02  0.41311551769E+02  0.15681020875E+03  0.12509000000E+03 0.  0.
         25    1    3    3    0    0 -0.73847671626E+02  0.59678964407E+02 -0.49017843757E+02  0.16451539291E+03  0.12509000000E+03 0.  0.
<mgrwt>
<rscale>  2 0.45918093E+03</rscale>
<asrwt>0</asrwt>
<pdfrwt beam="1">  1       21 0.37916166E-01 0.45918093E+03</pdfrwt>
<pdfrwt beam="2">  1       21 0.30065293E-01 0.45918093E+03</pdfrwt>
<totfact> 0.65793826E+04</totfact>
</mgrwt>
</event>
<event>
 7    0  0.4784406E-002  0.4567663E+03  0.7546771E-02  0.1025723E+00
         21   -1    0    0  502  501  0.00000000000E+00  0.00000000000E+00  0.36940130059E+03  0.36940130059E+03  0.00000000000E+00 0.  1.
         21   -1    0    0  501  502 -0.00000000000E+00 -0.00000000000E+00 -0.14119839413E+03  0.14119839413E+03  0.00000000000E+00 0.  1.
      99926    2    1    2    0    0  0.00000000000E+00  0.00000000000E+00  0.22820290646E+03  0.51059969472E+03  0.45676633166E+03 0.  0.
      99925    2    3    3    0    0 -0.54223968181E+02 -0.86429899161E+02  0.20237972534E+03  0.34712275146E+03  0.26291878054E+03 0.  0.
         25    1    3    3    0    0  0.54223968181E+02  0.86429899161E+02  0.25823181124E+02  0.16347694326E+03  0.12509000000E+03 0.  0.
         25    1    4    4    0    0 -0.67793721260E+02 -0.52910664278E+02  0.10740480090E+03  0.18595382866E+03  0.12509000000E+03 0.  0.
         25    1    4    4    0    0  0.13569753080E+02 -0.33519234883E+02  0.94974924443E+02  0.16116892281E+03  0.12509000000E+03 0.  0.
<mgrwt>
<rscale>  2 0.45676633E+03</rscale>
<asrwt>0</asrwt>
<pdfrwt beam="1">  1       21 0.54323721E-01 0.45676633E+03</pdfrwt>
<pdfrwt beam="2">  1       21 0.20764470E-01 0.45676633E+03</pdfrwt>
<totfact> 0.63635482E+04</totfact>
</mgrwt>
</event>
<event>
 7    0  0.4784406E-002  0.4535906E+03  0.7546771E-02  0.1026657E+00
         21   -1    0    0  502  501  0.00000000000E+00  0.00000000000E+00  0.13932509993E+03  0.13932509993E+03  0.00000000000E+00 0.  1.
         21   -1    0    0  501  502 -0.00000000000E+00 -0.00000000000E+00 -0.36918043737E+03  0.36918043737E+03  0.00000000000E+00 0.  1.
      99926    2    1    2    0    0  0.14210854715E-13  0.00000000000E+00 -0.22985533744E+03  0.50850553730E+03  0.45359057014E+03 0.  0.
      99925    2    3    3    0    0 -0.10600556559E+03  0.32809660092E+02 -0.16131822365E+03  0.32778891439E+03  0.26288466936E+03 0.  0.
         25    1    4    4    0    0 -0.35553793174E+02 -0.17417141913E+02 -0.55275668332E+02  0.14237393248E+03  0.12509000000E+03 0.  0.
         25    1    4    4    0    0 -0.70451772413E+02  0.50226802005E+02 -0.10604255532E+03  0.18541498190E+03  0.12509000000E+03 0.  0.
         25    1    3    3    0    0  0.10600556559E+03 -0.32809660092E+02 -0.68537113788E+02  0.18071662291E+03  0.12509000000E+03 0.  0.
<mgrwt>
<rscale>  2 0.45359057E+03</rscale>
<asrwt>0</asrwt>
<pdfrwt beam="1">  1       21 0.20488985E-01 0.45359057E+03</pdfrwt>
<pdfrwt beam="2">  1       21 0.54291241E-01 0.45359057E+03</pdfrwt>
<totfact> 0.65405720E+04</totfact>
</mgrwt>
</event>
<event>
 7    0  0.4784406E-002  0.4566566E+03  0.7546771E-02  0.1025755E+00
         21   -1    0    0  502  501  0.00000000000E+00  0.00000000000E+00  0.23814410546E+02  0.23814410546E+02  0.00000000000E+00 0.  1.
         21   -1    0    0  501  502 -0.00000000000E+00 -0.00000000000E+00 -0.21891709564E+04  0.21891709564E+04  0.00000000000E+00 0.  1.
      99926    2    1    2    0    0 -0.22204460493E-15  0.14210854715E-13 -0.21653565459E+04  0.22129853670E+04  0.45665661458E+03 0.  0.
      99925    2    3    3    0    0  0.18575693793E+01 -0.80565040461E+02 -0.17561579365E+04  0.17775715565E+04  0.26301285962E+03 0.  0.
         25    1    4    4    0    0  0.39975837951E+01 -0.77610702392E+02 -0.10712244894E+04  0.10812995961E+04  0.12509000000E+03 0.  0.
         25    1    4    4    0    0 -0.21400144158E+01 -0.29543380685E+01 -0.68493344710E+03  0.69627196039E+03  0.12509000000E+03 0.  0.
         25    1    3    3    0    0 -0.18575693793E+01  0.80565040461E+02 -0.40919860937E+03  0.43541381044E+03  0.12509000000E+03 0.  0.
<mgrwt>
<rscale>  2 0.45665661E+03</rscale>
<asrwt>0</asrwt>
<pdfrwt beam="1">  1       21 0.35021193E-02 0.45665661E+03</pdfrwt>
<pdfrwt beam="2">  1       21 0.32193689E+00 0.45665661E+03</pdfrwt>
<totfact> 0.10399422E+04</totfact>
</mgrwt>
</event>
<event>
 7    0  0.4784406E-002  0.4594756E+03  0.7546771E-02  0.1024933E+00
         21   -1    0    0  502  501  0.00000000000E+00  0.00000000000E+00  0.10585718431E+04  0.10585718431E+04  0.00000000000E+00 0.  1.
         21   -1    0    0  501  502 -0.00000000000E+00 -0.00000000000E+00 -0.49859118672E+02  0.49859118672E+02  0.00000000000E+00 0.  1.
      99926    2    1    2    0    0  0.00000000000E+00  0.00000000000E+00  0.10087127244E+04  0.11084309618E+04  0.45947561044E+03 0.  0.
      99925    2    3    3    0    0 -0.73532652244E+02 -0.84354896048E+02  0.54756716645E+03  0.61769118024E+03  0.26303952734E+03 0.  0.
         25    1    3    3    0    0  0.73532652244E+02  0.84354896048E+02  0.46114555797E+03  0.49073978152E+03  0.12509000000E+03 0.  0.
         25    1    4    4    0    0 -0.20565692344E+02 -0.32722947563E+02  0.33974836960E+03  0.36410191120E+03  0.12509000000E+03 0.  0.
         25    1    4    4    0    0 -0.52966959900E+02 -0.51631948485E+02  0.20781879685E+03  0.25358926904E+03  0.12509000000E+03 0.  0.
<mgrwt>
<rscale>  2 0.45947561E+03</rscale>
<asrwt>0</asrwt>
<pdfrwt beam="1">  1       21 0.15567232E+00 0.45947561E+03</pdfrwt>
<pdfrwt beam="2">  1       21 0.73322240E-02 0.45947561E+03</pdfrwt>
<totfact> 0.33998797E+04</totfact>
</mgrwt>
</event>
<event>
 7    0  0.4784406E-002  0.4468288E+03  0.7546771E-02  0.1028672E+00
         21   -1    0    0  502  501  0.00000000000E+00  0.00000000000E+00  0.44052443713E+03  0.44052443713E+03  0.00000000000E+00 0.  1.
         21   -1    0    0  501  502 -0.00000000000E+00 -0.00000000000E+00 -0.11330583949E+03  0.11330583949E+03  0.00000000000E+00 0.  1.
      99926    2    1    2    0    0 -0.71054273576E-14  0.00000000000E+00  0.32721859764E+03  0.55383027662E+03  0.44682878675E+03 0.  0.
      99925    2    3    3    0    0  0.47024675097E+02  0.89067948214E+02  0.24373982385E+03  0.37283128978E+03  0.26353301394E+03 0.  0.
         25    1    3    3    0    0 -0.47024675097E+02 -0.89067948214E+02  0.83478773785E+02  0.18099898685E+03  0.12509000000E+03 0.  0.
         25    1    4    4    0    0  0.73584449989E+01  0.33742190564E+01  0.11152958790E+03  0.16778524710E+03  0.12509000000E+03 0.  0.
         25    1    4    4    0    0  0.39666230098E+02  0.85693729158E+02  0.13221023595E+03  0.20504604268E+03  0.12509000000E+03 0.  0.
<mgrwt>
<rscale>  2 0.44682879E+03</rscale>
<asrwt>0</asrwt>
<pdfrwt beam="1">  1       21 0.64783005E-01 0.44682879E+03</pdfrwt>
<pdfrwt beam="2">  1       21 0.16662624E-01 0.44682879E+03</pdfrwt>
<totfact> 0.65763236E+04</totfact>
</mgrwt>
</event>
<event>
 7    0  0.4784406E-002  0.4479367E+03  0.7546771E-02  0.1028339E+00
         21   -1    0    0  502  501  0.00000000000E+00  0.00000000000E+00  0.50084482180E+03  0.50084482180E+03  0.00000000000E+00 0.  1.
         21   -1    0    0  501  502 -0.00000000000E+00 -0.00000000000E+00 -0.10015439977E+03  0.10015439977E+03  0.00000000000E+00 0.  1.
      99926    2    1    2    0    0  0.00000000000E+00  0.14210854715E-13  0.40069042203E+03  0.60099922156E+03  0.44793665848E+03 0.  0.
      99925    2    3    3    0    0  0.32879869014E+02 -0.64191366148E+02  0.35875437484E+03  0.45064045917E+03  0.26300286063E+03 0.  0.
         25    1    4    4    0    0  0.28182755572E+02 -0.17281495436E+02  0.11725540044E+03  0.17461172592E+03  0.12509000000E+03 0.  0.
         25    1    4    4    0    0  0.46971134422E+01 -0.46909870712E+02  0.24149897440E+03  0.27602873325E+03  0.12509000000E+03 0.  0.
         25    1    3    3    0    0 -0.32879869014E+02  0.64191366148E+02  0.41936047191E+02  0.15035876239E+03  0.12509000000E+03 0.  0.
<mgrwt>
<rscale>  2 0.44793666E+03</rscale>
<asrwt>0</asrwt>
<pdfrwt beam="1">  1       21 0.73653649E-01 0.44793666E+03</pdfrwt>
<pdfrwt beam="2">  1       21 0.14728588E-01 0.44793666E+03</pdfrwt>
<totfact> 0.62005283E+04</totfact>
</mgrwt>
</event>
<event>
 7    0  0.4784406E-002  0.4557823E+03  0.7546771E-02  0.1026012E+00
         21   -1    0    0  502  501  0.00000000000E+00  0.00000000000E+00  0.86430052797E+03  0.86430052797E+03  0.00000000000E+00 0. -1.
         21   -1    0    0  501  502 -0.00000000000E+00 -0.00000000000E+00 -0.60088333996E+02  0.60088333996E+02  0.00000000000E+00 0. -1.
      99926    2    1    2    0    0 -0.71054273576E-14  0.00000000000E+00  0.80421219398E+03  0.92438886197E+03  0.45578231119E+03 0.  0.
      99925    2    3    3    0    0  0.49248739877E+02 -0.77162500155E+02  0.36914064343E+03  0.46252930322E+03  0.26322813660E+03 0.  0.
         25    1    3    3    0    0 -0.49248739877E+02  0.77162500155E+02  0.43507155054E+03  0.46185955874E+03  0.12509000000E+03 0.  0.
         25    1    4    4    0    0  0.11311995320E+02 -0.47294881234E+02  0.24722583241E+03  0.28130568309E+03  0.12509000000E+03 0.  0.
         25    1    4    4    0    0  0.37936744556E+02 -0.29867618921E+02  0.12191481102E+03  0.18122362013E+03  0.12509000000E+03 0.  0.
<mgrwt>
<rscale>  2 0.45578231E+03</rscale>
<asrwt>0</asrwt>
<pdfrwt beam="1">  1       21 0.12710301E+00 0.45578231E+03</pdfrwt>
<pdfrwt beam="2">  1       21 0.88365202E-02 0.45578231E+03</pdfrwt>
<totfact> 0.41938492E+04</totfact>
</mgrwt>
</event>
<event>
 7    0  0.4784406E-002  0.4490043E+03  0.7546771E-02  0.1028019E+00
         21   -1    0    0  502  501  0.00000000000E+00  0.00000000000E+00  0.10345274412E+03  0.10345274412E+03  0.00000000000E+00 0. -1.
         21   -1    0    0  501  502 -0.00000000000E+00 -0.00000000000E+00 -0.48719067060E+03  0.48719067060E+03  0.00000000000E+00 0. -1.
      99926    2    1    2    0    0 -0.71054273576E-14 -0.14210854715E-13 -0.38373792648E+03  0.59064341472E+03  0.44900428409E+03 0.  0.
      99925    2    3    3    0    0 -0.42588272434E+02 -0.76069474441E+02 -0.16043517105E+03  0.32025119114E+03  0.26309894607E+03 0.  0.
         25    1    4    4    0    0  0.17178588035E+02 -0.23875446424E+02 -0.64666533556E+02  0.14385551603E+03  0.12509000000E+03 0.  0.
         25    1    3    3    0    0  0.42588272434E+02  0.76069474441E+02 -0.22330275544E+03  0.27039222359E+03  0.12509000000E+03 0.  0.
         25    1    4    4    0    0 -0.59766860469E+02 -0.52194028017E+02 -0.95768637489E+02  0.17639567511E+03  0.12509000000E+03 0.  0.
<mgrwt>
<rscale>  2 0.44900428E+03</rscale>
<asrwt>0</asrwt>
<pdfrwt beam="1">  1       21 0.15213639E-01 0.44900428E+03</pdfrwt>
<pdfrwt beam="2">  1       21 0.71645687E-01 0.44900428E+03</pdfrwt>
<totfact> 0.62151014E+04</totfact>
</mgrwt>
</event>
<event>
 7    0  0.4784406E-002  0.4492427E+03  0.7546771E-02  0.1027948E+00
         21   -1    0    0  502  501  0.00000000000E+00  0.00000000000E+00  0.73916910059E+03  0.73916910059E+03  0.00000000000E+00 0. -1.
         21   -1    0    0  501  502 -0.00000000000E+00 -0.00000000000E+00 -0.68258752394E+02  0.68258752394E+02  0.00000000000E+00 0. -1.
      99926    2    1    2    0    0  0.00000000000E+00  0.00000000000E+00  0.67091034819E+03  0.80742785298E+03  0.44924274335E+03 0.  0.
      99925    2    3    3    0    0 -0.47000660929E+02 -0.82134158394E+02  0.33195486098E+03  0.43393968380E+03  0.26297250303E+03 0.  0.
         25    1    4    4    0    0 -0.27073682506E+02 -0.80147278284E+02  0.15592238664E+03  0.21706190190E+03  0.12509000000E+03 0.  0.
         25    1    3    3    0    0  0.47000660929E+02  0.82134158394E+02  0.33895548722E+03  0.37348816918E+03  0.12509000000E+03 0.  0.
         25    1    4    4    0    0 -0.19926978423E+02 -0.19868801100E+01  0.17603247434E+03  0.21687778191E+03  0.12509000000E+03 0.  0.
<mgrwt>
<rscale>  2 0.44924274E+03</rscale>
<asrwt>0</asrwt>
<pdfrwt beam="1">  1       21 0.10870133E+00 0.44924274E+03</pdfrwt>
<pdfrwt beam="2">  1       21 0.10038052E-01 0.44924274E+03</pdfrwt>
<totfact> 0.49611356E+04</totfact>
</mgrwt>
</event>
<event>
 7    0  0.4784406E-002  0.4568843E+03  0.7546771E-02  0.1025689E+00
         21   -1    0    0  502  501  0.00000000000E+00  0.00000000000E+00  0.33296511141E+03  0.33296511141E+03  0.00000000000E+00 0. -1.
         21   -1    0    0  501  502 -0.00000000000E+00 -0.00000000000E+00 -0.15673060888E+03  0.15673060888E+03  0.00000000000E+00 0. -1.
      99926    2    1    2    0    0  0.00000000000E+00 -0.71054273576E-14  0.17623450253E+03  0.48969572029E+03  0.45688433831E+03 0.  0.
      99925    2    3    3    0    0 -0.52224069809E+02 -0.60528035472E+02  0.19918031127E+03  0.33947916067E+03  0.26302529838E+03 0.  0.
         25    1    3    3    0    0  0.52224069809E+02  0.60528035472E+02 -0.22945808742E+02  0.15021655962E+03  0.12509000000E+03 0.  0.
         25    1    4    4    0    0 -0.19967914436E+02  0.75586112361E+01  0.11299907715E+03  0.16991806775E+03  0.12509000000E+03 0.  0.
         25    1    4    4    0    0 -0.32256155373E+02 -0.68086646708E+02  0.86181234124E+02  0.16956109293E+03  0.12509000000E+03 0.  0.
<mgrwt>
<rscale>  2 0.45688434E+03</rscale>
<asrwt>0</asrwt>
<pdfrwt beam="1">  1       21 0.48965458E-01 0.45688434E+03</pdfrwt>
<pdfrwt beam="2">  1       21 0.23048619E-01 0.45688434E+03</pdfrwt>
<totfact> 0.65022671E+04</totfact>
</mgrwt>
</event>
<event>
 7    0  0.4784406E-002  0.4543804E+03  0.7546771E-02  0.1026424E+00
         21   -1    0    0  502  501  0.00000000000E+00  0.00000000000E+00  0.13201908730E+03  0.13201908730E+03  0.00000000000E+00 0.  1.
         21   -1    0    0  501  502 -0.00000000000E+00 -0.00000000000E+00 -0.39096916094E+03  0.39096916094E+03  0.00000000000E+00 0.  1.
      99926    2    1    2    0    0  0.00000000000E+00  0.00000000000E+00 -0.25895007364E+03  0.52298824824E+03  0.45438042119E+03 0.  0.
      99925    2    3    3    0    0  0.53008976127E+02 -0.53815792744E+02 -0.25912619254E+03  0.37685943446E+03  0.26300296307E+03 0.  0.
         25    1    4    4    0    0  0.34082820399E+02 -0.39660873751E+02 -0.18560644820E+03  0.22985187679E+03  0.12509000000E+03 0.  0.
         25    1    3    3    0    0 -0.53008976127E+02  0.53815792744E+02  0.17611890438E+00  0.14612881378E+03  0.12509000000E+03 0.  0.
         25    1    4    4    0    0  0.18926155728E+02 -0.14154918992E+02 -0.73519744343E+02  0.14700755766E+03  0.12509000000E+03 0.  0.
<mgrwt>
<rscale>  2 0.45438042E+03</rscale>
<asrwt>0</asrwt>
<pdfrwt beam="1">  1       21 0.19414572E-01 0.45438042E+03</pdfrwt>
<pdfrwt beam="2">  1       21 0.57495465E-01 0.45438042E+03</pdfrwt>
<totfact> 0.63997402E+04</totfact>
</mgrwt>
</event>
<event>
 7    0  0.4784406E-002  0.4751956E+03  0.7546771E-02  0.1020464E+00
         21   -1    0    0  502  501  0.00000000000E+00  0.00000000000E+00  0.19471440578E+03  0.19471440578E+03  0.00000000000E+00 0.  1.
         21   -1    0    0  501  502 -0.00000000000E+00 -0.00000000000E+00 -0.28992573068E+03  0.28992573068E+03  0.00000000000E+00 0.  1.
      99926    2    1    2    0    0  0.00000000000E+00  0.00000000000E+00 -0.95211324908E+02  0.48464013646E+03  0.47519560760E+03 0.  0.
      99925    2    3    3    0    0  0.11179781749E+03  0.65287159712E+02 -0.80881267182E+02  0.30404660426E+03  0.26294750990E+03 0.  0.
         25    1    4    4    0    0  0.82933017629E+02  0.10059937608E+02 -0.20515272034E+02  0.15181393956E+03  0.12509000000E+03 0.  0.
         25    1    4    4    0    0  0.28864799857E+02  0.55227222104E+02 -0.60365995148E+02  0.15223266470E+03  0.12509000000E+03 0.  0.
         25    1    3    3    0    0 -0.11179781749E+03 -0.65287159712E+02 -0.14330057726E+02  0.18059353220E+03  0.12509000000E+03 0.  0.
<mgrwt>
<rscale>  2 0.47519561E+03</rscale>
<asrwt>0</asrwt>
<pdfrwt beam="1">  1       21 0.28634472E-01 0.47519561E+03</pdfrwt>
<pdfrwt beam="2">  1       21 0.42636137E-01 0.47519561E+03</pdfrwt>
<totfact> 0.56710826E+04</totfact>
</mgrwt>
</event>
<event>
 7    0  0.4784406E-002  0.4533430E+03  0.7546771E-02  0.1026730E+00
         21   -1    0    0  502  501  0.00000000000E+00  0.00000000000E+00  0.20335243768E+03  0.20335243768E+03  0.00000000000E+00 0.  1.
         21   -1    0    0  501  502 -0.00000000000E+00 -0.00000000000E+00 -0.25266460491E+03  0.25266460491E+03  0.00000000000E+00 0.  1.
      99926    2    1    2    0    0  0.00000000000E+00  0.71054273576E-14 -0.49312167234E+02  0.45601704259E+03  0.45334297534E+03 0.  0.
      99925    2    3    3    0    0 -0.92673500517E+02  0.34789911411E+02 -0.81982161708E+02  0.29318721647E+03  0.26351271967E+03 0.  0.
         25    1    4    4    0    0 -0.41573124982E+02 -0.22190206178E+02 -0.25759221230E+02  0.13613146422E+03  0.12509000000E+03 0.  0.
         25    1    4    4    0    0 -0.51100375535E+02  0.56980117589E+02 -0.56222940478E+02  0.15705575225E+03  0.12509000000E+03 0.  0.
         25    1    3    3    0    0  0.92673500517E+02 -0.34789911411E+02  0.32669994474E+02  0.16282982612E+03  0.12509000000E+03 0.  0.
<mgrwt>
<rscale>  2 0.45334298E+03</rscale>
<asrwt>0</asrwt>
<pdfrwt beam="1">  1       21 0.29904770E-01 0.45334298E+03</pdfrwt>
<pdfrwt beam="2">  1       21 0.37156560E-01 0.45334298E+03</pdfrwt>
<totfact> 0.69384070E+04</totfact>
</mgrwt>
</event>
<event>
 7    0  0.4784406E-002  0.4482700E+03  0.7546771E-02  0.1028239E+00
         21   -1    0    0  502  501  0.00000000000E+00  0.00000000000E+00  0.67544509435E+03  0.67544509435E+03  0.00000000000E+00 0. -1.
         21   -1    0    0  501  502 -0.00000000000E+00 -0.00000000000E+00 -0.74375382280E+02  0.74375382280E+02  0.00000000000E+00 0. -1.
      99926    2    1    2    0    0  0.00000000000E+00  0.00000000000E+00  0.60106971207E+03  0.74982047663E+03  0.44826995037E+03 0.  0.
      99925    2    3    3    0    0  0.33659366099E+02 -0.69028508368E+02  0.25644761219E+03  0.37524099545E+03  0.26294968906E+03 0.  0.
         25    1    3    3    0    0 -0.33659366099E+02  0.69028508368E+02  0.34462209989E+03  0.37457948118E+03  0.12509000000E+03 0.  0.
         25    1    4    4    0    0 -0.23059185623E+02 -0.29274730364E+02  0.13285499631E+03  0.18624364157E+03  0.12509000000E+03 0.  0.
         25    1    4    4    0    0  0.56718551722E+02 -0.39753778004E+02  0.12359261588E+03  0.18899735388E+03  0.12509000000E+03 0.  0.
<mgrwt>
<rscale>  2 0.44826995E+03</rscale>
<asrwt>0</asrwt>
<pdfrwt beam="1">  1       21 0.99330157E-01 0.44826995E+03</pdfrwt>
<pdfrwt beam="2">  1       21 0.10937557E-01 0.44826995E+03</pdfrwt>
<totfact> 0.53029910E+04</totfact>
</mgrwt>
</event>
<event>
 7    0  0.4784406E-002  0.4528703E+03  0.7546771E-02  0.1026870E+00
         21   -1    0    0  502  501  0.00000000000E+00  0.00000000000E+00  0.77264901971E+03  0.77264901971E+03  0.00000000000E+00 0.  1.
         21   -1    0    0  501  502 -0.00000000000E+00 -0.00000000000E+00 -0.66359842349E+02  0.66359842349E+02  0.00000000000E+00 0.  1.
      99926    2    1    2    0    0  0.35527136788E-14  0.00000000000E+00  0.70628917736E+03  0.83900886206E+03  0.45287025577E+03 0.  0.
      99925    2    3    3    0    0 -0.30626473973E+02 -0.44145614386E+02  0.26491314742E+03  0.37711371803E+03  0.26296190688E+03 0.  0.
         25    1    3    3    0    0  0.30626473973E+02  0.44145614386E+02  0.44137602994E+03  0.46189514403E+03  0.12509000000E+03 0.  0.
         25    1    4    4    0    0  0.16372953994E+02 -0.24014611181E+02  0.16482685252E+03  0.20895017250E+03  0.12509000000E+03 0.  0.
         25    1    4    4    0    0 -0.46999427966E+02 -0.20131003205E+02  0.10008629490E+03  0.16816354553E+03  0.12509000000E+03 0.  0.
<mgrwt>
<rscale>  2 0.45287026E+03</rscale>
<asrwt>0</asrwt>
<pdfrwt beam="1">  1       21 0.11362485E+00 0.45287026E+03</pdfrwt>
<pdfrwt beam="2">  1       21 0.97588008E-02 0.45287026E+03</pdfrwt>
<totfact> 0.46710724E+04</totfact>
</mgrwt>
</event>
<event>
 7    0  0.4784406E-002  0.4554184E+03  0.7546771E-02  0.1026118E+00
         21   -1    0    0  502  501  0.00000000000E+00  0.00000000000E+00  0.70614916261E+03  0.70614916261E+03  0.00000000000E+00 0.  1.
         21   -1    0    0  501  502 -0.00000000000E+00 -0.00000000000E+00 -0.73428523902E+02  0.73428523902E+02  0.00000000000E+00 0.  1.
      99926    2    1    2    0    0  0.35527136788E-14  0.14210854715E-13  0.63272063871E+03  0.77957768651E+03  0.45541844787E+03 0.  0.
      99925    2    3    3    0    0 -0.21010638537E+02  0.10290547106E+03  0.32412379347E+03  0.43042083939E+03  0.26301118337E+03 0.  0.
         25    1    4    4    0    0 -0.43674659173E+02  0.33889013537E+02  0.13340496550E+03  0.19105060589E+03  0.12509000000E+03 0.  0.
         25    1    3    3    0    0  0.21010638537E+02 -0.10290547106E+03  0.30859684524E+03  0.34915684712E+03  0.12509000000E+03 0.  0.
         25    1    4    4    0    0  0.22664020636E+02  0.69016457519E+02  0.19071882797E+03  0.23937023349E+03  0.12509000000E+03 0.  0.
<mgrwt>
<rscale>  2 0.45541845E+03</rscale>
<asrwt>0</asrwt>
<pdfrwt beam="1">  1       21 0.10384546E+00 0.45541845E+03</pdfrwt>
<pdfrwt beam="2">  1       21 0.10798313E-01 0.45541845E+03</pdfrwt>
<totfact> 0.48608663E+04</totfact>
</mgrwt>
</event>
<event>
 7    0  0.4784406E-002  0.4603643E+03  0.7546771E-02  0.1024676E+00
         21   -1    0    0  502  501  0.00000000000E+00  0.00000000000E+00  0.46629847626E+02  0.46629847626E+02  0.00000000000E+00 0.  1.
         21   -1    0    0  501  502 -0.00000000000E+00 -0.00000000000E+00 -0.11362639669E+04  0.11362639669E+04  0.00000000000E+00 0.  1.
      99926    2    1    2    0    0  0.00000000000E+00  0.66613381478E-15 -0.10896341193E+04  0.11828938145E+04  0.46036427159E+03 0.  0.
      99925    2    3    3    0    0  0.78014537635E+02 -0.11859581810E+01 -0.45446353797E+03  0.53083795033E+03  0.26299077471E+03 0.  0.
         25    1    4    4    0    0  0.45800787538E+02 -0.29493676936E+02 -0.28420921750E+03  0.31526175875E+03  0.12509000000E+03 0.  0.
         25    1    4    4    0    0  0.32213750097E+02  0.28307718755E+02 -0.17025432047E+03  0.21557619158E+03  0.12509000000E+03 0.  0.
         25    1    3    3    0    0 -0.78014537635E+02  0.11859581810E+01 -0.63517058128E+03  0.65205586418E+03  0.12509000000E+03 0.  0.
<mgrwt>
<rscale>  2 0.46036427E+03</rscale>
<asrwt>0</asrwt>
<pdfrwt beam="1">  1       21 0.68573317E-02 0.46036427E+03</pdfrwt>
<pdfrwt beam="2">  1       21 0.16709761E+00 0.46036427E+03</pdfrwt>
<totfact> 0.31371097E+04</totfact>
</mgrwt>
</event>
<event>
 7    0  0.4784406E-002  0.4537377E+03  0.7546771E-02  0.1026613E+00
         21   -1    0    0  502  501  0.00000000000E+00  0.00000000000E+00  0.63586998016E+03  0.63586998016E+03  0.00000000000E+00 0.  1.
         21   -1    0    0  501  502 -0.00000000000E+00 -0.00000000000E+00 -0.80943412948E+02  0.80943412948E+02  0.00000000000E+00 0.  1.
      99926    2    1    2    0    0 -0.35527136788E-14 -0.71054273576E-14  0.55492656721E+03  0.71681339310E+03  0.45373774974E+03 0.  0.
      99925    2    3    3    0    0 -0.19792381633E+02  0.59054115156E+02  0.49661641303E+03  0.56539771007E+03  0.26299730412E+03 0.  0.
         25    1    4    4    0    0  0.22017470152E+02  0.52661821358E+02  0.27401945530E+03  0.30658148412E+03  0.12509000000E+03 0.  0.
         25    1    3    3    0    0  0.19792381633E+02 -0.59054115156E+02  0.58310154175E+02  0.15141568303E+03  0.12509000000E+03 0.  0.
         25    1    4    4    0    0 -0.41809851785E+02  0.63922937980E+01  0.22259695774E+03  0.25881622596E+03  0.12509000000E+03 0.  0.
<mgrwt>
<rscale>  2 0.45373775E+03</rscale>
<asrwt>0</asrwt>
<pdfrwt beam="1">  1       21 0.93510289E-01 0.45373775E+03</pdfrwt>
<pdfrwt beam="2">  1       21 0.11903443E-01 0.45373775E+03</pdfrwt>
<totfact> 0.52519152E+04</totfact>
</mgrwt>
</event>
<event>
 7    0  0.4784406E-002  0.4544404E+03  0.7546771E-02  0.1026406E+00
         21   -1    0    0  502  501  0.00000000000E+00  0.00000000000E+00  0.83100153173E+02  0.83100153173E+02  0.00000000000E+00 0. -1.
         21   -1    0    0  501  502 -0.00000000000E+00 -0.00000000000E+00 -0.62128671433E+03  0.62128671433E+03  0.00000000000E+00 0. -1.
      99926    2    1    2    0    0  0.00000000000E+00  0.00000000000E+00 -0.53818656115E+03  0.70438686750E+03  0.45444040808E+03 0.  0.
      99925    2    3    3    0    0  0.19875936355E+02  0.97657496456E+02 -0.25427314689E+03  0.37852435913E+03  0.26209505483E+03 0.  0.
         25    1    4    4    0    0  0.23444275047E+01  0.77964809821E+02 -0.17186351737E+03  0.22642567128E+03  0.12509000000E+03 0.  0.
         25    1    3    3    0    0 -0.19875936355E+02 -0.97657496456E+02 -0.28391341426E+03  0.32586250837E+03  0.12509000000E+03 0.  0.
         25    1    4    4    0    0  0.17531508850E+02  0.19692686635E+02 -0.82409629520E+02  0.15209868785E+03  0.12509000000E+03 0.  0.
<mgrwt>
<rscale>  2 0.45444041E+03</rscale>
<asrwt>0</asrwt>
<pdfrwt beam="1">  1       21 0.12220611E-01 0.45444041E+03</pdfrwt>
<pdfrwt beam="2">  1       21 0.91365695E-01 0.45444041E+03</pdfrwt>
<totfact> 0.52897965E+04</totfact>
</mgrwt>
</event>
<event>
 7    0  0.4784406E-002  0.4469205E+03  0.7546771E-02  0.1028644E+00
         21   -1    0    0  502  501  0.00000000000E+00  0.00000000000E+00  0.33845053965E+02  0.33845053965E+02  0.00000000000E+00 0.  1.
         21   -1    0    0  501  502 -0.00000000000E+00 -0.00000000000E+00 -0.14753846477E+04  0.14753846477E+04  0.00000000000E+00 0.  1.
      99926    2    1    2    0    0  0.00000000000E+00  0.00000000000E+00 -0.14415395937E+04  0.15092297017E+04  0.44692045387E+03 0.  0.
      99925    2    3    3    0    0 -0.47452250741E+02  0.17994532366E+02 -0.12258527078E+04  0.12547815534E+04  0.26303301353E+03 0.  0.
         25    1    3    3    0    0  0.47452250741E+02 -0.17994532366E+02 -0.21568688590E+03  0.25444814824E+03  0.12509000000E+03 0.  0.
         25    1    4    4    0    0 -0.12165798402E+01 -0.23080585356E+02 -0.64240522140E+03  0.65487874455E+03  0.12509000000E+03 0.  0.
         25    1    4    4    0    0 -0.46235670901E+02  0.41075117721E+02 -0.58344748644E+03  0.59990280888E+03  0.12509000000E+03 0.  0.
<mgrwt>
<rscale>  2 0.44692045E+03</rscale>
<asrwt>0</asrwt>
<pdfrwt beam="1">  1       21 0.49772143E-02 0.44692045E+03</pdfrwt>
<pdfrwt beam="2">  1       21 0.21696831E+00 0.44692045E+03</pdfrwt>
<totfact> 0.25091933E+04</totfact>
</mgrwt>
</event>
<event>
 7    0  0.4784406E-002  0.4540153E+03  0.7546771E-02  0.1026531E+00
         21   -1    0    0  502  501  0.00000000000E+00  0.00000000000E+00  0.43233935325E+03  0.43233935325E+03  0.00000000000E+00 0. -1.
         21   -1    0    0  501  502 -0.00000000000E+00 -0.00000000000E+00 -0.11919448417E+03  0.11919448417E+03  0.00000000000E+00 0. -1.
      99926    2    1    2    0    0  0.00000000000E+00 -0.17763568394E-14  0.31314486908E+03  0.55153383743E+03  0.45401526934E+03 0.  0.
      99925    2    3    3    0    0 -0.11003549915E+03 -0.11287386857E+02  0.22081960729E+03  0.36072849620E+03  0.26292305496E+03 0.  0.
         25    1    4    4    0    0 -0.60423048814E+02  0.17004797396E+02  0.69504110864E+02  0.15626399934E+03  0.12509000000E+03 0.  0.
         25    1    4    4    0    0 -0.49612450336E+02 -0.28292184254E+02  0.15131549642E+03  0.20446449686E+03  0.12509000000E+03 0.  0.
         25    1    3    3    0    0  0.11003549915E+03  0.11287386857E+02  0.92325261798E+02  0.19080534123E+03  0.12509000000E+03 0.  0.
<mgrwt>
<rscale>  2 0.45401527E+03</rscale>
<asrwt>0</asrwt>
<pdfrwt beam="1">  1       21 0.63579316E-01 0.45401527E+03</pdfrwt>
<pdfrwt beam="2">  1       21 0.17528601E-01 0.45401527E+03</pdfrwt>
<totfact> 0.62248819E+04</totfact>
</mgrwt>
</event>
<event>
 7    0  0.4784406E-002  0.4502986E+03  0.7546771E-02  0.1027633E+00
         21   -1    0    0  502  501  0.00000000000E+00  0.00000000000E+00  0.24400401871E+04  0.24400401871E+04  0.00000000000E+00 0. -1.
         21   -1    0    0  501  502 -0.00000000000E+00 -0.00000000000E+00 -0.20775154724E+02  0.20775154724E+02  0.00000000000E+00 0. -1.
      99926    2    1    2    0    0  0.00000000000E+00  0.00000000000E+00  0.24192650323E+04  0.24608153418E+04  0.45029862278E+03 0.  0.
      99925    2    3    3    0    0 -0.16668576896E+02  0.10732729356E+03  0.15524151146E+04  0.15782773667E+04  0.26300146189E+03 0.  0.
         25    1    4    4    0    0  0.13003691906E+02  0.74947824407E+02  0.96834985848E+03  0.97935449603E+03  0.12509000000E+03 0.  0.
         25    1    3    3    0    0  0.16668576896E+02 -0.10732729356E+03  0.86684991775E+03  0.88253797504E+03  0.12509000000E+03 0.  0.
         25    1    4    4    0    0 -0.29672268802E+02  0.32379469149E+02  0.58406525611E+03  0.59892287070E+03  0.12509000000E+03 0.  0.
<mgrwt>
<rscale>  2 0.45029862E+03</rscale>
<asrwt>0</asrwt>
<pdfrwt beam="1">  1       21 0.35882924E+00 0.45029862E+03</pdfrwt>
<pdfrwt beam="2">  1       21 0.30551715E-02 0.45029862E+03</pdfrwt>
<totfact> 0.78231672E+03</totfact>
</mgrwt>
</event>
<event>
 7    0  0.4784406E-002  0.4579374E+03  0.7546771E-02  0.1025381E+00
         21   -1    0    0  502  501  0.00000000000E+00  0.00000000000E+00  0.50378786010E+02  0.50378786010E+02  0.00000000000E+00 0. -1.
         21   -1    0    0  501  502 -0.00000000000E+00 -0.00000000000E+00 -0.10406494175E+04  0.10406494175E+04  0.00000000000E+00 0. -1.
      99926    2    1    2    0    0  0.22204460493E-14  0.14210854715E-13 -0.99027063150E+03  0.10910282035E+04  0.45793735080E+03 0.  0.
      99925    2    3    3    0    0  0.29109871466E+00 -0.10702083396E+03 -0.72775758663E+03  0.78116670145E+03  0.26293871322E+03 0.  0.
         25    1    4    4    0    0 -0.39476855602E+02 -0.58733085995E+02 -0.38690609000E+03  0.41273699628E+03  0.12509000000E+03 0.  0.
         25    1    3    3    0    0 -0.29109871466E+00  0.10702083396E+03 -0.26251304487E+03  0.30986150207E+03  0.12509000000E+03 0.  0.
         25    1    4    4    0    0  0.39767954317E+02 -0.48287747964E+02 -0.34085149662E+03  0.36842970516E+03  0.12509000000E+03 0.  0.
<mgrwt>
<rscale>  2 0.45793735E+03</rscale>
<asrwt>0</asrwt>
<pdfrwt beam="1">  1       21 0.74086456E-02 0.45793735E+03</pdfrwt>
<pdfrwt beam="2">  1       21 0.15303667E+00 0.45793735E+03</pdfrwt>
<totfact> 0.34997975E+04</totfact>
</mgrwt>
</event>
<event>
 7    0  0.4784406E-002  0.4362113E+03  0.7546771E-02  0.1031916E+00
         21   -1    0    0  502  501  0.00000000000E+00  0.00000000000E+00  0.11511916610E+03  0.11511916610E+03  0.00000000000E+00 0. -1.
         21   -1    0    0  501  502 -0.00000000000E+00 -0.00000000000E+00 -0.41322467585E+03  0.41322467585E+03  0.00000000000E+00 0. -1.
      99926    2    1    2    0    0  0.00000000000E+00  0.00000000000E+00 -0.29810550975E+03  0.52834384195E+03  0.43621132537E+03 0.  0.
      99925    2    3    3    0    0 -0.53871996825E+02  0.75986312180E+02 -0.21157863114E+03  0.34998880136E+03  0.26277467961E+03 0.  0.
         25    1    3    3    0    0  0.53871996825E+02 -0.75986312180E+02 -0.86526878606E+02  0.17835504058E+03  0.12509000000E+03 0.  0.
         25    1    4    4    0    0 -0.26733297865E+01  0.39169350120E+02 -0.14303937861E+03  0.19403390584E+03  0.12509000000E+03 0.  0.
         25    1    4    4    0    0 -0.51198667038E+02  0.36816962060E+02 -0.68539252531E+02  0.15595489553E+03  0.12509000000E+03 0.  0.
<mgrwt>
<rscale>  2 0.43621133E+03</rscale>
<asrwt>0</asrwt>
<pdfrwt beam="1">  1       21 0.16929289E-01 0.43621133E+03</pdfrwt>
<pdfrwt beam="2">  1       21 0.60768335E-01 0.43621133E+03</pdfrwt>
<totfact> 0.73683431E+04</totfact>
</mgrwt>
</event>
<event>
 7    0  0.4784406E-002  0.4735040E+03  0.7546771E-02  0.1020936E+00
         21   -1    0    0  502  501  0.00000000000E+00  0.00000000000E+00  0.13594033599E+03  0.13594033599E+03  0.00000000000E+00 0.  1.
         21   -1    0    0  501  502 -0.00000000000E+00 -0.00000000000E+00 -0.41232439925E+03  0.41232439925E+03  0.00000000000E+00 0.  1.
      99926    2    1    2    0    0 -0.14210854715E-13  0.00000000000E+00 -0.27638406326E+03  0.54826473524E+03  0.47350403323E+03 0.  0.
      99925    2    3    3    0    0 -0.71738768523E+02  0.10619071113E+03 -0.19433879145E+03  0.35128287627E+03  0.26307636773E+03 0.  0.
         25    1    4    4    0    0 -0.11193919414E+02  0.77813559920E+02 -0.12438799989E+03  0.19313243269E+03  0.12509000000E+03 0.  0.
         25    1    3    3    0    0  0.71738768523E+02 -0.10619071113E+03 -0.82045271815E+02  0.19698185898E+03  0.12509000000E+03 0.  0.
         25    1    4    4    0    0 -0.60544849109E+02  0.28377151207E+02 -0.69950791560E+02  0.15815044358E+03  0.12509000000E+03 0.  0.
<mgrwt>
<rscale>  2 0.47350403E+03</rscale>
<asrwt>0</asrwt>
<pdfrwt beam="1">  1       21 0.19991225E-01 0.47350403E+03</pdfrwt>
<pdfrwt beam="2">  1       21 0.60635943E-01 0.47350403E+03</pdfrwt>
<totfact> 0.53673750E+04</totfact>
</mgrwt>
</event>
<event>
 7    0  0.4784406E-002  0.4535423E+03  0.7546771E-02  0.1026671E+00
         21   -1    0    0  502  501  0.00000000000E+00  0.00000000000E+00  0.13433016551E+04  0.13433016551E+04  0.00000000000E+00 0. -1.
         21   -1    0    0  501  502 -0.00000000000E+00 -0.00000000000E+00 -0.38282661700E+02  0.38282661700E+02  0.00000000000E+00 0. -1.
      99926    2    1    2    0    0  0.00000000000E+00  0.00000000000E+00  0.13050189934E+04  0.13815843168E+04  0.45354233683E+03 0.  0.
      99925    2    3    3    0    0 -0.10168122151E+03 -0.43636640140E+02  0.87027548520E+03  0.91586696348E+03  0.26303925081E+03 0.  0.
         25    1    4    4    0    0 -0.73608262587E+02  0.11878504139E+02  0.43711635556E+03  0.46073581538E+03  0.12509000000E+03 0.  0.
         25    1    3    3    0    0  0.10168122151E+03  0.43636640140E+02  0.43474350825E+03  0.46571735337E+03  0.12509000000E+03 0.  0.
         25    1    4    4    0    0 -0.28072958928E+02 -0.55515144280E+02  0.43315912965E+03  0.45513114809E+03  0.12509000000E+03 0.  0.
<mgrwt>
<rscale>  2 0.45354234E+03</rscale>
<asrwt>0</asrwt>
<pdfrwt beam="1">  1       21 0.19754433E+00 0.45354234E+03</pdfrwt>
<pdfrwt beam="2">  1       21 0.56298041E-02 0.45354234E+03</pdfrwt>
<totfact> 0.27133000E+04</totfact>
</mgrwt>
</event>
<event>
 7    0  0.4784406E-002  0.4614028E+03  0.7546771E-02  0.1024375E+00
         21   -1    0    0  502  501  0.00000000000E+00  0.00000000000E+00  0.11464286023E+03  0.11464286023E+03  0.00000000000E+00 0. -1.
         21   -1    0    0  501  502 -0.00000000000E+00 -0.00000000000E+00 -0.46425173157E+03  0.46425173157E+03  0.00000000000E+00 0. -1.
      99926    2    1    2    0    0  0.00000000000E+00  0.00000000000E+00 -0.34960887135E+03  0.57889459180E+03  0.46140284512E+03 0.  0.
      99925    2    3    3    0    0  0.48706124313E+02  0.61512415313E+02 -0.10630209884E+03  0.29428651490E+03  0.26296074394E+03 0.  0.
         25    1    4    4    0    0  0.26329308166E+02  0.72843364294E+01 -0.15538084626E+02  0.12897765000E+03  0.12509000000E+03 0.  0.
         25    1    4    4    0    0  0.22376816147E+02  0.54228078884E+02 -0.90764014210E+02  0.16530886490E+03  0.12509000000E+03 0.  0.
         25    1    3    3    0    0 -0.48706124313E+02 -0.61512415313E+02 -0.24330677251E+03  0.28460807689E+03  0.12509000000E+03 0.  0.
<mgrwt>
<rscale>  2 0.46140285E+03</rscale>
<asrwt>0</asrwt>
<pdfrwt beam="1">  1       21 0.16859244E-01 0.46140285E+03</pdfrwt>
<pdfrwt beam="2">  1       21 0.68272314E-01 0.46140285E+03</pdfrwt>
<totfact> 0.57053097E+04</totfact>
</mgrwt>
</event>
<event>
 7    0  0.4784406E-002  0.4400609E+03  0.7546771E-02  0.1030728E+00
         21   -1    0    0  502  501  0.00000000000E+00  0.00000000000E+00  0.40166534821E+03  0.40166534821E+03  0.00000000000E+00 0. -1.
         21   -1    0    0  501  502 -0.00000000000E+00 -0.00000000000E+00 -0.12053167686E+03  0.12053167686E+03  0.00000000000E+00 0. -1.
      99926    2    1    2    0    0  0.00000000000E+00  0.00000000000E+00  0.28113367135E+03  0.52219702507E+03  0.44006089558E+03 0.  0.
      99925    2    3    3    0    0  0.71777700650E+02 -0.49248727910E+02  0.23251079488E+03  0.36223087950E+03  0.26376592808E+03 0.  0.
         25    1    4    4    0    0  0.18737620197E+02 -0.21858917322E+02  0.16210194317E+03  0.20676909526E+03  0.12509000000E+03 0.  0.
         25    1    3    3    0    0 -0.71777700650E+02  0.49248727910E+02  0.48622876478E+02  0.15996614557E+03  0.12509000000E+03 0.  0.
         25    1    4    4    0    0  0.53040080453E+02 -0.27389810589E+02  0.70408851711E+02  0.15546178424E+03  0.12509000000E+03 0.  0.
<mgrwt>
<rscale>  2 0.44006090E+03</rscale>
<asrwt>0</asrwt>
<pdfrwt beam="1">  1       21 0.59068433E-01 0.44006090E+03</pdfrwt>
<pdfrwt beam="2">  1       21 0.17725247E-01 0.44006090E+03</pdfrwt>
<totfact> 0.71873227E+04</totfact>
</mgrwt>
</event>
<event>
 7    0  0.4784406E-002  0.4638592E+03  0.7546771E-02  0.1023668E+00
         21   -1    0    0  502  501  0.00000000000E+00  0.00000000000E+00  0.44185986777E+03  0.44185986777E+03  0.00000000000E+00 0.  1.
         21   -1    0    0  501  502 -0.00000000000E+00 -0.00000000000E+00 -0.12173843928E+03  0.12173843928E+03  0.00000000000E+00 0.  1.
      99926    2    1    2    0    0  0.00000000000E+00 -0.26645352591E-14  0.32012142849E+03  0.56359830705E+03  0.46385916261E+03 0.  0.
      99925    2    3    3    0    0  0.12038821015E+03  0.57993268331E+01  0.21415713918E+03  0.36012130087E+03  0.26324345717E+03 0.  0.
         25    1    3    3    0    0 -0.12038821015E+03 -0.57993268331E+01  0.10596428931E+03  0.20347700618E+03  0.12509000000E+03 0.  0.
         25    1    4    4    0    0  0.64315343538E+02 -0.37849058506E+02  0.10819739703E+03  0.18144751161E+03  0.12509000000E+03 0.  0.
         25    1    4    4    0    0  0.56072866616E+02  0.43648385339E+02  0.10595974215E+03  0.17867378926E+03  0.12509000000E+03 0.  0.
<mgrwt>
<rscale>  2 0.46385916E+03</rscale>
<asrwt>0</asrwt>
<pdfrwt beam="1">  1       21 0.64979392E-01 0.46385916E+03</pdfrwt>
<pdfrwt beam="2">  1       21 0.17902712E-01 0.46385916E+03</pdfrwt>
<totfact> 0.56884817E+04</totfact>
</mgrwt>
</event>
<event>
 7    0  0.4784406E-002  0.4598430E+03  0.7546771E-02  0.1024827E+00
         21   -1    0    0  502  501  0.00000000000E+00  0.00000000000E+00  0.23384857953E+04  0.23384857953E+04  0.00000000000E+00 0. -1.
         21   -1    0    0  501  502 -0.00000000000E+00 -0.00000000000E+00 -0.22606037798E+02  0.22606037798E+02  0.00000000000E+00 0. -1.
      99926    2    1    2    0    0  0.00000000000E+00  0.00000000000E+00  0.23158797575E+04  0.23610918331E+04  0.45984300920E+03 0.  0.
      99925    2    3    3    0    0  0.54668356904E+02 -0.94417192771E+02  0.12240360251E+04  0.12567035501E+04  0.26293798994E+03 0.  0.
         25    1    4    4    0    0  0.40462226294E+02 -0.86927908276E+02  0.62860185075E+03  0.64805975640E+03  0.12509000000E+03 0.  0.
         25    1    3    3    0    0 -0.54668356904E+02  0.94417192771E+02  0.10918437324E+04  0.11043882830E+04  0.12509000000E+03 0.  0.
         25    1    4    4    0    0  0.14206130610E+02 -0.74892844944E+01  0.59543417433E+03  0.60864379368E+03  0.12509000000E+03 0.  0.
<mgrwt>
<rscale>  2 0.45984301E+03</rscale>
<asrwt>0</asrwt>
<pdfrwt beam="1">  1       21 0.34389480E+00 0.45984301E+03</pdfrwt>
<pdfrwt beam="2">  1       21 0.33244189E-02 0.45984301E+03</pdfrwt>
<totfact> 0.83411689E+03</totfact>
</mgrwt>
</event>
<event>
 7    0  0.4784406E-002  0.4235802E+03  0.7546771E-02  0.1035907E+00
         21   -1    0    0  502  501  0.00000000000E+00  0.00000000000E+00  0.18675083438E+02  0.18675083438E+02  0.00000000000E+00 0.  1.
         21   -1    0    0  501  502 -0.00000000000E+00 -0.00000000000E+00 -0.24018654362E+04  0.24018654362E+04  0.00000000000E+00 0.  1.
      99926    2    1    2    0    0  0.00000000000E+00  0.00000000000E+00 -0.23831903528E+04  0.24205405197E+04  0.42358015737E+03 0.  0.
      99925    2    3    3    0    0 -0.73164039162E+02  0.21437226664E+02 -0.14045007138E+04  0.14309479526E+04  0.26301569639E+03 0.  0.
         25    1    4    4    0    0 -0.69537968179E+02  0.10889899778E+02 -0.61544504838E+03  0.63196062742E+03  0.12509000000E+03 0.  0.
         25    1    4    4    0    0 -0.36260709830E+01  0.10547326886E+02 -0.78905566542E+03  0.79898732513E+03  0.12509000000E+03 0.  0.
         25    1    3    3    0    0  0.73164039162E+02 -0.21437226664E+02 -0.97868963901E+03  0.98959256713E+03  0.12509000000E+03 0.  0.
<mgrwt>
<rscale>  2 0.42358016E+03</rscale>
<asrwt>0</asrwt>
<pdfrwt beam="1">  1       21 0.27463356E-02 0.42358016E+03</pdfrwt>
<pdfrwt beam="2">  1       21 0.35321553E+00 0.42358016E+03</pdfrwt>
<totfact> 0.10266731E+04</totfact>
</mgrwt>
</event>
<event>
 7    0  0.4784406E-002  0.4540772E+03  0.7546771E-02  0.1026513E+00
         21   -1    0    0  502  501  0.00000000000E+00  0.00000000000E+00  0.15767778472E+03  0.15767778472E+03  0.00000000000E+00 0. -1.
         21   -1    0    0  501  502 -0.00000000000E+00 -0.00000000000E+00 -0.32691049427E+03  0.32691049427E+03  0.00000000000E+00 0. -1.
      99926    2    1    2    0    0  0.00000000000E+00  0.00000000000E+00 -0.16923270955E+03  0.48458827899E+03  0.45407718524E+03 0.  0.
      99925    2    3    3    0    0 -0.63041865388E+02 -0.86821845208E+02 -0.14195262045E+03  0.31754331212E+03  0.26300361028E+03 0.  0.
         25    1    4    4    0    0 -0.46288163233E+02 -0.29080356387E+02 -0.31329927067E+02  0.14006189208E+03  0.12509000000E+03 0.  0.
         25    1    3    3    0    0  0.63041865388E+02  0.86821845208E+02 -0.27280089096E+02  0.16704496687E+03  0.12509000000E+03 0.  0.
         25    1    4    4    0    0 -0.16753702155E+02 -0.57741488821E+02 -0.11062269339E+03  0.17748142004E+03  0.12509000000E+03 0.  0.
<mgrwt>
<rscale>  2 0.45407719E+03</rscale>
<asrwt>0</asrwt>
<pdfrwt beam="1">  1       21 0.23187910E-01 0.45407719E+03</pdfrwt>
<pdfrwt beam="2">  1       21 0.48075072E-01 0.45407719E+03</pdfrwt>
<totfact> 0.66856021E+04</totfact>
</mgrwt>
</event>
<event>
 7    0  0.4784406E-002  0.4532706E+03  0.7546771E-02  0.1026751E+00
         21   -1    0    0  502  501  0.00000000000E+00  0.00000000000E+00  0.44551170596E+03  0.44551170596E+03  0.00000000000E+00 0.  1.
         21   -1    0    0  501  502 -0.00000000000E+00 -0.00000000000E+00 -0.11529117427E+03  0.11529117427E+03  0.00000000000E+00 0.  1.
      99926    2    1    2    0    0  0.25535129566E-14  0.14210854715E-13  0.33022053169E+03  0.56080288023E+03  0.45327063762E+03 0.  0.
      99925    2    3    3    0    0 -0.61946332082E+00 -0.88140231798E+02  0.12006575054E+03  0.30083822045E+03  0.26137858794E+03 0.  0.
         25    1    3    3    0    0  0.61946332082E+00  0.88140231798E+02  0.21015478115E+03  0.25996465979E+03  0.12509000000E+03 0.  0.
         25    1    4    4    0    0  0.33144222681E+02 -0.58758535196E+02  0.50166024592E+02  0.15071576918E+03  0.12509000000E+03 0.  0.
         25    1    4    4    0    0 -0.33763686001E+02 -0.29381696603E+02  0.69899725944E+02  0.15012245127E+03  0.12509000000E+03 0.  0.
<mgrwt>
<rscale>  2 0.45327064E+03</rscale>
<asrwt>0</asrwt>
<pdfrwt beam="1">  1       21 0.65516427E-01 0.45327064E+03</pdfrwt>
<pdfrwt beam="2">  1       21 0.16954585E-01 0.45327064E+03</pdfrwt>
<totfact> 0.62002010E+04</totfact>
</mgrwt>
</event>
<event>
 7    0  0.4784406E-002  0.4264698E+03  0.7546771E-02  0.1034981E+00
         21   -1    0    0  502  501  0.00000000000E+00  0.00000000000E+00  0.75503540702E+03  0.75503540702E+03  0.00000000000E+00 0. -1.
         21   -1    0    0  501  502 -0.00000000000E+00 -0.00000000000E+00 -0.60221187950E+02  0.60221187950E+02  0.00000000000E+00 0. -1.
      99926    2    1    2    0    0  0.00000000000E+00 -0.26645352591E-14  0.69481421907E+03  0.81525659497E+03  0.42646983084E+03 0.  0.
      99925    2    3    3    0    0  0.33846339777E+02  0.12911044337E+01  0.30325594547E+03  0.40280946940E+03  0.26295257844E+03 0.  0.
         25    1    4    4    0    0  0.34129756120E+02 -0.35639655788E+02  0.16224668634E+03  0.21072854730E+03  0.12509000000E+03 0.  0.
         25    1    3    3    0    0 -0.33846339777E+02 -0.12911044337E+01  0.39155827360E+03  0.41244712557E+03  0.12509000000E+03 0.  0.
         25    1    4    4    0    0 -0.28341634261E+00  0.36930760221E+02  0.14100925913E+03  0.19208092210E+03  0.12509000000E+03 0.  0.
<mgrwt>
<rscale>  2 0.42646983E+03</rscale>
<asrwt>0</asrwt>
<pdfrwt beam="1">  1       21 0.11103461E+00 0.42646983E+03</pdfrwt>
<pdfrwt beam="2">  1       21 0.88560575E-02 0.42646983E+03</pdfrwt>
<totfact> 0.59221862E+04</totfact>
</mgrwt>
</event>
<event>
 7    0  0.4784406E-002  0.4482422E+03  0.7546771E-02  0.1028248E+00
         21   -1    0    0  502  501  0.00000000000E+00  0.00000000000E+00  0.77158411035E+02  0.77158411035E+02  0.00000000000E+00 0. -1.
         21   -1    0    0  501  502 -0.00000000000E+00 -0.00000000000E+00 -0.65100180069E+03  0.65100180069E+03  0.00000000000E+00 0. -1.
      99926    2    1    2    0    0  0.00000000000E+00  0.00000000000E+00 -0.57384338966E+03  0.72816021173E+03  0.44824218687E+03 0.  0.
      99925    2    3    3    0    0 -0.25768581483E+02 -0.70795678904E+02 -0.48599870326E+03  0.55774822573E+03  0.26308229851E+03 0.  0.
         25    1    4    4    0    0 -0.38302534823E+02 -0.34808401352E+02 -0.18207349903E+03  0.22688538104E+03  0.12509000000E+03 0.  0.
         25    1    4    4    0    0  0.12533953339E+02 -0.35987277552E+02 -0.30392520423E+03  0.33086284470E+03  0.12509000000E+03 0.  0.
         25    1    3    3    0    0  0.25768581483E+02  0.70795678904E+02 -0.87844686391E+02  0.17041198599E+03  0.12509000000E+03 0.  0.
<mgrwt>
<rscale>  2 0.44824219E+03</rscale>
<asrwt>0</asrwt>
<pdfrwt beam="1">  1       21 0.11346825E-01 0.44824219E+03</pdfrwt>
<pdfrwt beam="2">  1       21 0.95735558E-01 0.44824219E+03</pdfrwt>
<totfact> 0.54225316E+04</totfact>
</mgrwt>
</event>
<event>
 7    0  0.4784406E-002  0.4597540E+03  0.7546771E-02  0.1024853E+00
         21   -1    0    0  502  501  0.00000000000E+00  0.00000000000E+00  0.43492772425E+02  0.43492772425E+02  0.00000000000E+00 0. -1.
         21   -1    0    0  501  502 -0.00000000000E+00 -0.00000000000E+00 -0.12149933277E+04  0.12149933277E+04  0.00000000000E+00 0. -1.
      99926    2    1    2    0    0  0.00000000000E+00  0.00000000000E+00 -0.11715005553E+04  0.12584861001E+04  0.45975397029E+03 0.  0.
      99925    2    3    3    0    0 -0.10549196090E+03  0.34831486970E+02 -0.84085149287E+03  0.88792153508E+03  0.26273871640E+03 0.  0.
         25    1    3    3    0    0  0.10549196090E+03 -0.34831486970E+02 -0.33064906242E+03  0.37056456506E+03  0.12509000000E+03 0.  0.
         25    1    4    4    0    0 -0.41391571680E+02  0.51047639048E+02 -0.36188896688E+03  0.38849743385E+03  0.12509000000E+03 0.  0.
         25    1    4    4    0    0 -0.64100389220E+02 -0.16216152078E+02 -0.47896252600E+03  0.49942410124E+03  0.12509000000E+03 0.  0.
<mgrwt>
<rscale>  2 0.45975397E+03</rscale>
<asrwt>0</asrwt>
<pdfrwt beam="1">  1       21 0.63959953E-02 0.45975397E+03</pdfrwt>
<pdfrwt beam="2">  1       21 0.17867551E+00 0.45975397E+03</pdfrwt>
<totfact> 0.29247218E+04</totfact>
</mgrwt>
</event>
<event>
 7    0  0.4784406E-002  0.4643166E+03  0.7546771E-02  0.1023537E+00
         21   -1    0    0  502  501  0.00000000000E+00  0.00000000000E+00  0.13290313932E+03  0.13290313932E+03  0.00000000000E+00 0. -1.
         21   -1    0    0  501  502 -0.00000000000E+00 -0.00000000000E+00 -0.40553961148E+03  0.40553961148E+03  0.00000000000E+00 0. -1.
      99926    2    1    2    0    0  0.00000000000E+00  0.35527136788E-14 -0.27263647216E+03  0.53844275080E+03  0.46431664835E+03 0.  0.
      99925    2    3    3    0    0 -0.11308527109E+03 -0.19799394402E+02 -0.12334514754E+03  0.31235493100E+03  0.26300434015E+03 0.  0.
         25    1    3    3    0    0  0.11308527109E+03  0.19799394402E+02 -0.14929132461E+03  0.22608781980E+03  0.12509000000E+03 0.  0.
         25    1    4    4    0    0 -0.47614482808E+02 -0.46119035488E+02 -0.78608907660E+02  0.16192891302E+03  0.12509000000E+03 0.  0.
         25    1    4    4    0    0 -0.65470788286E+02  0.26319641086E+02 -0.44736239884E+02  0.15042601798E+03  0.12509000000E+03 0.  0.
<mgrwt>
<rscale>  2 0.46431665E+03</rscale>
<asrwt>0</asrwt>
<pdfrwt beam="1">  1       21 0.19544579E-01 0.46431665E+03</pdfrwt>
<pdfrwt beam="2">  1       21 0.59638178E-01 0.46431665E+03</pdfrwt>
<totfact> 0.58219515E+04</totfact>
</mgrwt>
</event>
<event>
 7    0  0.4784406E-002  0.4538190E+03  0.7546771E-02  0.1026589E+00
         21   -1    0    0  502  501  0.00000000000E+00  0.00000000000E+00  0.38588761021E+03  0.38588761021E+03  0.00000000000E+00 0.  1.
         21   -1    0    0  501  502 -0.00000000000E+00 -0.00000000000E+00 -0.13342723779E+03  0.13342723779E+03  0.00000000000E+00 0.  1.
      99926    2    1    2    0    0  0.00000000000E+00 -0.71054273576E-14  0.25246037242E+03  0.51931484800E+03  0.45381898563E+03 0.  0.
      99925    2    3    3    0    0  0.64883998654E+02 -0.36820615435E+02  0.25477700601E+03  0.37364890863E+03  0.26293819260E+03 0.  0.
         25    1    4    4    0    0  0.31881275587E+02  0.21993108679E+02  0.13027358445E+03  0.18471282432E+03  0.12509000000E+03 0.  0.
         25    1    3    3    0    0 -0.64883998654E+02  0.36820615435E+02 -0.23166335978E+01  0.14566593937E+03  0.12509000000E+03 0.  0.
         25    1    4    4    0    0  0.33002723067E+02 -0.58813724114E+02  0.12450342156E+03  0.18893608431E+03  0.12509000000E+03 0.  0.
<mgrwt>
<rscale>  2 0.45381899E+03</rscale>
<asrwt>0</asrwt>
<pdfrwt beam="1">  1       21 0.56748178E-01 0.45381899E+03</pdfrwt>
<pdfrwt beam="2">  1       21 0.19621653E-01 0.45381899E+03</pdfrwt>
<totfact> 0.64536556E+04</totfact>
</mgrwt>
</event>
<event>
 7    0  0.4784406E-002  0.4525069E+03  0.7546771E-02  0.1026977E+00
         21   -1    0    0  502  501  0.00000000000E+00  0.00000000000E+00  0.31093947300E+03  0.31093947300E+03  0.00000000000E+00 0.  1.
         21   -1    0    0  501  502 -0.00000000000E+00 -0.00000000000E+00 -0.16463208380E+03  0.16463208380E+03  0.00000000000E+00 0.  1.
      99926    2    1    2    0    0  0.00000000000E+00  0.00000000000E+00  0.14630738920E+03  0.47557155681E+03  0.45250685465E+03 0.  0.
      99925    2    3    3    0    0  0.32199912755E+02  0.10526093909E+03  0.10529525901E+03  0.30397259817E+03  0.26305046891E+03 0.  0.
         25    1    4    4    0    0  0.32146542935E+02  0.74156133118E+02  0.90391912154E+02  0.17421463252E+03  0.12509000000E+03 0.  0.
         25    1    4    4    0    0  0.53369819987E-01  0.31104805975E+02  0.14903346855E+02  0.12975796565E+03  0.12509000000E+03 0.  0.
         25    1    3    3    0    0 -0.32199912755E+02 -0.10526093909E+03  0.41012130195E+02  0.17159895863E+03  0.12509000000E+03 0.  0.
<mgrwt>
<rscale>  2 0.45250685E+03</rscale>
<asrwt>0</asrwt>
<pdfrwt beam="1">  1       21 0.45726394E-01 0.45250685E+03</pdfrwt>
<pdfrwt beam="2">  1       21 0.24210600E-01 0.45250685E+03</pdfrwt>
<totfact> 0.68366684E+04</totfact>
</mgrwt>
</event>
<event>
 7    0  0.4784406E-002  0.4585631E+03  0.7546771E-02  0.1025199E+00
         21   -1    0    0  502  501  0.00000000000E+00  0.00000000000E+00  0.37936081710E+03  0.37936081710E+03  0.00000000000E+00 0.  1.
         21   -1    0    0  501  502 -0.00000000000E+00 -0.00000000000E+00 -0.13857529360E+03  0.13857529360E+03  0.00000000000E+00 0.  1.
      99926    2    1    2    0    0 -0.14210854715E-13  0.00000000000E+00  0.24078552351E+03  0.51793611070E+03  0.45856313245E+03 0.  0.
      99925    2    3    3    0    0  0.78139019956E+02 -0.84913977895E+02  0.13297972893E+03  0.31647721285E+03  0.26297932972E+03 0.  0.
         25    1    3    3    0    0 -0.78139019956E+02  0.84913977895E+02  0.10780579457E+03  0.20145889786E+03  0.12509000000E+03 0.  0.
         25    1    4    4    0    0  0.35082192778E+02 -0.84237200100E+02  0.68685611158E+02  0.16938679822E+03  0.12509000000E+03 0.  0.
         25    1    4    4    0    0  0.43056827179E+02 -0.67677779523E+00  0.64294117776E+02  0.14709041463E+03  0.12509000000E+03 0.  0.
<mgrwt>
<rscale>  2 0.45856313E+03</rscale>
<asrwt>0</asrwt>
<pdfrwt beam="1">  1       21 0.55788355E-01 0.45856313E+03</pdfrwt>
<pdfrwt beam="2">  1       21 0.20378720E-01 0.45856313E+03</pdfrwt>
<totfact> 0.62249423E+04</totfact>
</mgrwt>
</event>
<event>
 7    0  0.4784406E-002  0.4537798E+03  0.7546771E-02  0.1026601E+00
         21   -1    0    0  502  501  0.00000000000E+00  0.00000000000E+00  0.53412593522E+03  0.53412593522E+03  0.00000000000E+00 0. -1.
         21   -1    0    0  501  502 -0.00000000000E+00 -0.00000000000E+00 -0.96379957817E+02  0.96379957817E+02  0.00000000000E+00 0. -1.
      99926    2    1    2    0    0  0.00000000000E+00  0.00000000000E+00  0.43774597740E+03  0.63050589303E+03  0.45377983695E+03 0.  0.
      99925    2    3    3    0    0  0.91808121700E+02  0.63471178810E+02  0.28924109109E+03  0.40654488949E+03  0.26298482209E+03 0.  0.
         25    1    3    3    0    0 -0.91808121700E+02 -0.63471178810E+02  0.14850488631E+03  0.22396100354E+03  0.12509000000E+03 0.  0.
         25    1    4    4    0    0  0.40945439117E+02  0.83848010865E+01  0.90154898031E+02  0.15975683902E+03  0.12509000000E+03 0.  0.
         25    1    4    4    0    0  0.50862682583E+02  0.55086377724E+02  0.19908619306E+03  0.24678805047E+03  0.12509000000E+03 0.  0.
<mgrwt>
<rscale>  2 0.45377984E+03</rscale>
<asrwt>0</asrwt>
<pdfrwt beam="1">  1       21 0.78547930E-01 0.45377984E+03</pdfrwt>
<pdfrwt beam="2">  1       21 0.14173523E-01 0.45377984E+03</pdfrwt>
<totfact> 0.57389533E+04</totfact>
</mgrwt>
</event>
<event>
 7    0  0.4784406E-002  0.4464298E+03  0.7546771E-02  0.1028792E+00
         21   -1    0    0  502  501  0.00000000000E+00  0.00000000000E+00  0.24973651754E+03  0.24973651754E+03  0.00000000000E+00 0. -1.
         21   -1    0    0  501  502 -0.00000000000E+00 -0.00000000000E+00 -0.19950979987E+03  0.19950979987E+03  0.00000000000E+00 0. -1.
      99926    2    1    2    0    0  0.00000000000E+00  0.35527136788E-14  0.50226717671E+02  0.44924631741E+03  0.44642975992E+03 0.  0.
      99925    2    3    3    0    0 -0.69836757526E+02 -0.16188017376E+02 -0.45280792969E+02  0.27630581522E+03  0.26297400766E+03 0.  0.
         25    1    4    4    0    0 -0.20435196383E+02  0.12783527626E+00  0.15736407969E+02  0.12772140083E+03  0.12509000000E+03 0.  0.
         25    1    4    4    0    0 -0.49401561144E+02 -0.16315852652E+02 -0.61017200937E+02  0.14858441440E+03  0.12509000000E+03 0.  0.
         25    1    3    3    0    0  0.69836757526E+02  0.16188017376E+02  0.95507510640E+02  0.17294050219E+03  0.12509000000E+03 0.  0.
<mgrwt>
<rscale>  2 0.44642976E+03</rscale>
<asrwt>0</asrwt>
<pdfrwt beam="1">  1       21 0.36725959E-01 0.44642976E+03</pdfrwt>
<pdfrwt beam="2">  1       21 0.29339676E-01 0.44642976E+03</pdfrwt>
<totfact> 0.73894190E+04</totfact>
</mgrwt>
</event>
<event>
 7    0  0.4784406E-002  0.4536450E+03  0.7546771E-02  0.1026641E+00
         21   -1    0    0  502  501  0.00000000000E+00  0.00000000000E+00  0.23475815243E+03  0.23475815243E+03  0.00000000000E+00 0. -1.
         21   -1    0    0  501  502 -0.00000000000E+00 -0.00000000000E+00 -0.21915509932E+03  0.21915509932E+03  0.00000000000E+00 0. -1.
      99926    2    1    2    0    0  0.00000000000E+00  0.00000000000E+00  0.15603053109E+02  0.45391325175E+03  0.45364499870E+03 0.  0.
      99925    2    3    3    0    0 -0.85031823320E+02  0.67944435815E+02  0.35366936799E+02  0.28692529849E+03  0.26311299732E+03 0.  0.
         25    1    4    4    0    0 -0.34803053262E+00  0.27126807575E+02  0.97870958100E+01  0.12837164858E+03  0.12509000000E+03 0.  0.
         25    1    4    4    0    0 -0.84683792787E+02  0.40817628240E+02  0.25579840989E+02  0.15855364991E+03  0.12509000000E+03 0.  0.
         25    1    3    3    0    0  0.85031823320E+02 -0.67944435815E+02 -0.19763883690E+02  0.16698795326E+03  0.12509000000E+03 0.  0.
<mgrwt>
<rscale>  2 0.45364500E+03</rscale>
<asrwt>0</asrwt>
<pdfrwt beam="1">  1       21 0.34523258E-01 0.45364500E+03</pdfrwt>
<pdfrwt beam="2">  1       21 0.32228691E-01 0.45364500E+03</pdfrwt>
<totfact> 0.69372482E+04</totfact>
</mgrwt>
</event>
<event>
 7    0  0.4784406E-002  0.4565816E+03  0.7546771E-02  0.1025777E+00
         21   -1    0    0  502  501  0.00000000000E+00  0.00000000000E+00  0.74263073364E+02  0.74263073364E+02  0.00000000000E+00 0.  1.
         21   -1    0    0  501  502 -0.00000000000E+00 -0.00000000000E+00 -0.70178485709E+03  0.70178485709E+03  0.00000000000E+00 0.  1.
      99926    2    1    2    0    0  0.00000000000E+00  0.00000000000E+00 -0.62752178373E+03  0.77604793045E+03  0.45658164802E+03 0.  0.
      99925    2    3    3    0    0  0.29313031759E+02  0.76521976212E+02 -0.53057900996E+03  0.59783380037E+03  0.26301387870E+03 0.  0.
         25    1    4    4    0    0  0.50722272555E+02  0.59214494306E+02 -0.28439662846E+03  0.32032492199E+03  0.12509000000E+03 0.  0.
         25    1    3    3    0    0 -0.29313031759E+02 -0.76521976212E+02 -0.96942773767E+02  0.17821413008E+03  0.12509000000E+03 0.  0.
         25    1    4    4    0    0 -0.21409240796E+02  0.17307481907E+02 -0.24618238150E+03  0.27750887839E+03  0.12509000000E+03 0.  0.
<mgrwt>
<rscale>  2 0.45658165E+03</rscale>
<asrwt>0</asrwt>
<pdfrwt beam="1">  1       21 0.10921040E-01 0.45658165E+03</pdfrwt>
<pdfrwt beam="2">  1       21 0.10320366E+00 0.45658165E+03</pdfrwt>
<totfact> 0.48342210E+04</totfact>
</mgrwt>
</event>
<event>
 7    0  0.4784406E-002  0.4573839E+03  0.7546771E-02  0.1025543E+00
         21   -1    0    0  502  501  0.00000000000E+00  0.00000000000E+00  0.38298439498E+03  0.38298439498E+03  0.00000000000E+00 0. -1.
         21   -1    0    0  501  502 -0.00000000000E+00 -0.00000000000E+00 -0.13655909554E+03  0.13655909554E+03  0.00000000000E+00 0. -1.
      99926    2    1    2    0    0  0.00000000000E+00  0.71054273576E-14  0.24642529944E+03  0.51954349052E+03  0.45738387634E+03 0.  0.
      99925    2    3    3    0    0 -0.10490558244E+03  0.45700546425E+02  0.17171136811E+03  0.33427773328E+03  0.26298875995E+03 0.  0.
         25    1    4    4    0    0 -0.65036700924E+02 -0.82265607913E+01  0.11220588249E+03  0.18037493433E+03  0.12509000000E+03 0.  0.
         25    1    3    3    0    0  0.10490558244E+03 -0.45700546425E+02  0.74713931329E+02  0.18526575724E+03  0.12509000000E+03 0.  0.
         25    1    4    4    0    0 -0.39868881512E+02  0.53927107217E+02  0.59505485618E+02  0.15390279895E+03  0.12509000000E+03 0.  0.
<mgrwt>
<rscale>  2 0.45738388E+03</rscale>
<asrwt>0</asrwt>
<pdfrwt beam="1">  1       21 0.56321234E-01 0.45738388E+03</pdfrwt>
<pdfrwt beam="2">  1       21 0.20082220E-01 0.45738388E+03</pdfrwt>
<totfact> 0.62723588E+04</totfact>
</mgrwt>
</event>
<event>
 7    0  0.4784406E-002  0.4252260E+03  0.7546771E-02  0.1035379E+00
         21   -1    0    0  502  501  0.00000000000E+00  0.00000000000E+00  0.49554313906E+02  0.49554313906E+02  0.00000000000E+00 0. -1.
         21   -1    0    0  501  502 -0.00000000000E+00 -0.00000000000E+00 -0.91221712128E+03  0.91221712128E+03  0.00000000000E+00 0. -1.
      99926    2    1    2    0    0  0.00000000000E+00  0.14210854715E-13 -0.86266280737E+03  0.96177143518E+03  0.42522602732E+03 0.  0.
      99925    2    3    3    0    0 -0.29439384236E+02  0.76520469697E+02 -0.57255246843E+03  0.63537661830E+03  0.26299250627E+03 0.  0.
         25    1    4    4    0    0 -0.21491215107E+02 -0.22506940779E+01 -0.24542380327E+03  0.27631013239E+03  0.12509000000E+03 0.  0.
         25    1    4    4    0    0 -0.79481691296E+01  0.78771163774E+02 -0.32712866516E+03  0.35906648591E+03  0.12509000000E+03 0.  0.
         25    1    3    3    0    0  0.29439384236E+02 -0.76520469697E+02 -0.29011033894E+03  0.32639481688E+03  0.12509000000E+03 0.  0.
<mgrwt>
<rscale>  2 0.42522603E+03</rscale>
<asrwt>0</asrwt>
<pdfrwt beam="1">  1       21 0.72873990E-02 0.42522603E+03</pdfrwt>
<pdfrwt beam="2">  1       21 0.13414958E+00 0.42522603E+03</pdfrwt>
<totfact> 0.51692609E+04</totfact>
</mgrwt>
</event>
<event>
 7    0  0.4784406E-002  0.4542040E+03  0.7546771E-02  0.1026476E+00
         21   -1    0    0  502  501  0.00000000000E+00  0.00000000000E+00  0.44255591400E+03  0.44255591400E+03  0.00000000000E+00 0.  1.
         21   -1    0    0  501  502 -0.00000000000E+00 -0.00000000000E+00 -0.11653968622E+03  0.11653968622E+03  0.00000000000E+00 0.  1.
      99926    2    1    2    0    0 -0.35527136788E-14  0.00000000000E+00  0.32601622778E+03  0.55909560022E+03  0.45420403941E+03 0.  0.
      99925    2    3    3    0    0  0.18469313493E+02 -0.54871482353E+02  0.86689957444E+02  0.28291347392E+03  0.26300739512E+03 0.  0.
         25    1    4    4    0    0 -0.82538908307E+01 -0.64581116365E+02  0.46243018459E+02  0.14840745319E+03  0.12509000000E+03 0.  0.
         25    1    4    4    0    0  0.26723204323E+02  0.97096340112E+01  0.40446938985E+02  0.13450602074E+03  0.12509000000E+03 0.  0.
         25    1    3    3    0    0 -0.18469313493E+02  0.54871482353E+02  0.23932627033E+03  0.27618212630E+03  0.12509000000E+03 0.  0.
<mgrwt>
<rscale>  2 0.45420404E+03</rscale>
<asrwt>0</asrwt>
<pdfrwt beam="1">  1       21 0.65081752E-01 0.45420404E+03</pdfrwt>
<pdfrwt beam="2">  1       21 0.17138189E-01 0.45420404E+03</pdfrwt>
<totfact> 0.61656720E+04</totfact>
</mgrwt>
</event>
<event>
 7    0  0.4784406E-002  0.4605229E+03  0.7546771E-02  0.1024630E+00
         21   -1    0    0  502  501  0.00000000000E+00  0.00000000000E+00  0.15929208292E+03  0.15929208292E+03  0.00000000000E+00 0.  1.
         21   -1    0    0  501  502 -0.00000000000E+00 -0.00000000000E+00 -0.33284971611E+03  0.33284971611E+03  0.00000000000E+00 0.  1.
      99926    2    1    2    0    0 -0.14210854715E-13 -0.14210854715E-13 -0.17355763318E+03  0.49214179903E+03  0.46052285320E+03 0.  0.
      99925    2    3    3    0    0  0.54581433738E+02  0.10480020459E+03 -0.10273201413E+03  0.30606119228E+03  0.26297789052E+03 0.  0.
         25    1    4    4    0    0  0.67128824592E+02  0.49923271248E+02 -0.63955839129E+02  0.16351290335E+03  0.12509000000E+03 0.  0.
         25    1    3    3    0    0 -0.54581433738E+02 -0.10480020459E+03 -0.70825619055E+02  0.18608060674E+03  0.12509000000E+03 0.  0.
         25    1    4    4    0    0 -0.12547390854E+02  0.54876933345E+02 -0.38776174999E+02  0.14254828893E+03  0.12509000000E+03 0.  0.
<mgrwt>
<rscale>  2 0.46052285E+03</rscale>
<asrwt>0</asrwt>
<pdfrwt beam="1">  1       21 0.23425307E-01 0.46052285E+03</pdfrwt>
<pdfrwt beam="2">  1       21 0.48948487E-01 0.46052285E+03</pdfrwt>
<totfact> 0.63017731E+04</totfact>
</mgrwt>
</event>
<event>
 7    0  0.4784406E-002  0.4460207E+03  0.7546771E-02  0.1028915E+00
         21   -1    0    0  502  501  0.00000000000E+00  0.00000000000E+00  0.98731766501E+03  0.98731766501E+03  0.00000000000E+00 0.  1.
         21   -1    0    0  501  502 -0.00000000000E+00 -0.00000000000E+00 -0.50372447819E+02  0.50372447819E+02  0.00000000000E+00 0.  1.
      99926    2    1    2    0    0  0.00000000000E+00  0.00000000000E+00  0.93694521719E+03  0.10376901128E+04  0.44602066123E+03 0.  0.
      99925    2    3    3    0    0  0.10897361012E+02 -0.68314589007E+02  0.41239204722E+03  0.49400898222E+03  0.26304379552E+03 0.  0.
         25    1    4    4    0    0  0.20826812820E+02  0.44949185915E+01  0.19538735827E+03  0.23297572470E+03  0.12509000000E+03 0.  0.
         25    1    4    4    0    0 -0.99294518086E+01 -0.72809507599E+02  0.21700468894E+03  0.26103325752E+03  0.12509000000E+03 0.  0.
         25    1    3    3    0    0 -0.10897361012E+02  0.68314589007E+02  0.52455316997E+03  0.54368113060E+03  0.12509000000E+03 0.  0.
<mgrwt>
<rscale>  2 0.44602066E+03</rscale>
<asrwt>0</asrwt>
<pdfrwt beam="1">  1       21 0.14519376E+00 0.44602066E+03</pdfrwt>
<pdfrwt beam="2">  1       21 0.74077135E-02 0.44602066E+03</pdfrwt>
<totfact> 0.40497399E+04</totfact>
</mgrwt>
</event>
<event>
 7    0  0.4784406E-002  0.4546079E+03  0.7546771E-02  0.1026357E+00
         21   -1    0    0  502  501  0.00000000000E+00  0.00000000000E+00  0.52876622559E+03  0.52876622559E+03  0.00000000000E+00 0. -1.
         21   -1    0    0  501  502 -0.00000000000E+00 -0.00000000000E+00 -0.97712532563E+02  0.97712532563E+02  0.00000000000E+00 0. -1.
      99926    2    1    2    0    0 -0.71054273576E-14  0.00000000000E+00  0.43105369303E+03  0.62647875816E+03  0.45460790594E+03 0.  0.
      99925    2    3    3    0    0  0.56646185576E+02 -0.43728089169E+02  0.39147585537E+03  0.47703027387E+03  0.26302775656E+03 0.  0.
         25    1    3    3    0    0 -0.56646185576E+02  0.43728089169E+02  0.39577837656E+02  0.14944848429E+03  0.12509000000E+03 0.  0.
         25    1    4    4    0    0  0.24814640985E+02  0.12354187322E+02  0.14752549063E+03  0.19539618942E+03  0.12509000000E+03 0.  0.
         25    1    4    4    0    0  0.31831544591E+02 -0.56082276491E+02  0.24395036474E+03  0.28163408445E+03  0.12509000000E+03 0.  0.
<mgrwt>
<rscale>  2 0.45460791E+03</rscale>
<asrwt>0</asrwt>
<pdfrwt beam="1">  1       21 0.77759738E-01 0.45460791E+03</pdfrwt>
<pdfrwt beam="2">  1       21 0.14369490E-01 0.45460791E+03</pdfrwt>
<totfact> 0.57254356E+04</totfact>
</mgrwt>
</event>
<event>
 7    0  0.4784406E-002  0.4452227E+03  0.7546771E-02  0.1029156E+00
         21   -1    0    0  502  501  0.00000000000E+00  0.00000000000E+00  0.12022792850E+04  0.12022792850E+04  0.00000000000E+00 0.  1.
         21   -1    0    0  501  502 -0.00000000000E+00 -0.00000000000E+00 -0.41218229927E+02  0.41218229927E+02  0.00000000000E+00 0.  1.
      99926    2    1    2    0    0  0.00000000000E+00  0.00000000000E+00  0.11610610550E+04  0.12434975149E+04  0.44522274876E+03 0.  0.
      99925    2    3    3    0    0  0.38175337993E+02  0.96399666732E+02  0.73084133882E+03  0.78362061342E+03  0.26302462068E+03 0.  0.
         25    1    4    4    0    0  0.55336208349E+02  0.58152934944E+02  0.33854728542E+03  0.36973724773E+03  0.12509000000E+03 0.  0.
         25    1    3    3    0    0 -0.38175337993E+02 -0.96399666732E+02  0.43021971621E+03  0.45987690145E+03  0.12509000000E+03 0.  0.
         25    1    4    4    0    0 -0.17160870356E+02  0.38246731789E+02  0.39229405340E+03  0.41388336569E+03  0.12509000000E+03 0.  0.
<mgrwt>
<rscale>  2 0.44522275E+03</rscale>
<asrwt>0</asrwt>
<pdfrwt beam="1">  1       21 0.17680575E+00 0.44522275E+03</pdfrwt>
<pdfrwt beam="2">  1       21 0.60615052E-02 0.44522275E+03</pdfrwt>
<totfact> 0.33260882E+04</totfact>
</mgrwt>
</event>
<event>
 7    0  0.4784406E-002  0.4540701E+03  0.7546771E-02  0.1026515E+00
         21   -1    0    0  502  501  0.00000000000E+00  0.00000000000E+00  0.18115725656E+03  0.18115725656E+03  0.00000000000E+00 0. -1.
         21   -1    0    0  501  502 -0.00000000000E+00 -0.00000000000E+00 -0.28453132690E+03  0.28453132690E+03  0.00000000000E+00 0. -1.
      99926    2    1    2    0    0 -0.35527136788E-14  0.00000000000E+00 -0.10337407034E+03  0.46568858346E+03  0.45407010290E+03 0.  0.
      99925    2    3    3    0    0 -0.20603387587E+02  0.10730311781E+03 -0.91332581998E+02  0.29916241671E+03  0.26309323893E+03 0.  0.
         25    1    4    4    0    0  0.86712726031E+01  0.87125428578E+02 -0.67541614622E+02  0.16695930366E+03  0.12509000000E+03 0.  0.
         25    1    4    4    0    0 -0.29274660191E+02  0.20177689231E+02 -0.23790967376E+02  0.13220311305E+03  0.12509000000E+03 0.  0.
         25    1    3    3    0    0  0.20603387587E+02 -0.10730311781E+03 -0.12041488340E+02  0.16652616675E+03  0.12509000000E+03 0.  0.
<mgrwt>
<rscale>  2 0.45407010E+03</rscale>
<asrwt>0</asrwt>
<pdfrwt beam="1">  1       21 0.26640773E-01 0.45407010E+03</pdfrwt>
<pdfrwt beam="2">  1       21 0.41842842E-01 0.45407010E+03</pdfrwt>
<totfact> 0.68260157E+04</totfact>
</mgrwt>
</event>
<event>
 7    0  0.4784406E-002  0.4550687E+03  0.7546771E-02  0.1026221E+00
         21   -1    0    0  502  501  0.00000000000E+00  0.00000000000E+00  0.86730967525E+03  0.86730967525E+03  0.00000000000E+00 0.  1.
         21   -1    0    0  501  502 -0.00000000000E+00 -0.00000000000E+00 -0.59692495094E+02  0.59692495094E+02  0.00000000000E+00 0.  1.
      99926    2    1    2    0    0 -0.14210854715E-13 -0.17763568394E-14  0.80761718016E+03  0.92700217035E+03  0.45506869167E+03 0.  0.
      99925    2    3    3    0    0  0.99822828717E+02  0.13925438457E+02  0.40305561512E+03  0.49171366490E+03  0.26300187147E+03 0.  0.
         25    1    4    4    0    0  0.29925872888E+02 -0.18839291693E+02  0.14506670282E+03  0.19478791838E+03  0.12509000000E+03 0.  0.
         25    1    3    3    0    0 -0.99822828717E+02 -0.13925438457E+02  0.40456156504E+03  0.43528850545E+03  0.12509000000E+03 0.  0.
         25    1    4    4    0    0  0.69896955829E+02  0.32764730150E+02  0.25798891230E+03  0.29692574652E+03  0.12509000000E+03 0.  0.
<mgrwt>
<rscale>  2 0.45506869E+03</rscale>
<asrwt>0</asrwt>
<pdfrwt beam="1">  1       21 0.12754553E+00 0.45506869E+03</pdfrwt>
<pdfrwt beam="2">  1       21 0.87783086E-02 0.45506869E+03</pdfrwt>
<totfact> 0.42063798E+04</totfact>
</mgrwt>
</event>
<event>
 7    0  0.4784406E-002  0.4567992E+03  0.7546771E-02  0.1025714E+00
         21   -1    0    0  502  501  0.00000000000E+00  0.00000000000E+00  0.26160482475E+03  0.26160482475E+03  0.00000000000E+00 0.  1.
         21   -1    0    0  501  502 -0.00000000000E+00 -0.00000000000E+00 -0.19940903939E+03  0.19940903939E+03  0.00000000000E+00 0.  1.
      99926    2    1    2    0    0  0.00000000000E+00  0.00000000000E+00  0.62195785362E+02  0.46101386415E+03  0.45679915413E+03 0.  0.
      99925    2    3    3    0    0  0.44115908889E+02 -0.93621692202E+02 -0.11293010338E+02  0.28280234414E+03  0.26294181695E+03 0.  0.
         25    1    4    4    0    0  0.34372782446E+02 -0.54158876073E+02  0.32294245060E+02  0.14423972544E+03  0.12509000000E+03 0.  0.
         25    1    3    3    0    0 -0.44115908889E+02  0.93621692202E+02  0.73488795700E+02  0.17821152000E+03  0.12509000000E+03 0.  0.
         25    1    4    4    0    0  0.97431264423E+01 -0.39462816129E+02 -0.43587255398E+02  0.13856261871E+03  0.12509000000E+03 0.  0.
<mgrwt>
<rscale>  2 0.45679915E+03</rscale>
<asrwt>0</asrwt>
<pdfrwt beam="1">  1       21 0.38471298E-01 0.45679915E+03</pdfrwt>
<pdfrwt beam="2">  1       21 0.29324859E-01 0.45679915E+03</pdfrwt>
<totfact> 0.67138270E+04</totfact>
</mgrwt>
</event>
<event>
 7    0  0.4784406E-002  0.4492682E+03  0.7546771E-02  0.1027941E+00
         21   -1    0    0  502  501  0.00000000000E+00  0.00000000000E+00  0.12795939740E+03  0.12795939740E+03  0.00000000000E+00 0.  1.
         21   -1    0    0  501  502 -0.00000000000E+00 -0.00000000000E+00 -0.39434751576E+03  0.39434751576E+03  0.00000000000E+00 0.  1.
      99926    2    1    2    0    0  0.15820678101E-14  0.00000000000E+00 -0.26638811836E+03  0.52230691317E+03  0.44926816261E+03 0.  0.
      99925    2    3    3    0    0  0.48096256882E-01 -0.36398965546E+02 -0.50705201086E+02  0.27033168440E+03  0.26302721374E+03 0.  0.
         25    1    4    4    0    0  0.27772490984E+02 -0.34833519645E+02 -0.70900524852E+00  0.13278816263E+03  0.12509000000E+03 0.  0.
         25    1    3    3    0    0 -0.48096256882E-01  0.36398965546E+02 -0.21568291727E+03  0.25197522876E+03  0.12509000000E+03 0.  0.
         25    1    4    4    0    0 -0.27724394727E+02 -0.15654459013E+01 -0.49996195837E+02  0.13754352177E+03  0.12509000000E+03 0.  0.
<mgrwt>
<rscale>  2 0.44926816E+03</rscale>
<asrwt>0</asrwt>
<pdfrwt beam="1">  1       21 0.18817558E-01 0.44926816E+03</pdfrwt>
<pdfrwt beam="2">  1       21 0.57992283E-01 0.44926816E+03</pdfrwt>
<totfact> 0.66710255E+04</totfact>
</mgrwt>
</event>
<event>
 7    0  0.4784406E-002  0.4457656E+03  0.7546771E-02  0.1028992E+00
         21   -1    0    0  502  501  0.00000000000E+00  0.00000000000E+00  0.24641182932E+04  0.24641182932E+04  0.00000000000E+00 0.  1.
         21   -1    0    0  501  502 -0.00000000000E+00 -0.00000000000E+00 -0.20160048168E+02  0.20160048168E+02  0.00000000000E+00 0.  1.
      99926    2    1    2    0    0  0.00000000000E+00  0.35527136788E-14  0.24439582450E+04  0.24842783413E+04  0.44576560425E+03 0.  0.
      99925    2    3    3    0    0  0.65529146192E+02 -0.27982273127E+02  0.11286800786E+04  0.11611452264E+04  0.26317758350E+03 0.  0.
         25    1    3    3    0    0 -0.65529146192E+02  0.27982273127E+02  0.13152781665E+04  0.13231331149E+04  0.12509000000E+03 0.  0.
         25    1    4    4    0    0  0.43051211246E+02  0.11737287908E+02  0.43585698627E+03  0.45564239410E+03  0.12509000000E+03 0.  0.
         25    1    4    4    0    0  0.22477934946E+02 -0.39719561035E+02  0.69282309228E+03  0.70550283230E+03  0.12509000000E+03 0.  0.
<mgrwt>
<rscale>  2 0.44576560E+03</rscale>
<asrwt>0</asrwt>
<pdfrwt beam="1">  1       21 0.36237013E+00 0.44576560E+03</pdfrwt>
<pdfrwt beam="2">  1       21 0.29647147E-02 0.44576560E+03</pdfrwt>
<totfact> 0.78420538E+03</totfact>
</mgrwt>
</event>
<event>
 7    0  0.4784406E-002  0.4553388E+03  0.7546771E-02  0.1026142E+00
         21   -1    0    0  502  501  0.00000000000E+00  0.00000000000E+00  0.11630573467E+04  0.11630573467E+04  0.00000000000E+00 0. -1.
         21   -1    0    0  501  502 -0.00000000000E+00 -0.00000000000E+00 -0.44566456605E+02  0.44566456605E+02  0.00000000000E+00 0. -1.
      99926    2    1    2    0    0  0.00000000000E+00  0.10824674490E-14  0.11184908901E+04  0.12076238033E+04  0.45533875201E+03 0.  0.
      99925    2    3    3    0    0 -0.65001407292E+02  0.70565044660E-01  0.95036887884E+03  0.98822073428E+03  0.26297153052E+03 0.  0.
         25    1    4    4    0    0 -0.63608816611E+01  0.28129276089E+02  0.40062971428E+03  0.42069394226E+03  0.12509000000E+03 0.  0.
         25    1    3    3    0    0  0.65001407292E+02 -0.70565044660E-01  0.16812201126E+03  0.21940306903E+03  0.12509000000E+03 0.  0.
         25    1    4    4    0    0 -0.58640525631E+02 -0.28058711045E+02  0.54973916455E+03  0.56752679202E+03  0.12509000000E+03 0.  0.
<mgrwt>
<rscale>  2 0.45533875E+03</rscale>
<asrwt>0</asrwt>
<pdfrwt beam="1">  1       21 0.17103783E+00 0.45533875E+03</pdfrwt>
<pdfrwt beam="2">  1       21 0.65538914E-02 0.45533875E+03</pdfrwt>
<totfact> 0.31831178E+04</totfact>
</mgrwt>
</event>
<event>
 7    0  0.4784406E-002  0.4512477E+03  0.7546771E-02  0.1027351E+00
         21   -1    0    0  502  501  0.00000000000E+00  0.00000000000E+00  0.33776195749E+03  0.33776195749E+03  0.00000000000E+00 0. -1.
         21   -1    0    0  501  502 -0.00000000000E+00 -0.00000000000E+00 -0.15071597797E+03  0.15071597797E+03  0.00000000000E+00 0. -1.
      99926    2    1    2    0    0  0.00000000000E+00  0.00000000000E+00  0.18704597952E+03  0.48847793545E+03  0.45124770910E+03 0.  0.
      99925    2    3    3    0    0  0.99487021023E+02 -0.44085968426E+02  0.10382039967E+03  0.30296447178E+03  0.26299725437E+03 0.  0.
         25    1    3    3    0    0 -0.99487021023E+02  0.44085968426E+02  0.83225579845E+02  0.18551346367E+03  0.12509000000E+03 0.  0.
         25    1    4    4    0    0  0.92419127043E+01 -0.51959612407E+01  0.44582427170E+02  0.13321978785E+03  0.12509000000E+03 0.  0.
         25    1    4    4    0    0  0.90245108319E+02 -0.38890007186E+02  0.59237972505E+02  0.16974468392E+03  0.12509000000E+03 0.  0.
<mgrwt>
<rscale>  2 0.45124771E+03</rscale>
<asrwt>0</asrwt>
<pdfrwt beam="1">  1       21 0.49670876E-01 0.45124771E+03</pdfrwt>
<pdfrwt beam="2">  1       21 0.22164114E-01 0.45124771E+03</pdfrwt>
<totfact> 0.68093857E+04</totfact>
</mgrwt>
</event>
<event>
 7    0  0.4784406E-002  0.4543906E+03  0.7546771E-02  0.1026421E+00
         21   -1    0    0  502  501  0.00000000000E+00  0.00000000000E+00  0.14900568304E+04  0.14900568304E+04  0.00000000000E+00 0. -1.
         21   -1    0    0  501  502 -0.00000000000E+00 -0.00000000000E+00 -0.34641434418E+02  0.34641434418E+02  0.00000000000E+00 0. -1.
      99926    2    1    2    0    0 -0.17763568394E-14 -0.35527136788E-14  0.14554153959E+04  0.15246982648E+04  0.45439060716E+03 0.  0.
      99925    2    3    3    0    0  0.12385374867E+02  0.30015268389E+02  0.55478634408E+03  0.61484414955E+03  0.26304206281E+03 0.  0.
         25    1    4    4    0    0  0.18788935536E+02  0.53768666732E+02  0.27914199811E+03  0.31114603778E+03  0.12509000000E+03 0.  0.
         25    1    3    3    0    0 -0.12385374867E+02 -0.30015268389E+02  0.90062905185E+03  0.90985411522E+03  0.12509000000E+03 0.  0.
         25    1    4    4    0    0 -0.64035606687E+01 -0.23753398343E+02  0.27564434597E+03  0.30369811176E+03  0.12509000000E+03 0.  0.
<mgrwt>
<rscale>  2 0.45439061E+03</rscale>
<asrwt>0</asrwt>
<pdfrwt beam="1">  1       21 0.21912596E+00 0.45439061E+03</pdfrwt>
<pdfrwt beam="2">  1       21 0.50943296E-02 0.45439061E+03</pdfrwt>
<totfact> 0.23290291E+04</totfact>
</mgrwt>
</event>
<event>
 7    0  0.4784406E-002  0.4555603E+03  0.7546771E-02  0.1026077E+00
         21   -1    0    0  502  501  0.00000000000E+00  0.00000000000E+00  0.23940287394E+03  0.23940287394E+03  0.00000000000E+00 0.  1.
         21   -1    0    0  501  502 -0.00000000000E+00 -0.00000000000E+00 -0.21672172891E+03  0.21672172891E+03  0.00000000000E+00 0.  1.
      99926    2    1    2    0    0  0.35527136788E-14  0.35527136788E-14  0.22681145026E+02  0.45612460285E+03  0.45556033518E+03 0.  0.
      99925    2    3    3    0    0  0.31113660106E+02 -0.29247083562E+02 -0.91218313695E+02  0.28164237872E+03  0.26301748420E+03 0.  0.
         25    1    3    3    0    0 -0.31113660106E+02  0.29247083562E+02  0.11389945872E+03  0.17448222413E+03  0.12509000000E+03 0.  0.
         25    1    4    4    0    0  0.17287817706E+02 -0.26198888508E+02 -0.87216143616E+02  0.15569012238E+03  0.12509000000E+03 0.  0.
         25    1    4    4    0    0  0.13825842400E+02 -0.30481950534E+01 -0.40021700786E+01  0.12595225634E+03  0.12509000000E+03 0.  0.
<mgrwt>
<rscale>  2 0.45556034E+03</rscale>
<asrwt>0</asrwt>
<pdfrwt beam="1">  1       21 0.35206305E-01 0.45556034E+03</pdfrwt>
<pdfrwt beam="2">  1       21 0.31870842E-01 0.45556034E+03</pdfrwt>
<totfact> 0.68158276E+04</totfact>
</mgrwt>
</event>
<event>
 7    0  0.4784406E-002  0.4470329E+03  0.7546771E-02  0.1028611E+00
         21   -1    0    0  502  501  0.00000000000E+00  0.00000000000E+00  0.32647239329E+02  0.32647239329E+02  0.00000000000E+00 0. -1.
         21   -1    0    0  501  502 -0.00000000000E+00 -0.00000000000E+00 -0.15302856575E+04  0.15302856575E+04  0.00000000000E+00 0. -1.
      99926    2    1    2    0    0  0.16653345369E-14  0.00000000000E+00 -0.14976384181E+04  0.15629328968E+04  0.44703289410E+03 0.  0.
      99925    2    3    3    0    0  0.38779885870E+00 -0.32131474928E+02 -0.59824019662E+03  0.65430907417E+03  0.26305218042E+03 0.  0.
         25    1    4    4    0    0  0.34517413860E+02  0.30156131973E+01 -0.32043333927E+03  0.34572471534E+03  0.12509000000E+03 0.  0.
         25    1    4    4    0    0 -0.34129615002E+02 -0.35147088125E+02 -0.27780685735E+03  0.30858435883E+03  0.12509000000E+03 0.  0.
         25    1    3    3    0    0 -0.38779885870E+00  0.32131474928E+02 -0.89939822153E+03  0.90862382264E+03  0.12509000000E+03 0.  0.
<mgrwt>
<rscale>  2 0.44703289E+03</rscale>
<asrwt>0</asrwt>
<pdfrwt beam="1">  1       21 0.48010657E-02 0.44703289E+03</pdfrwt>
<pdfrwt beam="2">  1       21 0.22504196E+00 0.44703289E+03</pdfrwt>
<totfact> 0.23711630E+04</totfact>
</mgrwt>
</event>
<event>
 7    0  0.4784406E-002  0.4572703E+03  0.7546771E-02  0.1025576E+00
         21   -1    0    0  502  501  0.00000000000E+00  0.00000000000E+00  0.17214317770E+03  0.17214317770E+03  0.00000000000E+00 0.  1.
         21   -1    0    0  501  502 -0.00000000000E+00 -0.00000000000E+00 -0.30366599576E+03  0.30366599576E+03  0.00000000000E+00 0.  1.
      99926    2    1    2    0    0 -0.17763568394E-14  0.00000000000E+00 -0.13152281806E+03  0.47580917347E+03  0.45727028975E+03 0.  0.
      99925    2    3    3    0    0  0.34209687889E+01 -0.10339554232E+03 -0.13539492361E+03  0.31343663114E+03  0.26307488516E+03 0.  0.
         25    1    4    4    0    0 -0.26208999504E+02 -0.43457489842E+02 -0.97812321305E+02  0.16670399928E+03  0.12509000000E+03 0.  0.
         25    1    4    4    0    0  0.29629968293E+02 -0.59938052480E+02 -0.37582602304E+02  0.14673263186E+03  0.12509000000E+03 0.  0.
         25    1    3    3    0    0 -0.34209687889E+01  0.10339554232E+03  0.38721055514E+01  0.16237254232E+03  0.12509000000E+03 0.  0.
<mgrwt>
<rscale>  2 0.45727029E+03</rscale>
<asrwt>0</asrwt>
<pdfrwt beam="1">  1       21 0.25315174E-01 0.45727029E+03</pdfrwt>
<pdfrwt beam="2">  1       21 0.44656763E-01 0.45727029E+03</pdfrwt>
<totfact> 0.65812756E+04</totfact>
</mgrwt>
</event>
<event>
 7    0  0.4784406E-002  0.4533023E+03  0.7546771E-02  0.1026742E+00
         21   -1    0    0  502  501  0.00000000000E+00  0.00000000000E+00  0.19644414708E+03  0.19644414708E+03  0.00000000000E+00 0. -1.
         21   -1    0    0  501  502 -0.00000000000E+00 -0.00000000000E+00 -0.26150304018E+03  0.26150304018E+03  0.00000000000E+00 0. -1.
      99926    2    1    2    0    0 -0.14210854715E-13 -0.71054273576E-14 -0.65058893101E+02  0.45794718726E+03  0.45330229069E+03 0.  0.
      99925    2    3    3    0    0  0.77837696756E+02  0.30099614526E+02 -0.11577245349E+03  0.29925230033E+03  0.26302848597E+03 0.  0.
         25    1    4    4    0    0  0.28604857646E+02  0.40449575413E+02 -0.90306647352E+02  0.16204075008E+03  0.12509000000E+03 0.  0.
         25    1    3    3    0    0 -0.77837696756E+02 -0.30099614526E+02  0.50713560392E+02  0.15869488693E+03  0.12509000000E+03 0.  0.
         25    1    4    4    0    0  0.49232839110E+02 -0.10349960887E+02 -0.25465806141E+02  0.13721155024E+03  0.12509000000E+03 0.  0.
<mgrwt>
<rscale>  2 0.45330229E+03</rscale>
<asrwt>0</asrwt>
<pdfrwt beam="1">  1       21 0.28888845E-01 0.45330229E+03</pdfrwt>
<pdfrwt beam="2">  1       21 0.38456329E-01 0.45330229E+03</pdfrwt>
<totfact> 0.69263439E+04</totfact>
</mgrwt>
</event>
<event>
 7    0  0.4784406E-002  0.4475365E+03  0.7546771E-02  0.1028459E+00
         21   -1    0    0  502  501  0.00000000000E+00  0.00000000000E+00  0.46504136441E+03  0.46504136441E+03  0.00000000000E+00 0.  1.
         21   -1    0    0  501  502 -0.00000000000E+00 -0.00000000000E+00 -0.10767261750E+03  0.10767261750E+03  0.00000000000E+00 0.  1.
      99926    2    1    2    0    0 -0.35527136788E-14  0.71054273576E-14  0.35736874691E+03  0.57271398191E+03  0.44753646088E+03 0.  0.
      99925    2    3    3    0    0 -0.26893797190E+02  0.62830863462E+02  0.33032516612E+03  0.42762829312E+03  0.26283121575E+03 0.  0.
         25    1    4    4    0    0 -0.21307983788E+02 -0.53127851925E+01  0.12983373441E+03  0.18162203212E+03  0.12509000000E+03 0.  0.
         25    1    3    3    0    0  0.26893797190E+02 -0.62830863462E+02  0.27043580784E+02  0.14508568879E+03  0.12509000000E+03 0.  0.
         25    1    4    4    0    0 -0.55858134021E+01  0.68143648654E+02  0.20049143171E+03  0.24600626101E+03  0.12509000000E+03 0.  0.
<mgrwt>
<rscale>  2 0.44753646E+03</rscale>
<asrwt>0</asrwt>
<pdfrwt beam="1">  1       21 0.68388436E-01 0.44753646E+03</pdfrwt>
<pdfrwt beam="2">  1       21 0.15834209E-01 0.44753646E+03</pdfrwt>
<totfact> 0.64089347E+04</totfact>
</mgrwt>
</event>
<event>
 7    0  0.4784406E-002  0.4519947E+03  0.7546771E-02  0.1027129E+00
         21   -1    0    0  502  501  0.00000000000E+00  0.00000000000E+00  0.45836038697E+03  0.45836038697E+03  0.00000000000E+00 0.  1.
         21   -1    0    0  501  502 -0.00000000000E+00 -0.00000000000E+00 -0.11142936988E+03  0.11142936988E+03  0.00000000000E+00 0.  1.
      99926    2    1    2    0    0  0.00000000000E+00  0.00000000000E+00  0.34693101710E+03  0.56978975685E+03  0.45199473049E+03 0.  0.
      99925    2    3    3    0    0  0.58098766152E+02 -0.93808037649E+02  0.21998885215E+03  0.36017764867E+03  0.26297800093E+03 0.  0.
         25    1    4    4    0    0  0.62045915482E+02 -0.38164086945E+02  0.84963097025E+02  0.16784644505E+03  0.12509000000E+03 0.  0.
         25    1    3    3    0    0 -0.58098766152E+02  0.93808037649E+02  0.12694216495E+03  0.20961210818E+03  0.12509000000E+03 0.  0.
         25    1    4    4    0    0 -0.39471493303E+01 -0.55643950704E+02  0.13502575512E+03  0.19233120362E+03  0.12509000000E+03 0.  0.
<mgrwt>
<rscale>  2 0.45199473E+03</rscale>
<asrwt>0</asrwt>
<pdfrwt beam="1">  1       21 0.67405939E-01 0.45199473E+03</pdfrwt>
<pdfrwt beam="2">  1       21 0.16386672E-01 0.45199473E+03</pdfrwt>
<totfact> 0.62038681E+04</totfact>
</mgrwt>
</event>
<event>
 7    0  0.4784406E-002  0.4526788E+03  0.7546771E-02  0.1026926E+00
         21   -1    0    0  502  501  0.00000000000E+00  0.00000000000E+00  0.44368599353E+02  0.44368599353E+02  0.00000000000E+00 0. -1.
         21   -1    0    0  501  502 -0.00000000000E+00 -0.00000000000E+00 -0.11546348854E+04  0.11546348854E+04  0.00000000000E+00 0. -1.
      99926    2    1    2    0    0  0.00000000000E+00  0.00000000000E+00 -0.11102662860E+04  0.11990034848E+04  0.45267883816E+03 0.  0.
      99925    2    3    3    0    0  0.57945397856E+02  0.66368295289E+02 -0.87904629264E+03  0.92174437633E+03  0.26292183428E+03 0.  0.
         25    1    3    3    0    0 -0.57945397856E+02 -0.66368295289E+02 -0.23121999341E+03  0.27725910842E+03  0.12509000000E+03 0.  0.
         25    1    4    4    0    0  0.15545791493E+02  0.61488513762E+02 -0.36613942388E+03  0.39208174502E+03  0.12509000000E+03 0.  0.
         25    1    4    4    0    0  0.42399606363E+02  0.48797815265E+01 -0.51290686876E+03  0.52966263131E+03  0.12509000000E+03 0.  0.
<mgrwt>
<rscale>  2 0.45267884E+03</rscale>
<asrwt>0</asrwt>
<pdfrwt beam="1">  1       21 0.65247937E-02 0.45267884E+03</pdfrwt>
<pdfrwt beam="2">  1       21 0.16979926E+00 0.45267884E+03</pdfrwt>
<totfact> 0.32776197E+04</totfact>
</mgrwt>
</event>
<event>
 7    0  0.4784406E-002  0.4526989E+03  0.7546771E-02  0.1026920E+00
         21   -1    0    0  502  501  0.00000000000E+00  0.00000000000E+00  0.28384726336E+03  0.28384726336E+03  0.00000000000E+00 0. -1.
         21   -1    0    0  501  502 -0.00000000000E+00 -0.00000000000E+00 -0.18049873971E+03  0.18049873971E+03  0.00000000000E+00 0. -1.
      99926    2    1    2    0    0  0.00000000000E+00  0.14210854715E-13  0.10334852365E+03  0.46434600307E+03  0.45269889908E+03 0.  0.
      99925    2    3    3    0    0  0.23853149544E+02 -0.10449144749E+03  0.96295933855E+02  0.29946822269E+03  0.26252785410E+03 0.  0.
         25    1    4    4    0    0  0.13755918315E+02 -0.23784237753E+02  0.75897757545E+02  0.14887206909E+03  0.12509000000E+03 0.  0.
         25    1    3    3    0    0 -0.23853149544E+02  0.10449144749E+03  0.70525897937E+01  0.16487778039E+03  0.12509000000E+03 0.  0.
         25    1    4    4    0    0  0.10097231229E+02 -0.80707209740E+02  0.20398176310E+02  0.15059615360E+03  0.12509000000E+03 0.  0.
<mgrwt>
<rscale>  2 0.45269890E+03</rscale>
<asrwt>0</asrwt>
<pdfrwt beam="1">  1       21 0.41742245E-01 0.45269890E+03</pdfrwt>
<pdfrwt beam="2">  1       21 0.26543932E-01 0.45269890E+03</pdfrwt>
<totfact> 0.69111762E+04</totfact>
</mgrwt>
</event>
<event>
 7    0  0.4784406E-002  0.4423118E+03  0.7546771E-02  0.1030040E+00
         21   -1    0    0  502  501  0.00000000000E+00  0.00000000000E+00  0.41323252806E+02  0.41323252806E+02  0.00000000000E+00 0.  1.
         21   -1    0    0  501  502 -0.00000000000E+00 -0.00000000000E+00 -0.11835934306E+04  0.11835934306E+04  0.00000000000E+00 0.  1.
      99926    2    1    2    0    0  0.00000000000E+00  0.35527136788E-14 -0.11422701778E+04  0.12249166834E+04  0.44231179298E+03 0.  0.
      99925    2    3    3    0    0 -0.92484321355E+02  0.21048822541E+02 -0.82201213533E+03  0.86825280173E+03  0.26298778386E+03 0.  0.
         25    1    4    4    0    0 -0.37527451605E+01  0.37378044408E+01 -0.36202533804E+03  0.38306384293E+03  0.12509000000E+03 0.  0.
         25    1    4    4    0    0 -0.88731576194E+02  0.17311018101E+02 -0.45998679729E+03  0.48518895880E+03  0.12509000000E+03 0.  0.
         25    1    3    3    0    0  0.92484321355E+02 -0.21048822541E+02 -0.32025804245E+03  0.35666388166E+03  0.12509000000E+03 0.  0.
<mgrwt>
<rscale>  2 0.44231179E+03</rscale>
<asrwt>0</asrwt>
<pdfrwt beam="1">  1       21 0.60769497E-02 0.44231179E+03</pdfrwt>
<pdfrwt beam="2">  1       21 0.17405784E+00 0.44231179E+03</pdfrwt>
<totfact> 0.34676538E+04</totfact>
</mgrwt>
</event>
<event>
 7    0  0.4784406E-002  0.4606161E+03  0.7546771E-02  0.1024603E+00
         21   -1    0    0  502  501  0.00000000000E+00  0.00000000000E+00  0.14726947892E+03  0.14726947892E+03  0.00000000000E+00 0. -1.
         21   -1    0    0  501  502 -0.00000000000E+00 -0.00000000000E+00 -0.36016824735E+03  0.36016824735E+03  0.00000000000E+00 0. -1.
      99926    2    1    2    0    0 -0.88817841970E-15  0.00000000000E+00 -0.21289876843E+03  0.50743772627E+03  0.46061606620E+03 0.  0.
      99925    2    3    3    0    0  0.56802050849E+01 -0.76553108044E+02 -0.23253260239E+03  0.35936464088E+03  0.26301880324E+03 0.  0.
         25    1    3    3    0    0 -0.56802050849E+01  0.76553108044E+02  0.19633833962E+02  0.14807308539E+03  0.12509000000E+03 0.  0.
         25    1    4    4    0    0 -0.25216042004E+01 -0.80089578651E+02 -0.12872114950E+03  0.19656383575E+03  0.12509000000E+03 0.  0.
         25    1    4    4    0    0  0.82018092853E+01  0.35364706066E+01 -0.10381145289E+03  0.16280080513E+03  0.12509000000E+03 0.  0.
<mgrwt>
<rscale>  2 0.46061607E+03</rscale>
<asrwt>0</asrwt>
<pdfrwt beam="1">  1       21 0.21657277E-01 0.46061607E+03</pdfrwt>
<pdfrwt beam="2">  1       21 0.52965917E-01 0.46061607E+03</pdfrwt>
<totfact> 0.61943578E+04</totfact>
</mgrwt>
</event>
<event>
 7    0  0.4784406E-002  0.4581770E+03  0.7546771E-02  0.1025311E+00
         21   -1    0    0  502  501  0.00000000000E+00  0.00000000000E+00  0.76333280347E+02  0.76333280347E+02  0.00000000000E+00 0.  1.
         21   -1    0    0  501  502 -0.00000000000E+00 -0.00000000000E+00 -0.68753145392E+03  0.68753145392E+03  0.00000000000E+00 0.  1.
      99926    2    1    2    0    0  0.35527136788E-14  0.71054273576E-14 -0.61119817357E+03  0.76386473427E+03  0.45817695804E+03 0.  0.
      99925    2    3    3    0    0  0.26383410502E+02  0.63213483497E+02 -0.22737589329E+03  0.35440279491E+03  0.26307701409E+03 0.  0.
         25    1    3    3    0    0 -0.26383410502E+02 -0.63213483497E+02 -0.38382228028E+03  0.40946193936E+03  0.12509000000E+03 0.  0.
         25    1    4    4    0    0 -0.15783158600E+02  0.32896488428E+02 -0.14891786204E+03  0.19787704460E+03  0.12509000000E+03 0.  0.
         25    1    4    4    0    0  0.42166569102E+02  0.30316995069E+02 -0.78458031255E+02  0.15652575030E+03  0.12509000000E+03 0.  0.
<mgrwt>
<rscale>  2 0.45817696E+03</rscale>
<asrwt>0</asrwt>
<pdfrwt beam="1">  1       21 0.11225482E-01 0.45817696E+03</pdfrwt>
<pdfrwt beam="2">  1       21 0.10110757E+00 0.45817696E+03</pdfrwt>
<totfact> 0.48344916E+04</totfact>
</mgrwt>
</event>
<event>
 7    0  0.4784406E-002  0.4628990E+03  0.7546771E-02  0.1023944E+00
         21   -1    0    0  502  501  0.00000000000E+00  0.00000000000E+00  0.20067286491E+03  0.20067286491E+03  0.00000000000E+00 0.  1.
         21   -1    0    0  501  502 -0.00000000000E+00 -0.00000000000E+00 -0.26694626731E+03  0.26694626731E+03  0.00000000000E+00 0.  1.
      99926    2    1    2    0    0  0.35527136788E-14  0.14210854715E-13 -0.66273402402E+02  0.46761913222E+03  0.46289900513E+03 0.  0.
      99925    2    3    3    0    0 -0.46459960226E+01  0.11602622234E+03 -0.95359426216E+01  0.28775719352E+03  0.26311518138E+03 0.  0.
         25    1    4    4    0    0  0.33156573170E+02  0.43546024834E+02  0.10713284663E+02  0.13695947281E+03  0.12509000000E+03 0.  0.
         25    1    3    3    0    0  0.46459960226E+01 -0.11602622234E+03 -0.56737459781E+02  0.17986193870E+03  0.12509000000E+03 0.  0.
         25    1    4    4    0    0 -0.37802569193E+02  0.72480197505E+02 -0.20249227284E+02  0.15079772072E+03  0.12509000000E+03 0.  0.
<mgrwt>
<rscale>  2 0.46289901E+03</rscale>
<asrwt>0</asrwt>
<pdfrwt beam="1">  1       21 0.29510715E-01 0.46289901E+03</pdfrwt>
<pdfrwt beam="2">  1       21 0.39256804E-01 0.46289901E+03</pdfrwt>
<totfact> 0.63531515E+04</totfact>
</mgrwt>
</event>
<event>
 7    0  0.4784406E-002  0.4538012E+03  0.7546771E-02  0.1026595E+00
         21   -1    0    0  502  501  0.00000000000E+00  0.00000000000E+00  0.14853808632E+03  0.14853808632E+03  0.00000000000E+00 0. -1.
         21   -1    0    0  501  502 -0.00000000000E+00 -0.00000000000E+00 -0.34660390889E+03  0.34660390889E+03  0.00000000000E+00 0. -1.
      99926    2    1    2    0    0  0.00000000000E+00  0.00000000000E+00 -0.19806582257E+03  0.49514199522E+03  0.45380119585E+03 0.  0.
      99925    2    3    3    0    0  0.99039416870E+02  0.48234893484E+02 -0.14699420063E+03  0.32081118982E+03  0.26301542436E+03 0.  0.
         25    1    3    3    0    0 -0.99039416870E+02 -0.48234893484E+02 -0.51071621939E+02  0.17433080540E+03  0.12509000000E+03 0.  0.
         25    1    4    4    0    0  0.46088491191E+02  0.58429195568E+02 -0.10049685994E+03  0.17687636041E+03  0.12509000000E+03 0.  0.
         25    1    4    4    0    0  0.52950925678E+02 -0.10194302084E+02 -0.46497340691E+02  0.14393482941E+03  0.12509000000E+03 0.  0.
<mgrwt>
<rscale>  2 0.45380120E+03</rscale>
<asrwt>0</asrwt>
<pdfrwt beam="1">  1       21 0.21843837E-01 0.45380120E+03</pdfrwt>
<pdfrwt beam="2">  1       21 0.50971162E-01 0.45380120E+03</pdfrwt>
<totfact> 0.66241469E+04</totfact>
</mgrwt>
</event>
<event>
 7    0  0.4784406E-002  0.4546627E+03  0.7546771E-02  0.1026341E+00
         21   -1    0    0  502  501  0.00000000000E+00  0.00000000000E+00  0.29178552376E+03  0.29178552376E+03  0.00000000000E+00 0.  1.
         21   -1    0    0  501  502 -0.00000000000E+00 -0.00000000000E+00 -0.17711484093E+03  0.17711484093E+03  0.00000000000E+00 0.  1.
      99926    2    1    2    0    0 -0.35527136788E-14 -0.17763568394E-14  0.11467068283E+03  0.46890036468E+03  0.45466271730E+03 0.  0.
      99925    2    3    3    0    0  0.22858805658E+02  0.46173725071E+01  0.18588165288E+03  0.32308419452E+03  0.26322530795E+03 0.  0.
         25    1    4    4    0    0  0.38228829013E+02 -0.20744941371E+02  0.11959283381E+03  0.17844256767E+03  0.12509000000E+03 0.  0.
         25    1    4    4    0    0 -0.15370023355E+02  0.25362313878E+02  0.66288819075E+02  0.14464162685E+03  0.12509000000E+03 0.  0.
         25    1    3    3    0    0 -0.22858805658E+02 -0.46173725071E+01 -0.71210970050E+02  0.14581617016E+03  0.12509000000E+03 0.  0.
<mgrwt>
<rscale>  2 0.45466272E+03</rscale>
<asrwt>0</asrwt>
<pdfrwt beam="1">  1       21 0.42909636E-01 0.45466272E+03</pdfrwt>
<pdfrwt beam="2">  1       21 0.26046300E-01 0.45466272E+03</pdfrwt>
<totfact> 0.67698568E+04</totfact>
</mgrwt>
</event>
<event>
 7    0  0.4784406E-002  0.4557996E+03  0.7546771E-02  0.1026007E+00
         21   -1    0    0  502  501  0.00000000000E+00  0.00000000000E+00  0.15316163071E+03  0.15316163071E+03  0.00000000000E+00 0.  1.
         21   -1    0    0  501  502 -0.00000000000E+00 -0.00000000000E+00 -0.33910787433E+03  0.33910787433E+03  0.00000000000E+00 0.  1.
      99926    2    1    2    0    0  0.00000000000E+00  0.00000000000E+00 -0.18594624362E+03  0.49226950505E+03  0.45579958324E+03 0.  0.
      99925    2    3    3    0    0 -0.11145079968E+02 -0.77473175466E+02 -0.27480293324E+02  0.27573943502E+03  0.26296532809E+03 0.  0.
         25    1    4    4    0    0 -0.20232974397E+02 -0.34342184563E+02  0.24013592520E+02  0.13346505018E+03  0.12509000000E+03 0.  0.
         25    1    3    3    0    0  0.11145079968E+02  0.77473175466E+02 -0.15846595030E+03  0.21653007003E+03  0.12509000000E+03 0.  0.
         25    1    4    4    0    0  0.90878944294E+01 -0.43130990903E+02 -0.51493885843E+02  0.14227438484E+03  0.12509000000E+03 0.  0.
<mgrwt>
<rscale>  2 0.45579958E+03</rscale>
<asrwt>0</asrwt>
<pdfrwt beam="1">  1       21 0.22523770E-01 0.45579958E+03</pdfrwt>
<pdfrwt beam="2">  1       21 0.49868804E-01 0.45579958E+03</pdfrwt>
<totfact> 0.65401103E+04</totfact>
</mgrwt>
</event>
<event>
 7    0  0.4784406E-002  0.4427970E+03  0.7546771E-02  0.1029892E+00
         21   -1    0    0  502  501  0.00000000000E+00  0.00000000000E+00  0.10525985994E+04  0.10525985994E+04  0.00000000000E+00 0. -1.
         21   -1    0    0  501  502 -0.00000000000E+00 -0.00000000000E+00 -0.46567892570E+02  0.46567892570E+02  0.00000000000E+00 0. -1.
      99926    2    1    2    0    0 -0.71054273576E-14  0.00000000000E+00  0.10060307068E+04  0.10991664920E+04  0.44279701216E+03 0.  0.
      99925    2    3    3    0    0 -0.36281344451E+02  0.93320793368E+02  0.59906507368E+03  0.66179520679E+03  0.26280948766E+03 0.  0.
         25    1    4    4    0    0 -0.42384395017E+01  0.26763062180E+02  0.20356684575E+03  0.24046038064E+03  0.12509000000E+03 0.  0.
         25    1    4    4    0    0 -0.32042904950E+02  0.66557731187E+02  0.39549822793E+03  0.42133482616E+03  0.12509000000E+03 0.  0.
         25    1    3    3    0    0  0.36281344451E+02 -0.93320793368E+02  0.40696563314E+03  0.43737128516E+03  0.12509000000E+03 0.  0.
<mgrwt>
<rscale>  2 0.44279701E+03</rscale>
<asrwt>0</asrwt>
<pdfrwt beam="1">  1       21 0.15479390E+00 0.44279701E+03</pdfrwt>
<pdfrwt beam="2">  1       21 0.68482202E-02 0.44279701E+03</pdfrwt>
<totfact> 0.39116258E+04</totfact>
</mgrwt>
</event>
<event>
 7    0  0.4784406E-002  0.4568966E+03  0.7546771E-02  0.1025685E+00
         21   -1    0    0  502  501  0.00000000000E+00  0.00000000000E+00  0.30964969470E+03  0.30964969470E+03  0.00000000000E+00 0.  1.
         21   -1    0    0  501  502 -0.00000000000E+00 -0.00000000000E+00 -0.16854084708E+03  0.16854084708E+03  0.00000000000E+00 0.  1.
      99926    2    1    2    0    0  0.00000000000E+00  0.00000000000E+00  0.14110884762E+03  0.47819054178E+03  0.45689658280E+03 0.  0.
      99925    2    3    3    0    0 -0.55811842553E+02  0.99895145186E+02  0.77781274664E+02  0.29721570541E+03  0.26304609303E+03 0.  0.
         25    1    4    4    0    0 -0.64467845855E+02  0.34373128138E+02  0.30416552118E+02  0.14802124790E+03  0.12509000000E+03 0.  0.
         25    1    4    4    0    0  0.86560033023E+01  0.65522017047E+02  0.47364722546E+02  0.14919445751E+03  0.12509000000E+03 0.  0.
         25    1    3    3    0    0  0.55811842553E+02 -0.99895145186E+02  0.63327572961E+02  0.18097483637E+03  0.12509000000E+03 0.  0.
<mgrwt>
<rscale>  2 0.45689658E+03</rscale>
<asrwt>0</asrwt>
<pdfrwt beam="1">  1       21 0.45536720E-01 0.45689658E+03</pdfrwt>
<pdfrwt beam="2">  1       21 0.24785419E-01 0.45689658E+03</pdfrwt>
<totfact> 0.65835471E+04</totfact>
</mgrwt>
</event>
<event>
 7    0  0.4784406E-002  0.4548856E+03  0.7546771E-02  0.1026275E+00
         21   -1    0    0  502  501  0.00000000000E+00  0.00000000000E+00  0.30609398653E+03  0.30609398653E+03  0.00000000000E+00 0. -1.
         21   -1    0    0  501  502 -0.00000000000E+00 -0.00000000000E+00 -0.16900112037E+03  0.16900112037E+03  0.00000000000E+00 0. -1.
      99926    2    1    2    0    0  0.00000000000E+00 -0.35527136788E-14  0.13709286615E+03  0.47509510690E+03  0.45488559732E+03 0.  0.
      99925    2    3    3    0    0 -0.10230710034E+03 -0.26385430519E+02  0.12802955399E+03  0.31110551744E+03  0.26312001552E+03 0.  0.
         25    1    3    3    0    0  0.10230710034E+03  0.26385430519E+02  0.90633121678E+01  0.16398958946E+03  0.12509000000E+03 0.  0.
         25    1    4    4    0    0 -0.24159073023E+02  0.19559350796E+02  0.63463550070E+02  0.14367101065E+03  0.12509000000E+03 0.  0.
         25    1    4    4    0    0 -0.78148027317E+02 -0.45944781316E+02  0.64566003917E+02  0.16743450679E+03  0.12509000000E+03 0.  0.
<mgrwt>
<rscale>  2 0.45488560E+03</rscale>
<asrwt>0</asrwt>
<pdfrwt beam="1">  1       21 0.45013822E-01 0.45488560E+03</pdfrwt>
<pdfrwt beam="2">  1       21 0.24853106E-01 0.45488560E+03</pdfrwt>
<totfact> 0.67119831E+04</totfact>
</mgrwt>
</event>
<event>
 7    0  0.4784406E-002  0.4515978E+03  0.7546771E-02  0.1027247E+00
         21   -1    0    0  502  501  0.00000000000E+00  0.00000000000E+00  0.48860764000E+03  0.48860764000E+03  0.00000000000E+00 0. -1.
         21   -1    0    0  501  502 -0.00000000000E+00 -0.00000000000E+00 -0.10434780592E+03  0.10434780592E+03  0.00000000000E+00 0. -1.
      99926    2    1    2    0    0 -0.71054273576E-14 -0.14210854715E-13  0.38425983408E+03  0.59295544592E+03  0.45159776434E+03 0.  0.
      99925    2    3    3    0    0  0.31015532111E+02  0.10528515852E+03  0.23392968369E+03  0.36869312173E+03  0.26299162204E+03 0.  0.
         25    1    4    4    0    0 -0.68760521603E+01  0.40938434578E+02  0.15336469088E+03  0.20221639901E+03  0.12509000000E+03 0.  0.
         25    1    3    3    0    0 -0.31015532111E+02 -0.10528515852E+03  0.15033015039E+03  0.22426232419E+03  0.12509000000E+03 0.  0.
         25    1    4    4    0    0  0.37891584271E+02  0.64346723941E+02  0.80564992806E+02  0.16647672272E+03  0.12509000000E+03 0.  0.
<mgrwt>
<rscale>  2 0.45159776E+03</rscale>
<asrwt>0</asrwt>
<pdfrwt beam="1">  1       21 0.71854064E-01 0.45159776E+03</pdfrwt>
<pdfrwt beam="2">  1       21 0.15345266E-01 0.45159776E+03</pdfrwt>
<totfact> 0.60730447E+04</totfact>
</mgrwt>
</event>
<event>
 7    0  0.4784406E-002  0.4566346E+03  0.7546771E-02  0.1025762E+00
         21   -1    0    0  502  501  0.00000000000E+00  0.00000000000E+00  0.75052948816E+03  0.75052948816E+03  0.00000000000E+00 0.  1.
         21   -1    0    0  501  502 -0.00000000000E+00 -0.00000000000E+00 -0.69456023486E+02  0.69456023486E+02  0.00000000000E+00 0.  1.
      99926    2    1    2    0    0 -0.35527136788E-14  0.00000000000E+00  0.68107346468E+03  0.81998551165E+03  0.45663461874E+03 0.  0.
      99925    2    3    3    0    0 -0.27415582716E+02  0.82817112872E+02  0.56151695233E+03  0.62620327277E+03  0.26309496900E+03 0.  0.
         25    1    3    3    0    0  0.27415582716E+02 -0.82817112872E+02  0.11955651234E+03  0.19378223888E+03  0.12509000000E+03 0.  0.
         25    1    4    4    0    0 -0.43168278622E+02  0.21203818738E+02  0.31909497566E+03  0.34609567145E+03  0.12509000000E+03 0.  0.
         25    1    4    4    0    0  0.15752695906E+02  0.61613294134E+02  0.24242197668E+03  0.28010760132E+03  0.12509000000E+03 0.  0.
<mgrwt>
<rscale>  2 0.45663462E+03</rscale>
<asrwt>0</asrwt>
<pdfrwt beam="1">  1       21 0.11037198E+00 0.45663462E+03</pdfrwt>
<pdfrwt beam="2">  1       21 0.10214122E-01 0.45663462E+03</pdfrwt>
<totfact> 0.46217627E+04</totfact>
</mgrwt>
</event>
<event>
 7    0  0.4784406E-002  0.4528289E+03  0.7546771E-02  0.1026882E+00
         21   -1    0    0  502  501  0.00000000000E+00  0.00000000000E+00  0.77904674545E+02  0.77904674545E+02  0.00000000000E+00 0.  1.
         21   -1    0    0  501  502 -0.00000000000E+00 -0.00000000000E+00 -0.65802861657E+03  0.65802861657E+03  0.00000000000E+00 0.  1.
      99926    2    1    2    0    0  0.28421709430E-13  0.00000000000E+00 -0.58012394203E+03  0.73593329112E+03  0.45282890904E+03 0.  0.
      99925    2    3    3    0    0  0.91577232594E+02 -0.40740064918E+02 -0.44365188446E+03  0.52541423493E+03  0.26303418270E+03 0.  0.
         25    1    3    3    0    0 -0.91577232594E+02  0.40740064918E+02 -0.13647205757E+03  0.21051905618E+03  0.12509000000E+03 0.  0.
         25    1    4    4    0    0  0.99910354451E+01  0.29524694422E+01 -0.21128061717E+03  0.24575505113E+03  0.12509000000E+03 0.  0.
         25    1    4    4    0    0  0.81586197149E+02 -0.43692534360E+02 -0.23237126729E+03  0.27965918381E+03  0.12509000000E+03 0.  0.
<mgrwt>
<rscale>  2 0.45282891E+03</rscale>
<asrwt>0</asrwt>
<pdfrwt beam="1">  1       21 0.11456569E-01 0.45282891E+03</pdfrwt>
<pdfrwt beam="2">  1       21 0.96768919E-01 0.45282891E+03</pdfrwt>
<totfact> 0.51874906E+04</totfact>
</mgrwt>
</event>
<event>
 7    0  0.4784406E-002  0.4588069E+03  0.7546771E-02  0.1025128E+00
         21   -1    0    0  502  501  0.00000000000E+00  0.00000000000E+00  0.13663550833E+03  0.13663550833E+03  0.00000000000E+00 0. -1.
         21   -1    0    0  501  502 -0.00000000000E+00 -0.00000000000E+00 -0.38515566961E+03  0.38515566961E+03  0.00000000000E+00 0. -1.
      99926    2    1    2    0    0  0.35527136788E-14 -0.14210854715E-13 -0.24852016127E+03  0.52179117794E+03  0.45880689055E+03 0.  0.
      99925    2    3    3    0    0  0.18016566537E+02  0.11516892607E+03 -0.16391399908E+03  0.33101856726E+03  0.26290114982E+03 0.  0.
         25    1    4    4    0    0 -0.92481763646E+00  0.31931834471E+02 -0.11203138059E+03  0.17093576477E+03  0.12509000000E+03 0.  0.
         25    1    4    4    0    0  0.18941384174E+02  0.83237091601E+02 -0.51882618482E+02  0.16008280249E+03  0.12509000000E+03 0.  0.
         25    1    3    3    0    0 -0.18016566537E+02 -0.11516892607E+03 -0.84606162199E+02  0.19077261068E+03  0.12509000000E+03 0.  0.
<mgrwt>
<rscale>  2 0.45880689E+03</rscale>
<asrwt>0</asrwt>
<pdfrwt beam="1">  1       21 0.20093458E-01 0.45880689E+03</pdfrwt>
<pdfrwt beam="2">  1       21 0.56640539E-01 0.45880689E+03</pdfrwt>
<totfact> 0.61875311E+04</totfact>
</mgrwt>
</event>
<event>
 7    0  0.4784406E-002  0.4452677E+03  0.7546771E-02  0.1029143E+00
         21   -1    0    0  502  501  0.00000000000E+00  0.00000000000E+00  0.10243109522E+03  0.10243109522E+03  0.00000000000E+00 0. -1.
         21   -1    0    0  501  502 -0.00000000000E+00 -0.00000000000E+00 -0.48389433810E+03  0.48389433810E+03  0.00000000000E+00 0. -1.
      99926    2    1    2    0    0 -0.14210854715E-13  0.00000000000E+00 -0.38146324288E+03  0.58632543331E+03  0.44526768138E+03 0.  0.
      99925    2    3    3    0    0 -0.10261323400E+03  0.13891796234E+02 -0.23313524874E+03  0.36639098912E+03  0.26299782301E+03 0.  0.
         25    1    4    4    0    0 -0.61074353847E+02 -0.16546315453E+02 -0.77489279125E+02  0.16017475997E+03  0.12509000000E+03 0.  0.
         25    1    3    3    0    0  0.10261323400E+03 -0.13891796234E+02 -0.14832799414E+03  0.21993444419E+03  0.12509000000E+03 0.  0.
         25    1    4    4    0    0 -0.41538880157E+02  0.30438111688E+02 -0.15564596961E+03  0.20621622915E+03  0.12509000000E+03 0.  0.
<mgrwt>
<rscale>  2 0.44526768E+03</rscale>
<asrwt>0</asrwt>
<pdfrwt beam="1">  1       21 0.15063396E-01 0.44526768E+03</pdfrwt>
<pdfrwt beam="2">  1       21 0.71160932E-01 0.44526768E+03</pdfrwt>
<totfact> 0.64335994E+04</totfact>
</mgrwt>
</event>
<event>
 7    0  0.4784406E-002  0.4533832E+03  0.7546771E-02  0.1026718E+00
         21   -1    0    0  502  501  0.00000000000E+00  0.00000000000E+00  0.10173024580E+03  0.10173024580E+03  0.00000000000E+00 0.  1.
         21   -1    0    0  501  502 -0.00000000000E+00 -0.00000000000E+00 -0.50515053433E+03  0.50515053433E+03  0.00000000000E+00 0.  1.
      99926    2    1    2    0    0  0.13322676296E-14  0.00000000000E+00 -0.40342028853E+03  0.60688078013E+03  0.45338322872E+03 0.  0.
      99925    2    3    3    0    0 -0.21530435652E+01 -0.11263870112E+03 -0.25223567755E+03  0.38061454914E+03  0.26182529558E+03 0.  0.
         25    1    4    4    0    0  0.30879514102E+02 -0.66267226681E+02 -0.15555272348E+03  0.21257715683E+03  0.12509000000E+03 0.  0.
         25    1    3    3    0    0  0.21530435652E+01  0.11263870112E+03 -0.15118461098E+03  0.22626623099E+03  0.12509000000E+03 0.  0.
         25    1    4    4    0    0 -0.33032557668E+02 -0.46371474437E+02 -0.96682954065E+02  0.16803739231E+03  0.12509000000E+03 0.  0.
<mgrwt>
<rscale>  2 0.45338323E+03</rscale>
<asrwt>0</asrwt>
<pdfrwt beam="1">  1       21 0.14960330E-01 0.45338323E+03</pdfrwt>
<pdfrwt beam="2">  1       21 0.74286843E-01 0.45338323E+03</pdfrwt>
<totfact> 0.59006747E+04</totfact>
</mgrwt>
</event>
<event>
 7    0  0.4784406E-002  0.4420047E+03  0.7546771E-02  0.1030133E+00
         21   -1    0    0  502  501  0.00000000000E+00  0.00000000000E+00  0.13421089021E+04  0.13421089021E+04  0.00000000000E+00 0.  1.
         21   -1    0    0  501  502 -0.00000000000E+00 -0.00000000000E+00 -0.36392007791E+02  0.36392007791E+02  0.00000000000E+00 0.  1.
      99926    2    1    2    0    0  0.00000000000E+00  0.14210854715E-13  0.13057168943E+04  0.13785009099E+04  0.44200469509E+03 0.  0.
      99925    2    3    3    0    0 -0.65826171179E+02  0.75579673550E+02  0.80796445707E+03  0.85557608858E+03  0.26298005170E+03 0.  0.
         25    1    3    3    0    0  0.65826171179E+02 -0.75579673550E+02  0.49775243721E+03  0.52292482129E+03  0.12509000000E+03 0.  0.
         25    1    4    4    0    0 -0.64104071402E+02  0.57918583442E+02  0.50314798320E+03  0.52561325647E+03  0.12509000000E+03 0.  0.
         25    1    4    4    0    0 -0.17220997774E+01  0.17661090108E+02  0.30481647388E+03  0.32996283212E+03  0.12509000000E+03 0.  0.
<mgrwt>
<rscale>  2 0.44200470E+03</rscale>
<asrwt>0</asrwt>
<pdfrwt beam="1">  1       21 0.19736892E+00 0.44200470E+03</pdfrwt>
<pdfrwt beam="2">  1       21 0.53517668E-02 0.44200470E+03</pdfrwt>
<totfact> 0.29809652E+04</totfact>
</mgrwt>
</event>
<event>
 7    0  0.4784406E-002  0.4559985E+03  0.7546771E-02  0.1025948E+00
         21   -1    0    0  502  501  0.00000000000E+00  0.00000000000E+00  0.10893901649E+04  0.10893901649E+04  0.00000000000E+00 0. -1.
         21   -1    0    0  501  502 -0.00000000000E+00 -0.00000000000E+00 -0.47718122649E+02  0.47718122649E+02  0.00000000000E+00 0. -1.
      99926    2    1    2    0    0  0.00000000000E+00  0.00000000000E+00  0.10416720423E+04  0.11371082876E+04  0.45599848027E+03 0.  0.
      99925    2    3    3    0    0 -0.57328471107E+02 -0.75840083082E+02  0.49713140695E+03  0.57035412268E+03  0.26291808169E+03 0.  0.
         25    1    4    4    0    0 -0.22138248679E+02 -0.59287366335E+02  0.32581526031E+03  0.35469449645E+03  0.12509000000E+03 0.  0.
         25    1    3    3    0    0  0.57328471107E+02  0.75840083082E+02  0.54454063531E+03  0.56675416487E+03  0.12509000000E+03 0.  0.
         25    1    4    4    0    0 -0.35190222429E+02 -0.16552716747E+02  0.17131614664E+03  0.21565962623E+03  0.12509000000E+03 0.  0.
<mgrwt>
<rscale>  2 0.45599848E+03</rscale>
<asrwt>0</asrwt>
<pdfrwt beam="1">  1       21 0.16020442E+00 0.45599848E+03</pdfrwt>
<pdfrwt beam="2">  1       21 0.70173716E-02 0.45599848E+03</pdfrwt>
<totfact> 0.33950722E+04</totfact>
</mgrwt>
</event>
<event>
 7    0  0.4784406E-002  0.4323206E+03  0.7546771E-02  0.1033129E+00
         21   -1    0    0  502  501  0.00000000000E+00  0.00000000000E+00  0.17920341444E+03  0.17920341444E+03  0.00000000000E+00 0. -1.
         21   -1    0    0  501  502 -0.00000000000E+00 -0.00000000000E+00 -0.26073880481E+03  0.26073880481E+03  0.00000000000E+00 0. -1.
      99926    2    1    2    0    0  0.00000000000E+00  0.00000000000E+00 -0.81535390369E+02  0.43994221925E+03  0.43232064072E+03 0.  0.
      99925    2    3    3    0    0  0.78713249193E+02  0.37984521003E+02 -0.29044869704E+02  0.27856885622E+03  0.26290379185E+03 0.  0.
         25    1    4    4    0    0  0.75074912373E+02  0.81938510769E+01  0.24092022958E+01  0.14613929663E+03  0.12509000000E+03 0.  0.
         25    1    3    3    0    0 -0.78713249193E+02 -0.37984521003E+02 -0.52490520664E+02  0.16137336302E+03  0.12509000000E+03 0.  0.
         25    1    4    4    0    0  0.36383368200E+01  0.29790669926E+02 -0.31454072000E+02  0.13242955960E+03  0.12509000000E+03 0.  0.
<mgrwt>
<rscale>  2 0.43232064E+03</rscale>
<asrwt>0</asrwt>
<pdfrwt beam="1">  1       21 0.26353443E-01 0.43232064E+03</pdfrwt>
<pdfrwt beam="2">  1       21 0.38343942E-01 0.43232064E+03</pdfrwt>
<totfact> 0.83828772E+04</totfact>
</mgrwt>
</event>
<event>
 7    0  0.4784406E-002  0.3986086E+03  0.7546771E-02  0.1044263E+00
         21   -1    0    0  502  501  0.00000000000E+00  0.00000000000E+00  0.49876274280E+03  0.49876274280E+03  0.00000000000E+00 0.  1.
         21   -1    0    0  501  502 -0.00000000000E+00 -0.00000000000E+00 -0.79641487160E+02  0.79641487160E+02  0.00000000000E+00 0.  1.
      99926    2    1    2    0    0  0.00000000000E+00 -0.44408920985E-14  0.41912125564E+03  0.57840422996E+03  0.39860861294E+03 0.  0.
      99925    2    3    3    0    0 -0.36179412886E+02 -0.70677981595E+01  0.31209850495E+03  0.40970247848E+03  0.26285307758E+03 0.  0.
         25    1    4    4    0    0 -0.28555040312E+02 -0.42487840265E+02  0.16224402712E+03  0.21116637832E+03  0.12509000000E+03 0.  0.
         25    1    4    4    0    0 -0.76243725744E+01  0.35420042106E+02  0.14985447783E+03  0.19853610016E+03  0.12509000000E+03 0.  0.
         25    1    3    3    0    0  0.36179412886E+02  0.70677981595E+01  0.10702275069E+03  0.16870175148E+03  0.12509000000E+03 0.  0.
<mgrwt>
<rscale>  2 0.39860861E+03</rscale>
<asrwt>0</asrwt>
<pdfrwt beam="1">  1       21 0.73347460E-01 0.39860861E+03</pdfrwt>
<pdfrwt beam="2">  1       21 0.11711984E-01 0.39860861E+03</pdfrwt>
<totfact> 0.96285605E+04</totfact>
</mgrwt>
</event>
<event>
 7    0  0.4784406E-002  0.4528766E+03  0.7546771E-02  0.1026868E+00
         21   -1    0    0  502  501  0.00000000000E+00  0.00000000000E+00  0.18410364926E+03  0.18410364926E+03  0.00000000000E+00 0.  1.
         21   -1    0    0  501  502 -0.00000000000E+00 -0.00000000000E+00 -0.27850780159E+03  0.27850780159E+03  0.00000000000E+00 0.  1.
      99926    2    1    2    0    0  0.71054273576E-14  0.00000000000E+00 -0.94404152325E+02  0.46261145085E+03  0.45287659520E+03 0.  0.
      99925    2    3    3    0    0 -0.34298963458E+02 -0.10471704167E+03 -0.72195088529E+02  0.29443645769E+03  0.26332227232E+03 0.  0.
         25    1    3    3    0    0  0.34298963458E+02  0.10471704167E+03 -0.22209063796E+02  0.16817499316E+03  0.12509000000E+03 0.  0.
         25    1    4    4    0    0  0.62475263238E+01 -0.83282511550E+02 -0.21743925137E+02  0.15197142723E+03  0.12509000000E+03 0.  0.
         25    1    4    4    0    0 -0.40546489781E+02 -0.21434530118E+02 -0.50451163392E+02  0.14246503046E+03  0.12509000000E+03 0.  0.
<mgrwt>
<rscale>  2 0.45287660E+03</rscale>
<asrwt>0</asrwt>
<pdfrwt beam="1">  1       21 0.27074066E-01 0.45287660E+03</pdfrwt>
<pdfrwt beam="2">  1       21 0.40957029E-01 0.45287660E+03</pdfrwt>
<totfact> 0.69147283E+04</totfact>
</mgrwt>
</event>
<event>
 7    0  0.4784406E-002  0.4531539E+03  0.7546771E-02  0.1026786E+00
         21   -1    0    0  502  501  0.00000000000E+00  0.00000000000E+00  0.70181582131E+02  0.70181582131E+02  0.00000000000E+00 0. -1.
         21   -1    0    0  501  502 -0.00000000000E+00 -0.00000000000E+00 -0.73148982480E+03  0.73148982480E+03  0.00000000000E+00 0. -1.
      99926    2    1    2    0    0 -0.71054273576E-14 -0.14210854715E-13 -0.66130824266E+03  0.80167140693E+03  0.45315389535E+03 0.  0.
      99925    2    3    3    0    0  0.41664650959E+02  0.83990953475E+02 -0.52337943974E+03  0.59319530234E+03  0.26299088459E+03 0.  0.
         25    1    3    3    0    0 -0.41664650959E+02 -0.83990953475E+02 -0.13792880293E+03  0.20847610458E+03  0.12509000000E+03 0.  0.
         25    1    4    4    0    0  0.59925008617E+02  0.55386165170E+02 -0.29242770919E+03  0.32835972219E+03  0.12509000000E+03 0.  0.
         25    1    4    4    0    0 -0.18260357657E+02  0.28604788306E+02 -0.23095173054E+03  0.26483558016E+03  0.12509000000E+03 0.  0.
<mgrwt>
<rscale>  2 0.45315390E+03</rscale>
<asrwt>0</asrwt>
<pdfrwt beam="1">  1       21 0.10320821E-01 0.45315390E+03</pdfrwt>
<pdfrwt beam="2">  1       21 0.10757203E+00 0.45315390E+03</pdfrwt>
<totfact> 0.48381202E+04</totfact>
</mgrwt>
</event>
<event>
 7    0  0.4784406E-002  0.4509748E+03  0.7546771E-02  0.1027432E+00
         21   -1    0    0  502  501  0.00000000000E+00  0.00000000000E+00  0.32095085431E+03  0.32095085431E+03  0.00000000000E+00 0.  1.
         21   -1    0    0  501  502 -0.00000000000E+00 -0.00000000000E+00 -0.15841856539E+03  0.15841856539E+03  0.00000000000E+00 0.  1.
      99926    2    1    2    0    0  0.00000000000E+00  0.14210854715E-13  0.16253228893E+03  0.47936941970E+03  0.45097482812E+03 0.  0.
      99925    2    3    3    0    0  0.61723348309E+02  0.86642821401E+02  0.12969933027E+03  0.31191118162E+03  0.26296372130E+03 0.  0.
         25    1    4    4    0    0  0.22974275922E+02  0.44489345396E+02  0.10791083287E+03  0.17262495520E+03  0.12509000000E+03 0.  0.
         25    1    4    4    0    0  0.38749072386E+02  0.42153476005E+02  0.21788497402E+02  0.13928622642E+03  0.12509000000E+03 0.  0.
         25    1    3    3    0    0 -0.61723348309E+02 -0.86642821401E+02  0.32832958658E+02  0.16745823808E+03  0.12509000000E+03 0.  0.
<mgrwt>
<rscale>  2 0.45097483E+03</rscale>
<asrwt>0</asrwt>
<pdfrwt beam="1">  1       21 0.47198655E-01 0.45097483E+03</pdfrwt>
<pdfrwt beam="2">  1       21 0.23296848E-01 0.45097483E+03</pdfrwt>
<totfact> 0.68921976E+04</totfact>
</mgrwt>
</event>
<event>
 6    0  0.5405465E-002  0.4447605E+03  0.7546771E-02  0.1029296E+00
         21   -1    0    0  502  501  0.00000000000E+00  0.00000000000E+00  0.18505068228E+03  0.18505068228E+03  0.00000000000E+00 0.  1.
         21   -1    0    0  501  502 -0.00000000000E+00 -0.00000000000E+00 -0.26724019394E+03  0.26724019394E+03  0.00000000000E+00 0.  1.
      99926    2    1    2    0    0  0.71054273576E-14  0.00000000000E+00 -0.82189511662E+02  0.45229087621E+03  0.44476052082E+03 0.  0.
         25    1    3    3    0    0 -0.21643372919E+02 -0.26337553044E+01 -0.10963803939E+03  0.16775988805E+03  0.12509000000E+03 0.  0.
         25    1    3    3    0    0  0.58676752812E+02  0.18467081016E+02 -0.27513576816E+02  0.14208623934E+03  0.12509000000E+03 0.  0.
         25    1    3    3    0    0 -0.37033379893E+02 -0.15833325711E+02  0.54962104543E+02  0.14244474882E+03  0.12509000000E+03 0.  0.
<mgrwt>
<rscale>  2 0.44476052E+03</rscale>
<asrwt>0</asrwt>
<pdfrwt beam="1">  1       21 0.27213336E-01 0.44476052E+03</pdfrwt>
<pdfrwt beam="2">  1       21 0.39300028E-01 0.44476052E+03</pdfrwt>
<totfact> 0.74658032E+04</totfact>
</mgrwt>
</event>
<event>
 7    0  0.4784406E-002  0.4428722E+03  0.7546771E-02  0.1029869E+00
         21   -1    0    0  502  501  0.00000000000E+00  0.00000000000E+00  0.10622063564E+03  0.10622063564E+03  0.00000000000E+00 0. -1.
         21   -1    0    0  501  502 -0.00000000000E+00 -0.00000000000E+00 -0.46162355315E+03  0.46162355315E+03  0.00000000000E+00 0. -1.
      99926    2    1    2    0    0  0.00000000000E+00  0.00000000000E+00 -0.35540291752E+03  0.56784418879E+03  0.44287220387E+03 0.  0.
      99925    2    3    3    0    0  0.72451860969E+02  0.67795932792E+02 -0.25259427122E+03  0.37794240756E+03  0.26304189194E+03 0.  0.
         25    1    3    3    0    0 -0.72451860969E+02 -0.67795932792E+02 -0.10280864630E+03  0.18990178123E+03  0.12509000000E+03 0.  0.
         25    1    4    4    0    0  0.42079316934E+02 -0.69485994374E+01 -0.11323802869E+03  0.17403824634E+03  0.12509000000E+03 0.  0.
         25    1    4    4    0    0  0.30372544034E+02  0.74744532229E+02 -0.13935624253E+03  0.20390416121E+03  0.12509000000E+03 0.  0.
<mgrwt>
<rscale>  2 0.44287220E+03</rscale>
<asrwt>0</asrwt>
<pdfrwt beam="1">  1       21 0.15620682E-01 0.44287220E+03</pdfrwt>
<pdfrwt beam="2">  1       21 0.67885815E-01 0.44287220E+03</pdfrwt>
<totfact> 0.66890685E+04</totfact>
</mgrwt>
</event>
<event>
 7    0  0.4784406E-002  0.4571159E+03  0.7546771E-02  0.1025621E+00
         21   -1    0    0  502  501  0.00000000000E+00  0.00000000000E+00  0.11427184077E+04  0.11427184077E+04  0.00000000000E+00 0. -1.
         21   -1    0    0  501  502 -0.00000000000E+00 -0.00000000000E+00 -0.45714444052E+02  0.45714444052E+02  0.00000000000E+00 0. -1.
      99926    2    1    2    0    0  0.35527136788E-14  0.00000000000E+00  0.10970039637E+04  0.11884328518E+04  0.45711590092E+03 0.  0.
      99925    2    3    3    0    0 -0.22630840706E+02  0.41227017785E+02  0.96198352320E+03  0.99845956579E+03  0.26324396223E+03 0.  0.
         25    1    4    4    0    0 -0.21338265952E+02 -0.41187615662E+01  0.58682322421E+03  0.60040094134E+03  0.12509000000E+03 0.  0.
         25    1    3    3    0    0  0.22630840706E+02 -0.41227017785E+02  0.13502044048E+03  0.18997328600E+03  0.12509000000E+03 0.  0.
         25    1    4    4    0    0 -0.12925747539E+01  0.45345779352E+02  0.37516029899E+03  0.39805862445E+03  0.12509000000E+03 0.  0.
<mgrwt>
<rscale>  2 0.45711590E+03</rscale>
<asrwt>0</asrwt>
<pdfrwt beam="1">  1       21 0.16804681E+00 0.45711590E+03</pdfrwt>
<pdfrwt beam="2">  1       21 0.67227131E-02 0.45711590E+03</pdfrwt>
<totfact> 0.31994055E+04</totfact>
</mgrwt>
</event>
<event>
 7    0  0.4784406E-002  0.4537583E+03  0.7546771E-02  0.1026607E+00
         21   -1    0    0  502  501  0.00000000000E+00  0.00000000000E+00  0.22390439234E+03  0.22390439234E+03  0.00000000000E+00 0. -1.
         21   -1    0    0  501  502 -0.00000000000E+00 -0.00000000000E+00 -0.22989344979E+03  0.22989344979E+03  0.00000000000E+00 0. -1.
      99926    2    1    2    0    0  0.71054273576E-14  0.00000000000E+00 -0.59890574464E+01  0.45379784213E+03  0.45375831972E+03 0.  0.
      99925    2    3    3    0    0 -0.47493800118E+02  0.97148043423E+01  0.97229072631E+02  0.28453021691E+03  0.26297131649E+03 0.  0.
         25    1    4    4    0    0  0.16594855475E+02  0.33234430017E+01  0.54454810879E+02  0.13747461231E+03  0.12509000000E+03 0.  0.
         25    1    3    3    0    0  0.47493800118E+02 -0.97148043423E+01 -0.10321813008E+03  0.16926762523E+03  0.12509000000E+03 0.  0.
         25    1    4    4    0    0 -0.64088655593E+02  0.63913613405E+01  0.42774261752E+02  0.14705560460E+03  0.12509000000E+03 0.  0.
<mgrwt>
<rscale>  2 0.45375832E+03</rscale>
<asrwt>0</asrwt>
<pdfrwt beam="1">  1       21 0.32927117E-01 0.45375832E+03</pdfrwt>
<pdfrwt beam="2">  1       21 0.33807860E-01 0.45375832E+03</pdfrwt>
<totfact> 0.69318166E+04</totfact>
</mgrwt>
</event>
<event>
 7    0  0.4784406E-002  0.4538920E+03  0.7546771E-02  0.1026568E+00
         21   -1    0    0  502  501  0.00000000000E+00  0.00000000000E+00  0.11568163844E+03  0.11568163844E+03  0.00000000000E+00 0. -1.
         21   -1    0    0  501  502 -0.00000000000E+00 -0.00000000000E+00 -0.44522614569E+03  0.44522614569E+03  0.00000000000E+00 0. -1.
      99926    2    1    2    0    0 -0.71054273576E-14  0.00000000000E+00 -0.32954450725E+03  0.56090778413E+03  0.45389201363E+03 0.  0.
      99925    2    3    3    0    0  0.58940495255E+02 -0.95273047358E+02 -0.21273294833E+03  0.35635122977E+03  0.26302082830E+03 0.  0.
         25    1    4    4    0    0  0.96426155390E+01 -0.56505433418E+02 -0.62761005761E+02  0.15123589516E+03  0.12509000000E+03 0.  0.
         25    1    3    3    0    0 -0.58940495255E+02  0.95273047358E+02 -0.11681155893E+03  0.20455655436E+03  0.12509000000E+03 0.  0.
         25    1    4    4    0    0  0.49297879716E+02 -0.38767613940E+02 -0.14997194257E+03  0.20511533461E+03  0.12509000000E+03 0.  0.
<mgrwt>
<rscale>  2 0.45389201E+03</rscale>
<asrwt>0</asrwt>
<pdfrwt beam="1">  1       21 0.17012006E-01 0.45389201E+03</pdfrwt>
<pdfrwt beam="2">  1       21 0.65474432E-01 0.45389201E+03</pdfrwt>
<totfact> 0.61690288E+04</totfact>
</mgrwt>
</event>
<event>
 7    0  0.4784406E-002  0.4554277E+03  0.7546771E-02  0.1026116E+00
         21   -1    0    0  502  501  0.00000000000E+00  0.00000000000E+00  0.10220477802E+04  0.10220477802E+04  0.00000000000E+00 0.  1.
         21   -1    0    0  501  502 -0.00000000000E+00 -0.00000000000E+00 -0.50735006086E+02  0.50735006086E+02  0.00000000000E+00 0.  1.
      99926    2    1    2    0    0  0.35527136788E-14  0.00000000000E+00  0.97131277416E+03  0.10727827863E+04  0.45542771260E+03 0.  0.
      99925    2    3    3    0    0  0.12964478411E+02  0.72319158352E+02  0.40636069844E+03  0.48950198404E+03  0.26284032562E+03 0.  0.
         25    1    4    4    0    0  0.35163726520E+02  0.48540236761E+02  0.16368842468E+03  0.21455547236E+03  0.12509000000E+03 0.  0.
         25    1    4    4    0    0 -0.22199248108E+02  0.23778921591E+02  0.24267227376E+03  0.27494651168E+03  0.12509000000E+03 0.  0.
         25    1    3    3    0    0 -0.12964478411E+02 -0.72319158352E+02  0.56495207572E+03  0.58328080230E+03  0.12509000000E+03 0.  0.
<mgrwt>
<rscale>  2 0.45542771E+03</rscale>
<asrwt>0</asrwt>
<pdfrwt beam="1">  1       21 0.15030113E+00 0.45542771E+03</pdfrwt>
<pdfrwt beam="2">  1       21 0.74610309E-02 0.45542771E+03</pdfrwt>
<totfact> 0.36330965E+04</totfact>
</mgrwt>
</event>
<event>
 7    0  0.4784406E-002  0.4434910E+03  0.7546771E-02  0.1029681E+00
         21   -1    0    0  502  501  0.00000000000E+00  0.00000000000E+00  0.12402565249E+03  0.12402565249E+03  0.00000000000E+00 0. -1.
         21   -1    0    0  501  502 -0.00000000000E+00 -0.00000000000E+00 -0.39645887397E+03  0.39645887397E+03  0.00000000000E+00 0. -1.
      99926    2    1    2    0    0  0.00000000000E+00  0.00000000000E+00 -0.27243322148E+03  0.52048452646E+03  0.44349101696E+03 0.  0.
      99925    2    3    3    0    0 -0.25693236942E+02 -0.76037032541E+02 -0.24716540994E+03  0.36972729399E+03  0.26299383892E+03 0.  0.
         25    1    4    4    0    0 -0.15932008614E+02 -0.58738371090E+02 -0.81618174175E+02  0.16128564596E+03  0.12509000000E+03 0.  0.
         25    1    4    4    0    0 -0.97612283288E+01 -0.17298661451E+02 -0.16554723576E+03  0.20844164803E+03  0.12509000000E+03 0.  0.
         25    1    3    3    0    0  0.25693236942E+02  0.76037032541E+02 -0.25267811539E+02  0.15075723247E+03  0.12509000000E+03 0.  0.
<mgrwt>
<rscale>  2 0.44349102E+03</rscale>
<asrwt>0</asrwt>
<pdfrwt beam="1">  1       21 0.18239066E-01 0.44349102E+03</pdfrwt>
<pdfrwt beam="2">  1       21 0.58302776E-01 0.44349102E+03</pdfrwt>
<totfact> 0.70026369E+04</totfact>
</mgrwt>
</event>
<event>
 7    0  0.4784406E-002  0.4557741E+03  0.7546771E-02  0.1026014E+00
         21   -1    0    0  502  501  0.00000000000E+00  0.00000000000E+00  0.17802012344E+03  0.17802012344E+03  0.00000000000E+00 0. -1.
         21   -1    0    0  501  502 -0.00000000000E+00 -0.00000000000E+00 -0.29172268439E+03  0.29172268439E+03  0.00000000000E+00 0. -1.
      99926    2    1    2    0    0 -0.71054273576E-14 -0.14210854715E-13 -0.11370256095E+03  0.46974280783E+03  0.45577410319E+03 0.  0.
      99925    2    3    3    0    0 -0.44513954086E+02 -0.86130459476E+02 -0.13331182211E+03  0.31026873664E+03  0.26285870513E+03 0.  0.
         25    1    4    4    0    0 -0.28125520022E+02 -0.14906462942E+01 -0.63139524133E+02  0.14292436640E+03  0.12509000000E+03 0.  0.
         25    1    4    4    0    0 -0.16388434064E+02 -0.84639813182E+02 -0.70172297982E+02  0.16734437024E+03  0.12509000000E+03 0.  0.
         25    1    3    3    0    0  0.44513954086E+02  0.86130459476E+02  0.19609261161E+02  0.15947407119E+03  0.12509000000E+03 0.  0.
<mgrwt>
<rscale>  2 0.45577410E+03</rscale>
<asrwt>0</asrwt>
<pdfrwt beam="1">  1       21 0.26179430E-01 0.45577410E+03</pdfrwt>
<pdfrwt beam="2">  1       21 0.42900394E-01 0.45577410E+03</pdfrwt>
<totfact> 0.67042243E+04</totfact>
</mgrwt>
</event>
<event>
 7    0  0.4784406E-002  0.4623392E+03  0.7546771E-02  0.1024105E+00
         21   -1    0    0  502  501  0.00000000000E+00  0.00000000000E+00  0.11466705973E+03  0.11466705973E+03  0.00000000000E+00 0. -1.
         21   -1    0    0  501  502 -0.00000000000E+00 -0.00000000000E+00 -0.46603955785E+03  0.46603955785E+03  0.00000000000E+00 0. -1.
      99926    2    1    2    0    0  0.00000000000E+00  0.00000000000E+00 -0.35137249812E+03  0.58070661758E+03  0.46233920801E+03 0.  0.
      99925    2    3    3    0    0  0.18008625839E+02 -0.48915489334E+02 -0.35541543798E+03  0.44513047969E+03  0.26287634867E+03 0.  0.
         25    1    3    3    0    0 -0.18008625839E+02  0.48915489334E+02  0.40429398618E+01  0.13557613789E+03  0.12509000000E+03 0.  0.
         25    1    4    4    0    0  0.48611639372E+02 -0.17244323624E+02 -0.18461632231E+03  0.22889113732E+03  0.12509000000E+03 0.  0.
         25    1    4    4    0    0 -0.30603013533E+02 -0.31671165711E+02 -0.17079911567E+03  0.21623934237E+03  0.12509000000E+03 0.  0.
<mgrwt>
<rscale>  2 0.46233921E+03</rscale>
<asrwt>0</asrwt>
<pdfrwt beam="1">  1       21 0.16862803E-01 0.46233921E+03</pdfrwt>
<pdfrwt beam="2">  1       21 0.68535228E-01 0.46233921E+03</pdfrwt>
<totfact> 0.56529756E+04</totfact>
</mgrwt>
</event>
<event>
 7    0  0.4784406E-002  0.4472522E+03  0.7546771E-02  0.1028545E+00
         21   -1    0    0  502  501  0.00000000000E+00  0.00000000000E+00  0.13962973534E+04  0.13962973534E+04  0.00000000000E+00 0. -1.
         21   -1    0    0  501  502 -0.00000000000E+00 -0.00000000000E+00 -0.35815176283E+02  0.35815176283E+02  0.00000000000E+00 0. -1.
      99926    2    1    2    0    0  0.00000000000E+00  0.00000000000E+00  0.13604821771E+04  0.14321125297E+04  0.44725221455E+03 0.  0.
      99925    2    3    3    0    0  0.30683260989E+02 -0.68845735357E+02  0.62474572606E+03  0.68202131436E+03  0.26299173606E+03 0.  0.
         25    1    4    4    0    0 -0.14504692820E+02 -0.66992263647E+01  0.26503707392E+03  0.29350881486E+03  0.12509000000E+03 0.  0.
         25    1    4    4    0    0  0.45187953809E+02 -0.62146508992E+02  0.35970865214E+03  0.38851249950E+03  0.12509000000E+03 0.  0.
         25    1    3    3    0    0 -0.30683260989E+02  0.68845735357E+02  0.73573645104E+03  0.75009121530E+03  0.12509000000E+03 0.  0.
<mgrwt>
<rscale>  2 0.44725221E+03</rscale>
<asrwt>0</asrwt>
<pdfrwt beam="1">  1       21 0.20533781E+00 0.44725221E+03</pdfrwt>
<pdfrwt beam="2">  1       21 0.52669386E-02 0.44725221E+03</pdfrwt>
<totfact> 0.27082828E+04</totfact>
</mgrwt>
</event>
<event>
 7    0  0.4784406E-002  0.4593490E+03  0.7546771E-02  0.1024970E+00
         21   -1    0    0  502  501  0.00000000000E+00  0.00000000000E+00  0.13590849975E+03  0.13590849975E+03  0.00000000000E+00 0. -1.
         21   -1    0    0  501  502 -0.00000000000E+00 -0.00000000000E+00 -0.38813159750E+03  0.38813159750E+03  0.00000000000E+00 0. -1.
      99926    2    1    2    0    0  0.00000000000E+00  0.14210854715E-13 -0.25222309775E+03  0.52404009724E+03  0.45934903122E+03 0.  0.
      99925    2    3    3    0    0 -0.92000014832E+02  0.72584105650E+02 -0.16144513607E+03  0.33007978803E+03  0.26297467442E+03 0.  0.
         25    1    4    4    0    0 -0.67708046898E+01  0.40715222275E+02 -0.57572080214E+02  0.14375543691E+03  0.12509000000E+03 0.  0.
         25    1    4    4    0    0 -0.85229210142E+02  0.31868883375E+02 -0.10387305585E+03  0.18632435112E+03  0.12509000000E+03 0.  0.
         25    1    3    3    0    0  0.92000014832E+02 -0.72584105650E+02 -0.90777961686E+02  0.19396030921E+03  0.12509000000E+03 0.  0.
<mgrwt>
<rscale>  2 0.45934903E+03</rscale>
<asrwt>0</asrwt>
<pdfrwt beam="1">  1       21 0.19986544E-01 0.45934903E+03</pdfrwt>
<pdfrwt beam="2">  1       21 0.57078175E-01 0.45934903E+03</pdfrwt>
<totfact> 0.61464585E+04</totfact>
</mgrwt>
</event>
<event>
 7    0  0.4784406E-002  0.4528121E+03  0.7546771E-02  0.1026887E+00
         21   -1    0    0  502  501  0.00000000000E+00  0.00000000000E+00  0.13275397560E+03  0.13275397560E+03  0.00000000000E+00 0. -1.
         21   -1    0    0  501  502 -0.00000000000E+00 -0.00000000000E+00 -0.38612548881E+03  0.38612548881E+03  0.00000000000E+00 0. -1.
      99926    2    1    2    0    0  0.00000000000E+00  0.00000000000E+00 -0.25337151321E+03  0.51887946441E+03  0.45281207458E+03 0.  0.
      99925    2    3    3    0    0  0.21025422236E+02 -0.87524135329E+02 -0.23427316367E+03  0.36359006458E+03  0.26308036263E+03 0.  0.
         25    1    3    3    0    0 -0.21025422236E+02  0.87524135329E+02 -0.19098349535E+02  0.15528939983E+03  0.12509000000E+03 0.  0.
         25    1    4    4    0    0  0.22083186644E+02 -0.53849342956E+02 -0.17010242744E+03  0.21902000546E+03  0.12509000000E+03 0.  0.
         25    1    4    4    0    0 -0.10577644080E+01 -0.33674792373E+02 -0.64170736232E+02  0.14457005913E+03  0.12509000000E+03 0.  0.
<mgrwt>
<rscale>  2 0.45281207E+03</rscale>
<asrwt>0</asrwt>
<pdfrwt beam="1">  1       21 0.19522643E-01 0.45281207E+03</pdfrwt>
<pdfrwt beam="2">  1       21 0.56783160E-01 0.45281207E+03</pdfrwt>
<totfact> 0.65086148E+04</totfact>
</mgrwt>
</event>
<event>
 7    0  0.4784406E-002  0.4515066E+03  0.7546771E-02  0.1027274E+00
         21   -1    0    0  502  501  0.00000000000E+00  0.00000000000E+00  0.19572980378E+02  0.19572980378E+02  0.00000000000E+00 0. -1.
         21   -1    0    0  501  502 -0.00000000000E+00 -0.00000000000E+00 -0.26038219873E+04  0.26038219873E+04  0.00000000000E+00 0. -1.
      99926    2    1    2    0    0 -0.35527136788E-14  0.00000000000E+00 -0.25842490069E+04  0.26233949677E+04  0.45150661862E+03 0.  0.
      99925    2    3    3    0    0 -0.24310298001E+02  0.20859192931E+02 -0.10208684889E+04  0.10546909648E+04  0.26301038575E+03 0.  0.
         25    1    4    4    0    0  0.20238087336E+02  0.11776918797E+02 -0.40162684300E+03  0.42130737605E+03  0.12509000000E+03 0.  0.
         25    1    3    3    0    0  0.24310298001E+02 -0.20859192931E+02 -0.15633805180E+04  0.15687040029E+04  0.12509000000E+03 0.  0.
         25    1    4    4    0    0 -0.44548385337E+02  0.90822741346E+01 -0.61924164594E+03  0.63338358876E+03  0.12509000000E+03 0.  0.
<mgrwt>
<rscale>  2 0.45150662E+03</rscale>
<asrwt>0</asrwt>
<pdfrwt beam="1">  1       21 0.28783830E-02 0.45150662E+03</pdfrwt>
<pdfrwt beam="2">  1       21 0.38291452E+00 0.45150662E+03</pdfrwt>
<totfact> 0.61143377E+03</totfact>
</mgrwt>
</event>
<event>
 7    0  0.4784406E-002  0.4519509E+03  0.7546771E-02  0.1027142E+00
         21   -1    0    0  502  501  0.00000000000E+00  0.00000000000E+00  0.13053091126E+02  0.13053091126E+02  0.00000000000E+00 0. -1.
         21   -1    0    0  501  502 -0.00000000000E+00 -0.00000000000E+00 -0.39120926564E+04  0.39120926564E+04  0.00000000000E+00 0. -1.
      99926    2    1    2    0    0  0.17763568394E-14  0.35527136788E-14 -0.38990395652E+04  0.39251457475E+04  0.45195089086E+03 0.  0.
      99925    2    3    3    0    0 -0.31134036491E+01 -0.31548901785E+02 -0.15443216539E+04  0.15668944936E+04  0.26310445991E+03 0.  0.
         25    1    3    3    0    0  0.31134036491E+01  0.31548901785E+02 -0.23547179114E+04  0.23582512539E+04  0.12509000000E+03 0.  0.
         25    1    4    4    0    0 -0.28662299574E+02 -0.29711495322E+02 -0.94381191320E+03  0.95295998655E+03  0.12509000000E+03 0.  0.
         25    1    4    4    0    0  0.25548895925E+02 -0.18374064620E+01 -0.60050974067E+03  0.61393450700E+03  0.12509000000E+03 0.  0.
<mgrwt>
<rscale>  2 0.45195089E+03</rscale>
<asrwt>0</asrwt>
<pdfrwt beam="1">  1       21 0.19195712E-02 0.45195089E+03</pdfrwt>
<pdfrwt beam="2">  1       21 0.57530805E+00 0.45195089E+03</pdfrwt>
<totfact> 0.54440447E+02</totfact>
</mgrwt>
</event>
<event>
 7    0  0.4784406E-002  0.4783736E+03  0.7546771E-02  0.1019583E+00
         21   -1    0    0  502  501  0.00000000000E+00  0.00000000000E+00  0.58516402536E+02  0.58516402536E+02  0.00000000000E+00 0. -1.
         21   -1    0    0  501  502 -0.00000000000E+00 -0.00000000000E+00 -0.97768029689E+03  0.97768029689E+03  0.00000000000E+00 0. -1.
      99926    2    1    2    0    0  0.00000000000E+00  0.00000000000E+00 -0.91916389436E+03  0.10361966994E+04  0.47837363558E+03 0.  0.
      99925    2    3    3    0    0  0.35023666048E+02 -0.54590323581E+02 -0.31333593441E+03  0.41419847937E+03  0.26300990837E+03 0.  0.
         25    1    3    3    0    0 -0.35023666048E+02  0.54590323581E+02 -0.60582795994E+03  0.62199822006E+03  0.12509000000E+03 0.  0.
         25    1    4    4    0    0  0.45077971105E+02 -0.31402553667E+02 -0.20732670738E+03  0.24829421167E+03  0.12509000000E+03 0.  0.
         25    1    4    4    0    0 -0.10054305057E+02 -0.23187769914E+02 -0.10600922703E+03  0.16590426770E+03  0.12509000000E+03 0.  0.
<mgrwt>
<rscale>  2 0.47837364E+03</rscale>
<asrwt>0</asrwt>
<pdfrwt beam="1">  1       21 0.86053530E-02 0.47837364E+03</pdfrwt>
<pdfrwt beam="2">  1       21 0.14377652E+00 0.47837364E+03</pdfrwt>
<totfact> 0.31613283E+04</totfact>
</mgrwt>
</event>
<event>
 7    0  0.4784406E-002  0.4537871E+03  0.7546771E-02  0.1026599E+00
         21   -1    0    0  502  501  0.00000000000E+00  0.00000000000E+00  0.60228928659E+02  0.60228928659E+02  0.00000000000E+00 0.  1.
         21   -1    0    0  501  502 -0.00000000000E+00 -0.00000000000E+00 -0.85474999693E+03  0.85474999693E+03  0.00000000000E+00 0.  1.
      99926    2    1    2    0    0  0.00000000000E+00  0.00000000000E+00 -0.79452106828E+03  0.91497892559E+03  0.45378707160E+03 0.  0.
      99925    2    3    3    0    0 -0.61725714198E+02 -0.74160384081E+02 -0.61639571874E+03  0.67689075998E+03  0.26254064923E+03 0.  0.
         25    1    3    3    0    0  0.61725714198E+02  0.74160384081E+02 -0.17812534953E+03  0.23808816562E+03  0.12509000000E+03 0.  0.
         25    1    4    4    0    0 -0.57202756273E+02 -0.16809001427E+02 -0.36217511011E+03  0.38777959763E+03  0.12509000000E+03 0.  0.
         25    1    4    4    0    0 -0.45229579245E+01 -0.57351382654E+02 -0.25422060863E+03  0.28911116235E+03  0.12509000000E+03 0.  0.
<mgrwt>
<rscale>  2 0.45378707E+03</rscale>
<asrwt>0</asrwt>
<pdfrwt beam="1">  1       21 0.88571963E-02 0.45378707E+03</pdfrwt>
<pdfrwt beam="2">  1       21 0.12569852E+00 0.45378707E+03</pdfrwt>
<totfact> 0.42999071E+04</totfact>
</mgrwt>
</event>
<event>
 7    0  0.4784406E-002  0.4313550E+03  0.7546771E-02  0.1033433E+00
         21   -1    0    0  502  501  0.00000000000E+00  0.00000000000E+00  0.67807131004E+03  0.67807131004E+03  0.00000000000E+00 0.  1.
         21   -1    0    0  501  502 -0.00000000000E+00 -0.00000000000E+00 -0.68601625674E+02  0.68601625674E+02  0.00000000000E+00 0.  1.
      99926    2    1    2    0    0  0.00000000000E+00  0.35527136788E-14  0.60946968436E+03  0.74667293571E+03  0.43135504722E+03 0.  0.
      99925    2    3    3    0    0  0.73690994100E+02 -0.14082093810E+02  0.30891794481E+03  0.41259581254E+03  0.26301395386E+03 0.  0.
         25    1    4    4    0    0  0.35576135712E+02  0.23488592810E+02  0.11191518053E+03  0.17317589658E+03  0.12509000000E+03 0.  0.
         25    1    3    3    0    0 -0.73690994100E+02  0.14082093810E+02  0.30055173955E+03  0.33407712317E+03  0.12509000000E+03 0.  0.
         25    1    4    4    0    0  0.38114858388E+02 -0.37570686620E+02  0.19700276428E+03  0.23941991596E+03  0.12509000000E+03 0.  0.
<mgrwt>
<rscale>  2 0.43135505E+03</rscale>
<asrwt>0</asrwt>
<pdfrwt beam="1">  1       21 0.99716366E-01 0.43135505E+03</pdfrwt>
<pdfrwt beam="2">  1       21 0.10088475E-01 0.43135505E+03</pdfrwt>
<totfact> 0.61014359E+04</totfact>
</mgrwt>
</event>
<event>
 7    0  0.4784406E-002  0.4585675E+03  0.7546771E-02  0.1025198E+00
         21   -1    0    0  502  501  0.00000000000E+00  0.00000000000E+00  0.18881561310E+03  0.18881561310E+03  0.00000000000E+00 0. -1.
         21   -1    0    0  501  502 -0.00000000000E+00 -0.00000000000E+00 -0.27842522197E+03  0.27842522197E+03  0.00000000000E+00 0. -1.
      99926    2    1    2    0    0  0.00000000000E+00  0.14210854715E-13 -0.89609608870E+02  0.46724083507E+03  0.45856746064E+03 0.  0.
      99925    2    3    3    0    0 -0.53831440186E+02  0.10059786126E+03 -0.80074652307E+02  0.29766437108E+03  0.26301021696E+03 0.  0.
         25    1    3    3    0    0  0.53831440186E+02 -0.10059786126E+03 -0.95349565626E+01  0.16957646399E+03  0.12509000000E+03 0.  0.
         25    1    4    4    0    0 -0.38921158696E+02  0.11915532373E+02 -0.49807657786E+02  0.14065968641E+03  0.12509000000E+03 0.  0.
         25    1    4    4    0    0 -0.14910281490E+02  0.88682328892E+02 -0.30266994521E+02  0.15700468467E+03  0.12509000000E+03 0.  0.
<mgrwt>
<rscale>  2 0.45856746E+03</rscale>
<asrwt>0</asrwt>
<pdfrwt beam="1">  1       21 0.27767002E-01 0.45856746E+03</pdfrwt>
<pdfrwt beam="2">  1       21 0.40944885E-01 0.45856746E+03</pdfrwt>
<totfact> 0.65759469E+04</totfact>
</mgrwt>
</event>
<event>
 7    0  0.4784406E-002  0.4679669E+03  0.7546771E-02  0.1022496E+00
         21   -1    0    0  502  501  0.00000000000E+00  0.00000000000E+00  0.64139876622E+02  0.64139876622E+02  0.00000000000E+00 0.  1.
         21   -1    0    0  501  502 -0.00000000000E+00 -0.00000000000E+00 -0.85357589893E+03  0.85357589893E+03  0.00000000000E+00 0.  1.
      99926    2    1    2    0    0 -0.71054273576E-14  0.14210854715E-13 -0.78943602230E+03  0.91771577555E+03  0.46796689133E+03 0.  0.
      99925    2    3    3    0    0 -0.46737738113E+02  0.78567734604E+02 -0.32681505901E+03  0.42983979862E+03  0.26381217674E+03 0.  0.
         25    1    4    4    0    0 -0.54057000333E+01  0.71423653239E+02 -0.20249168182E+03  0.24855773804E+03  0.12509000000E+03 0.  0.
         25    1    4    4    0    0 -0.41332038080E+02  0.71440813648E+01 -0.12432337719E+03  0.18128206057E+03  0.12509000000E+03 0.  0.
         25    1    3    3    0    0  0.46737738113E+02 -0.78567734604E+02 -0.46262096330E+03  0.48787597693E+03  0.12509000000E+03 0.  0.
<mgrwt>
<rscale>  2 0.46796689E+03</rscale>
<asrwt>0</asrwt>
<pdfrwt beam="1">  1       21 0.94323364E-02 0.46796689E+03</pdfrwt>
<pdfrwt beam="2">  1       21 0.12552585E+00 0.46796689E+03</pdfrwt>
<totfact> 0.38425432E+04</totfact>
</mgrwt>
</event>
<event>
 7    0  0.4784406E-002  0.4560670E+03  0.7546771E-02  0.1025928E+00
         21   -1    0    0  502  501  0.00000000000E+00  0.00000000000E+00  0.38955487099E+02  0.38955487099E+02  0.00000000000E+00 0. -1.
         21   -1    0    0  501  502 -0.00000000000E+00 -0.00000000000E+00 -0.13348385346E+04  0.13348385346E+04  0.00000000000E+00 0. -1.
      99926    2    1    2    0    0 -0.14210854715E-13  0.17763568394E-14 -0.12958830475E+04  0.13737940217E+04  0.45606703593E+03 0.  0.
      99925    2    3    3    0    0 -0.86596145689E+02  0.10936466168E+02 -0.10360907003E+04  0.10725332203E+04  0.26310657631E+03 0.  0.
         25    1    3    3    0    0  0.86596145689E+02 -0.10936466168E+02 -0.25979234719E+03  0.30126080146E+03  0.12509000000E+03 0.  0.
         25    1    4    4    0    0 -0.41605262984E+02  0.11700022068E+02 -0.67257739976E+03  0.68547483921E+03  0.12509000000E+03 0.  0.
         25    1    4    4    0    0 -0.44990882705E+02 -0.76355590030E+00 -0.36351330059E+03  0.38705838106E+03  0.12509000000E+03 0.  0.
<mgrwt>
<rscale>  2 0.45606704E+03</rscale>
<asrwt>0</asrwt>
<pdfrwt beam="1">  1       21 0.57287487E-02 0.45606704E+03</pdfrwt>
<pdfrwt beam="2">  1       21 0.19629976E+00 0.45606704E+03</pdfrwt>
<totfact> 0.26815724E+04</totfact>
</mgrwt>
</event>
<event>
 7    0  0.4784406E-002  0.4573757E+03  0.7546771E-02  0.1025545E+00
         21   -1    0    0  502  501  0.00000000000E+00  0.00000000000E+00  0.36369458265E+02  0.36369458265E+02  0.00000000000E+00 0.  1.
         21   -1    0    0  501  502 -0.00000000000E+00 -0.00000000000E+00 -0.14379685328E+04  0.14379685328E+04  0.00000000000E+00 0.  1.
      99926    2    1    2    0    0  0.00000000000E+00 -0.14210854715E-13 -0.14015990745E+04  0.14743379911E+04  0.45737571663E+03 0.  0.
      99925    2    3    3    0    0  0.77364343320E+02 -0.80423690469E+02 -0.78658460832E+03  0.83688719817E+03  0.26308102328E+03 0.  0.
         25    1    4    4    0    0  0.57030069214E+02 -0.41211688002E+02 -0.51515252164E+03  0.53477140974E+03  0.12509000000E+03 0.  0.
         25    1    3    3    0    0 -0.77364343320E+02  0.80423690469E+02 -0.61501446621E+03  0.63745079289E+03  0.12509000000E+03 0.  0.
         25    1    4    4    0    0  0.20334274107E+02 -0.39212002467E+02 -0.27143208668E+03  0.30211578843E+03  0.12509000000E+03 0.  0.
<mgrwt>
<rscale>  2 0.45737572E+03</rscale>
<asrwt>0</asrwt>
<pdfrwt beam="1">  1       21 0.53484500E-02 0.45737572E+03</pdfrwt>
<pdfrwt beam="2">  1       21 0.21146595E+00 0.45737572E+03</pdfrwt>
<totfact> 0.23969708E+04</totfact>
</mgrwt>
</event>
<event>
 7    0  0.4784406E-002  0.4552504E+03  0.7546771E-02  0.1026168E+00
         21   -1    0    0  502  501  0.00000000000E+00  0.00000000000E+00  0.15109140658E+03  0.15109140658E+03  0.00000000000E+00 0. -1.
         21   -1    0    0  501  502 -0.00000000000E+00 -0.00000000000E+00 -0.34292633116E+03  0.34292633116E+03  0.00000000000E+00 0. -1.
      99926    2    1    2    0    0  0.00000000000E+00  0.14210854715E-13 -0.19183492458E+03  0.49401773774E+03  0.45525035630E+03 0.  0.
      99925    2    3    3    0    0 -0.90947889646E+02 -0.67419698646E+02 -0.12790347513E+03  0.31359691653E+03  0.26299580360E+03 0.  0.
         25    1    3    3    0    0  0.90947889646E+02  0.67419698646E+02 -0.63931449456E+02  0.18042082121E+03  0.12509000000E+03 0.  0.
         25    1    4    4    0    0 -0.45201585236E+02  0.75405858512E+01 -0.66374208131E+02  0.14883913245E+03  0.12509000000E+03 0.  0.
         25    1    4    4    0    0 -0.45746304410E+02 -0.74960284497E+02 -0.61529266996E+02  0.16475778408E+03  0.12509000000E+03 0.  0.
<mgrwt>
<rscale>  2 0.45525036E+03</rscale>
<asrwt>0</asrwt>
<pdfrwt beam="1">  1       21 0.22219325E-01 0.45525036E+03</pdfrwt>
<pdfrwt beam="2">  1       21 0.50430342E-01 0.45525036E+03</pdfrwt>
<totfact> 0.65562603E+04</totfact>
</mgrwt>
</event>
<event>
 7    0  0.4784406E-002  0.4429771E+03  0.7546771E-02  0.1029837E+00
         21   -1    0    0  502  501  0.00000000000E+00  0.00000000000E+00  0.16030349533E+03  0.16030349533E+03  0.00000000000E+00 0.  1.
         21   -1    0    0  501  502 -0.00000000000E+00 -0.00000000000E+00 -0.30602693504E+03  0.30602693504E+03  0.00000000000E+00 0.  1.
      99926    2    1    2    0    0  0.00000000000E+00  0.71054273576E-14 -0.14572343972E+03  0.46633043037E+03  0.44297714321E+03 0.  0.
      99925    2    3    3    0    0 -0.32199373316E+02  0.51928660918E+02 -0.17814734468E+03  0.32338917257E+03  0.26288913072E+03 0.  0.
         25    1    3    3    0    0  0.32199373316E+02 -0.51928660918E+02  0.32423904968E+02  0.14294125780E+03  0.12509000000E+03 0.  0.
         25    1    4    4    0    0 -0.12030592808E+02  0.49801401974E+01 -0.44690161120E+02  0.13347005492E+03  0.12509000000E+03 0.  0.
         25    1    4    4    0    0 -0.20168780508E+02  0.46948520721E+02 -0.13345718356E+03  0.18991911765E+03  0.12509000000E+03 0.  0.
<mgrwt>
<rscale>  2 0.44297714E+03</rscale>
<asrwt>0</asrwt>
<pdfrwt beam="1">  1       21 0.23574044E-01 0.44297714E+03</pdfrwt>
<pdfrwt beam="2">  1       21 0.45003961E-01 0.44297714E+03</pdfrwt>
<totfact> 0.74574061E+04</totfact>
</mgrwt>
</event>
<event>
 7    0  0.4784406E-002  0.4502226E+03  0.7546771E-02  0.1027656E+00
         21   -1    0    0  502  501  0.00000000000E+00  0.00000000000E+00  0.16497259276E+03  0.16497259276E+03  0.00000000000E+00 0.  1.
         21   -1    0    0  501  502 -0.00000000000E+00 -0.00000000000E+00 -0.30717276378E+03  0.30717276378E+03  0.00000000000E+00 0.  1.
      99926    2    1    2    0    0  0.00000000000E+00  0.00000000000E+00 -0.14220017102E+03  0.47214535654E+03  0.45022255503E+03 0.  0.
      99925    2    3    3    0    0  0.89732622574E+02  0.24814222424E+02 -0.14919056994E+03  0.31605543705E+03  0.26261287848E+03 0.  0.
         25    1    4    4    0    0  0.36005998689E+02  0.23931858527E+01 -0.11547169090E+03  0.17402120210E+03  0.12509000000E+03 0.  0.
         25    1    3    3    0    0 -0.89732622574E+02 -0.24814222424E+02  0.69903989125E+01  0.15608991949E+03  0.12509000000E+03 0.  0.
         25    1    4    4    0    0  0.53726623885E+02  0.22421036571E+02 -0.33718879039E+02  0.14203423495E+03  0.12509000000E+03 0.  0.
<mgrwt>
<rscale>  2 0.45022256E+03</rscale>
<asrwt>0</asrwt>
<pdfrwt beam="1">  1       21 0.24260676E-01 0.45022256E+03</pdfrwt>
<pdfrwt beam="2">  1       21 0.45172465E-01 0.45022256E+03</pdfrwt>
<totfact> 0.69888800E+04</totfact>
</mgrwt>
</event>
<event>
 7    0  0.4784406E-002  0.4542334E+03  0.7546771E-02  0.1026467E+00
         21   -1    0    0  502  501  0.00000000000E+00  0.00000000000E+00  0.22784668381E+03  0.22784668381E+03  0.00000000000E+00 0. -1.
         21   -1    0    0  501  502 -0.00000000000E+00 -0.00000000000E+00 -0.22638907928E+03  0.22638907928E+03  0.00000000000E+00 0. -1.
      99926    2    1    2    0    0  0.00000000000E+00  0.00000000000E+00  0.14576045273E+01  0.45423576309E+03  0.45423342442E+03 0.  0.
      99925    2    3    3    0    0 -0.94019353746E+00 -0.18250880954E+02  0.11190723467E+03  0.28636495706E+03  0.26295946615E+03 0.  0.
         25    1    4    4    0    0  0.18885639278E+01  0.27902170375E+02  0.72693636517E+02  0.14735661056E+03  0.12509000000E+03 0.  0.
         25    1    4    4    0    0 -0.28287574652E+01 -0.46153051329E+02  0.39213598158E+02  0.13900834650E+03  0.12509000000E+03 0.  0.
         25    1    3    3    0    0  0.94019353746E+00  0.18250880954E+02 -0.11044963015E+03  0.16787080604E+03  0.12509000000E+03 0.  0.
<mgrwt>
<rscale>  2 0.45423342E+03</rscale>
<asrwt>0</asrwt>
<pdfrwt beam="1">  1       21 0.33506865E-01 0.45423342E+03</pdfrwt>
<pdfrwt beam="2">  1       21 0.33292511E-01 0.45423342E+03</pdfrwt>
<totfact> 0.69023026E+04</totfact>
</mgrwt>
</event>
<event>
 7    0  0.4784406E-002  0.4468242E+03  0.7546771E-02  0.1028673E+00
         21   -1    0    0  502  501  0.00000000000E+00  0.00000000000E+00  0.30803680130E+03  0.30803680130E+03  0.00000000000E+00 0. -1.
         21   -1    0    0  501  502 -0.00000000000E+00 -0.00000000000E+00 -0.16203570669E+03  0.16203570669E+03  0.00000000000E+00 0. -1.
      99926    2    1    2    0    0  0.14210854715E-13  0.00000000000E+00  0.14600109460E+03  0.47007250799E+03  0.44682417475E+03 0.  0.
      99925    2    3    3    0    0 -0.49305376246E+02  0.34380332884E+02  0.18350495501E+03  0.32631202989E+03  0.26304456832E+03 0.  0.
         25    1    4    4    0    0 -0.61307208534E+02  0.36785376737E+02  0.10134383609E+03  0.17615282846E+03  0.12509000000E+03 0.  0.
         25    1    3    3    0    0  0.49305376246E+02 -0.34380332884E+02 -0.37503860406E+02  0.14376047809E+03  0.12509000000E+03 0.  0.
         25    1    4    4    0    0  0.12001832287E+02 -0.24050438537E+01  0.82161118921E+02  0.15015920144E+03  0.12509000000E+03 0.  0.
<mgrwt>
<rscale>  2 0.44682417E+03</rscale>
<asrwt>0</asrwt>
<pdfrwt beam="1">  1       21 0.45299529E-01 0.44682417E+03</pdfrwt>
<pdfrwt beam="2">  1       21 0.23828780E-01 0.44682417E+03</pdfrwt>
<totfact> 0.71988726E+04</totfact>
</mgrwt>
</event>
<event>
 7    0  0.4784406E-002  0.4588914E+03  0.7546771E-02  0.1025103E+00
         21   -1    0    0  502  501  0.00000000000E+00  0.00000000000E+00  0.53083859775E+02  0.53083859775E+02  0.00000000000E+00 0. -1.
         21   -1    0    0  501  502 -0.00000000000E+00 -0.00000000000E+00 -0.99173889933E+03  0.99173889933E+03  0.00000000000E+00 0. -1.
      99926    2    1    2    0    0 -0.14210854715E-13  0.00000000000E+00 -0.93865503956E+03  0.10448227591E+04  0.45889139746E+03 0.  0.
      99925    2    3    3    0    0  0.10233405644E+03 -0.15999317697E+02 -0.71207614219E+03  0.76605091314E+03  0.26278000678E+03 0.  0.
         25    1    4    4    0    0  0.93193507183E+02 -0.12278467287E+02 -0.37225148602E+03  0.40380003403E+03  0.12509000000E+03 0.  0.
         25    1    4    4    0    0  0.91405492613E+01 -0.37208504094E+01 -0.33982465618E+03  0.36225087911E+03  0.12509000000E+03 0.  0.
         25    1    3    3    0    0 -0.10233405644E+03  0.15999317697E+02 -0.22657889736E+03  0.27877184597E+03  0.12509000000E+03 0.  0.
<mgrwt>
<rscale>  2 0.45889140E+03</rscale>
<asrwt>0</asrwt>
<pdfrwt beam="1">  1       21 0.78064504E-02 0.45889140E+03</pdfrwt>
<pdfrwt beam="2">  1       21 0.14584395E+00 0.45889140E+03</pdfrwt>
<totfact> 0.36351147E+04</totfact>
</mgrwt>
</event>
<event>
 7    0  0.4784406E-002  0.4603029E+03  0.7546771E-02  0.1024693E+00
         21   -1    0    0  502  501  0.00000000000E+00  0.00000000000E+00  0.47455647323E+03  0.47455647323E+03  0.00000000000E+00 0. -1.
         21   -1    0    0  501  502 -0.00000000000E+00 -0.00000000000E+00 -0.11161934224E+03  0.11161934224E+03  0.00000000000E+00 0. -1.
      99926    2    1    2    0    0  0.00000000000E+00  0.00000000000E+00  0.36293713099E+03  0.58617581547E+03  0.46030286290E+03 0.  0.
      99925    2    3    3    0    0  0.11057002191E+03 -0.41430800363E+02  0.23032438739E+03  0.36897570307E+03  0.26296673756E+03 0.  0.
         25    1    4    4    0    0  0.98058974321E+02 -0.23341849580E+02  0.11673196239E+03  0.19858062224E+03  0.12509000000E+03 0.  0.
         25    1    3    3    0    0 -0.11057002191E+03  0.41430800363E+02  0.13261274360E+03  0.21720011240E+03  0.12509000000E+03 0.  0.
         25    1    4    4    0    0  0.12511047586E+02 -0.18088950783E+02  0.11359242500E+03  0.17039508083E+03  0.12509000000E+03 0.  0.
<mgrwt>
<rscale>  2 0.46030286E+03</rscale>
<asrwt>0</asrwt>
<pdfrwt beam="1">  1       21 0.69787716E-01 0.46030286E+03</pdfrwt>
<pdfrwt beam="2">  1       21 0.16414609E-01 0.46030286E+03</pdfrwt>
<totfact> 0.57105763E+04</totfact>
</mgrwt>
</event>
<event>
 7    0  0.4784406E-002  0.4573875E+03  0.7546771E-02  0.1025542E+00
         21   -1    0    0  502  501  0.00000000000E+00  0.00000000000E+00  0.37108149686E+03  0.37108149686E+03  0.00000000000E+00 0. -1.
         21   -1    0    0  501  502 -0.00000000000E+00 -0.00000000000E+00 -0.14094162714E+03  0.14094162714E+03  0.00000000000E+00 0. -1.
      99926    2    1    2    0    0  0.00000000000E+00  0.00000000000E+00  0.23013986973E+03  0.51202312400E+03  0.45738749423E+03 0.  0.
      99925    2    3    3    0    0  0.10494747465E+03 -0.11981408071E+02  0.19588395770E+03  0.34475536804E+03  0.26330251107E+03 0.  0.
         25    1    4    4    0    0  0.51876339545E+02 -0.29518878895E+02  0.57603727096E+02  0.15009402484E+03  0.12509000000E+03 0.  0.
         25    1    4    4    0    0  0.53071135106E+02  0.17537470824E+02  0.13828023060E+03  0.19466134321E+03  0.12509000000E+03 0.  0.
         25    1    3    3    0    0 -0.10494747465E+03  0.11981408071E+02  0.34255912028E+02  0.16726775596E+03  0.12509000000E+03 0.  0.
<mgrwt>
<rscale>  2 0.45738749E+03</rscale>
<asrwt>0</asrwt>
<pdfrwt beam="1">  1       21 0.54570808E-01 0.45738749E+03</pdfrwt>
<pdfrwt beam="2">  1       21 0.20726710E-01 0.45738749E+03</pdfrwt>
<totfact> 0.63227465E+04</totfact>
</mgrwt>
</event>
<event>
 7    0  0.4784406E-002  0.4558548E+03  0.7546771E-02  0.1025990E+00
         21   -1    0    0  502  501  0.00000000000E+00  0.00000000000E+00  0.37416453487E+03  0.37416453487E+03  0.00000000000E+00 0.  1.
         21   -1    0    0  501  502 -0.00000000000E+00 -0.00000000000E+00 -0.13884504549E+03  0.13884504549E+03  0.00000000000E+00 0.  1.
      99926    2    1    2    0    0  0.00000000000E+00  0.71054273576E-14  0.23531948938E+03  0.51300958036E+03  0.45585476576E+03 0.  0.
      99925    2    3    3    0    0 -0.90344011803E+02 -0.42743050924E+02  0.86519512108E+02  0.29442790179E+03  0.26308393054E+03 0.  0.
         25    1    4    4    0    0 -0.52759206818E+02  0.24534981051E+00  0.78054744794E+01  0.13598539492E+03  0.12509000000E+03 0.  0.
         25    1    4    4    0    0 -0.37584804985E+02 -0.42988400735E+02  0.78714037629E+02  0.15844250687E+03  0.12509000000E+03 0.  0.
         25    1    3    3    0    0  0.90344011803E+02  0.42743050924E+02  0.14879997727E+03  0.21858167857E+03  0.12509000000E+03 0.  0.
<mgrwt>
<rscale>  2 0.45585477E+03</rscale>
<asrwt>0</asrwt>
<pdfrwt beam="1">  1       21 0.55024196E-01 0.45585477E+03</pdfrwt>
<pdfrwt beam="2">  1       21 0.20418389E-01 0.45585477E+03</pdfrwt>
<totfact> 0.63931267E+04</totfact>
</mgrwt>
</event>
<event>
 7    0  0.4784406E-002  0.4562259E+03  0.7546771E-02  0.1025882E+00
         21   -1    0    0  502  501  0.00000000000E+00  0.00000000000E+00  0.18394614074E+03  0.18394614074E+03  0.00000000000E+00 0.  1.
         21   -1    0    0  501  502 -0.00000000000E+00 -0.00000000000E+00 -0.28288447244E+03  0.28288447244E+03  0.00000000000E+00 0.  1.
      99926    2    1    2    0    0  0.00000000000E+00  0.00000000000E+00 -0.98938331701E+02  0.46683061317E+03  0.45622585187E+03 0.  0.
      99925    2    3    3    0    0 -0.10076709277E+03  0.15540057901E+02 -0.11496678343E+03  0.30465811319E+03  0.26306596940E+03 0.  0.
         25    1    4    4    0    0 -0.58446731232E+02  0.47908130222E+02 -0.57610818683E+02  0.15709145063E+03  0.12509000000E+03 0.  0.
         25    1    3    3    0    0  0.10076709277E+03 -0.15540057901E+02  0.16028451729E+02  0.16217249998E+03  0.12509000000E+03 0.  0.
         25    1    4    4    0    0 -0.42320361538E+02 -0.32368072321E+02 -0.57355964747E+02  0.14756666256E+03  0.12509000000E+03 0.  0.
<mgrwt>
<rscale>  2 0.45622585E+03</rscale>
<asrwt>0</asrwt>
<pdfrwt beam="1">  1       21 0.27050903E-01 0.45622585E+03</pdfrwt>
<pdfrwt beam="2">  1       21 0.41600657E-01 0.45622585E+03</pdfrwt>
<totfact> 0.67018656E+04</totfact>
</mgrwt>
</event>
<event>
 7    0  0.4784406E-002  0.4599772E+03  0.7546771E-02  0.1024788E+00
         21   -1    0    0  502  501  0.00000000000E+00  0.00000000000E+00  0.90882158954E+03  0.90882158954E+03  0.00000000000E+00 0. -1.
         21   -1    0    0  501  502 -0.00000000000E+00 -0.00000000000E+00 -0.58201472259E+02  0.58201472259E+02  0.00000000000E+00 0. -1.
      99926    2    1    2    0    0  0.00000000000E+00  0.00000000000E+00  0.85062011728E+03  0.96702306180E+03  0.45997719305E+03 0.  0.
      99925    2    3    3    0    0 -0.34623314922E+02  0.10327190565E+03  0.43890853422E+03  0.52315619420E+03  0.26303581824E+03 0.  0.
         25    1    3    3    0    0  0.34623314922E+02 -0.10327190565E+03  0.41171158306E+03  0.44386686760E+03  0.12509000000E+03 0.  0.
         25    1    4    4    0    0  0.21823085349E+02  0.47372819508E+02  0.23143766204E+03  0.26820016889E+03  0.12509000000E+03 0.  0.
         25    1    4    4    0    0 -0.56446400271E+02  0.55899086140E+02  0.20747087218E+03  0.25495602530E+03  0.12509000000E+03 0.  0.
<mgrwt>
<rscale>  2 0.45997719E+03</rscale>
<asrwt>0</asrwt>
<pdfrwt beam="1">  1       21 0.13365023E+00 0.45997719E+03</pdfrwt>
<pdfrwt beam="2">  1       21 0.85590406E-02 0.45997719E+03</pdfrwt>
<totfact> 0.38922288E+04</totfact>
</mgrwt>
</event>
<event>
 7    0  0.4784406E-002  0.4220181E+03  0.7546771E-02  0.1036411E+00
         21   -1    0    0  502  501  0.00000000000E+00  0.00000000000E+00  0.22878606910E+02  0.22878606910E+02  0.00000000000E+00 0. -1.
         21   -1    0    0  501  502 -0.00000000000E+00 -0.00000000000E+00 -0.19461334444E+04  0.19461334444E+04  0.00000000000E+00 0. -1.
      99926    2    1    2    0    0  0.00000000000E+00  0.00000000000E+00 -0.19232548375E+04  0.19690120513E+04  0.42201811368E+03 0.  0.
      99925    2    3    3    0    0  0.32791427093E+02 -0.69636792124E+02 -0.13188880201E+04  0.13470544011E+04  0.26299313610E+03 0.  0.
         25    1    4    4    0    0 -0.21727723450E+02 -0.36864009348E+02 -0.70995870983E+03  0.72216336581E+03  0.12509000000E+03 0.  0.
         25    1    3    3    0    0 -0.32791427093E+02  0.69636792124E+02 -0.60436681744E+03  0.62195765019E+03  0.12509000000E+03 0.  0.
         25    1    4    4    0    0  0.54519150544E+02 -0.32772782776E+02 -0.60892931024E+03  0.62489103533E+03  0.12509000000E+03 0.  0.
<mgrwt>
<rscale>  2 0.42201811E+03</rscale>
<asrwt>0</asrwt>
<pdfrwt beam="1">  1       21 0.33645011E-02 0.42201811E+03</pdfrwt>
<pdfrwt beam="2">  1       21 0.28619609E+00 0.42201811E+03</pdfrwt>
<totfact> 0.18532344E+04</totfact>
</mgrwt>
</event>
<event>
 7    0  0.4784406E-002  0.4528470E+03  0.7546771E-02  0.1026876E+00
         21   -1    0    0  502  501  0.00000000000E+00  0.00000000000E+00  0.11415972510E+03  0.11415972510E+03  0.00000000000E+00 0.  1.
         21   -1    0    0  501  502 -0.00000000000E+00 -0.00000000000E+00 -0.44908667817E+03  0.44908667817E+03  0.00000000000E+00 0.  1.
      99926    2    1    2    0    0  0.00000000000E+00  0.17763568394E-14 -0.33492695307E+03  0.56324640327E+03  0.45284704582E+03 0.  0.
      99925    2    3    3    0    0  0.10162111896E+03  0.32499591420E+01 -0.15553797206E+03  0.32207151100E+03  0.26306003763E+03 0.  0.
         25    1    4    4    0    0  0.77589227389E+02  0.16158992659E+02 -0.50467726915E+02  0.15644711826E+03  0.12509000000E+03 0.  0.
         25    1    3    3    0    0 -0.10162111896E+03 -0.32499591420E+01 -0.17938898101E+03  0.24117489227E+03  0.12509000000E+03 0.  0.
         25    1    4    4    0    0  0.24031891567E+02 -0.12909033516E+02 -0.10507024514E+03  0.16562439275E+03  0.12509000000E+03 0.  0.
<mgrwt>
<rscale>  2 0.45284705E+03</rscale>
<asrwt>0</asrwt>
<pdfrwt beam="1">  1       21 0.16788195E-01 0.45284705E+03</pdfrwt>
<pdfrwt beam="2">  1       21 0.66042159E-01 0.45284705E+03</pdfrwt>
<totfact> 0.62049427E+04</totfact>
</mgrwt>
</event>
<event>
 7    0  0.4784406E-002  0.4519485E+03  0.7546771E-02  0.1027143E+00
         21   -1    0    0  502  501  0.00000000000E+00  0.00000000000E+00  0.32810870138E+03  0.32810870138E+03  0.00000000000E+00 0.  1.
         21   -1    0    0  501  502 -0.00000000000E+00 -0.00000000000E+00 -0.15563248237E+03  0.15563248237E+03  0.00000000000E+00 0.  1.
      99926    2    1    2    0    0  0.17763568394E-14 -0.71054273576E-14  0.17247621901E+03  0.48374118376E+03  0.45194854435E+03 0.  0.
      99925    2    3    3    0    0 -0.13085518311E+02  0.44879959550E+02  0.21550535445E+03  0.34343987886E+03  0.26329251991E+03 0.  0.
         25    1    3    3    0    0  0.13085518311E+02 -0.44879959550E+02 -0.43029135438E+02  0.14030130489E+03  0.12509000000E+03 0.  0.
         25    1    4    4    0    0 -0.20194435162E+02 -0.10206795294E+02  0.76504186994E+02  0.14836573934E+03  0.12509000000E+03 0.  0.
         25    1    4    4    0    0  0.71089168502E+01  0.55086754844E+02  0.13900116745E+03  0.19507413952E+03  0.12509000000E+03 0.  0.
<mgrwt>
<rscale>  2 0.45194854E+03</rscale>
<asrwt>0</asrwt>
<pdfrwt beam="1">  1       21 0.48251280E-01 0.45194854E+03</pdfrwt>
<pdfrwt beam="2">  1       21 0.22887130E-01 0.45194854E+03</pdfrwt>
<totfact> 0.68062612E+04</totfact>
</mgrwt>
</event>
<event>
 7    0  0.4784406E-002  0.4510898E+03  0.7546771E-02  0.1027398E+00
         21   -1    0    0  502  501  0.00000000000E+00  0.00000000000E+00  0.37297608124E+02  0.37297608124E+02  0.00000000000E+00 0.  1.
         21   -1    0    0  501  502 -0.00000000000E+00 -0.00000000000E+00 -0.13639079832E+04  0.13639079832E+04  0.00000000000E+00 0.  1.
      99926    2    1    2    0    0 -0.35527136788E-14  0.00000000000E+00 -0.13266103751E+04  0.14012055913E+04  0.45108981578E+03 0.  0.
      99925    2    3    3    0    0  0.17388184240E+02 -0.74257880380E+02 -0.59400573137E+03  0.65409538939E+03  0.26302354985E+03 0.  0.
         25    1    3    3    0    0 -0.17388184240E+02  0.74257880380E+02 -0.73260464371E+03  0.74711020194E+03  0.12509000000E+03 0.  0.
         25    1    4    4    0    0  0.26356091442E+02 -0.35002851512E+02 -0.38534428065E+03  0.40750161460E+03  0.12509000000E+03 0.  0.
         25    1    4    4    0    0 -0.89679072011E+01 -0.39255028868E+02 -0.20866145072E+03  0.24659377479E+03  0.12509000000E+03 0.  0.
<mgrwt>
<rscale>  2 0.45108982E+03</rscale>
<asrwt>0</asrwt>
<pdfrwt beam="1">  1       21 0.54849409E-02 0.45108982E+03</pdfrwt>
<pdfrwt beam="2">  1       21 0.20057476E+00 0.45108982E+03</pdfrwt>
<totfact> 0.27114490E+04</totfact>
</mgrwt>
</event>
<event>
 7    0  0.4784406E-002  0.4545317E+03  0.7546771E-02  0.1026379E+00
         21   -1    0    0  502  501  0.00000000000E+00  0.00000000000E+00  0.11276137083E+04  0.11276137083E+04  0.00000000000E+00 0. -1.
         21   -1    0    0  501  502 -0.00000000000E+00 -0.00000000000E+00 -0.45804494721E+02  0.45804494721E+02  0.00000000000E+00 0. -1.
      99926    2    1    2    0    0  0.00000000000E+00 -0.71054273576E-14  0.10818092136E+04  0.11734182030E+04  0.45453174212E+03 0.  0.
      99925    2    3    3    0    0  0.85304329692E+02  0.44486916476E+02  0.83172230379E+03  0.87770400832E+03  0.26333708663E+03 0.  0.
         25    1    4    4    0    0  0.42105637969E+02  0.63604009451E+02  0.42118406891E+03  0.44593932633E+03  0.12509000000E+03 0.  0.
         25    1    4    4    0    0  0.43198691723E+02 -0.19117092975E+02  0.41053823488E+03  0.43176468199E+03  0.12509000000E+03 0.  0.
         25    1    3    3    0    0 -0.85304329692E+02 -0.44486916476E+02  0.25008690979E+03  0.29571419470E+03  0.12509000000E+03 0.  0.
<mgrwt>
<rscale>  2 0.45453174E+03</rscale>
<asrwt>0</asrwt>
<pdfrwt beam="1">  1       21 0.16582553E+00 0.45453174E+03</pdfrwt>
<pdfrwt beam="2">  1       21 0.67359558E-02 0.45453174E+03</pdfrwt>
<totfact> 0.33130752E+04</totfact>
</mgrwt>
</event>
<event>
 7    0  0.4784406E-002  0.4509686E+03  0.7546771E-02  0.1027434E+00
         21   -1    0    0  502  501  0.00000000000E+00  0.00000000000E+00  0.20565983095E+03  0.20565983095E+03  0.00000000000E+00 0.  1.
         21   -1    0    0  501  502 -0.00000000000E+00 -0.00000000000E+00 -0.24721977691E+03  0.24721977691E+03  0.00000000000E+00 0.  1.
      99926    2    1    2    0    0  0.14210854715E-13  0.71054273576E-14 -0.41559945965E+02  0.45287960786E+03  0.45096863539E+03 0.  0.
      99925    2    3    3    0    0  0.93656620795E+02  0.53653967902E+02 -0.41530239794E+02  0.28765908894E+03  0.26338693920E+03 0.  0.
         25    1    4    4    0    0  0.19319136863E+02 -0.72182646813E+01 -0.22925688209E+02  0.12883488531E+03  0.12509000000E+03 0.  0.
         25    1    4    4    0    0  0.74337483932E+02  0.60872232583E+02 -0.18604551585E+02  0.15882420362E+03  0.12509000000E+03 0.  0.
         25    1    3    3    0    0 -0.93656620795E+02 -0.53653967902E+02 -0.29706171131E-01  0.16522051892E+03  0.12509000000E+03 0.  0.
<mgrwt>
<rscale>  2 0.45096864E+03</rscale>
<asrwt>0</asrwt>
<pdfrwt beam="1">  1       21 0.30244093E-01 0.45096864E+03</pdfrwt>
<pdfrwt beam="2">  1       21 0.36355850E-01 0.45096864E+03</pdfrwt>
<totfact> 0.70956398E+04</totfact>
</mgrwt>
</event>
<event>
 7    0  0.4784406E-002  0.4566328E+03  0.7546771E-02  0.1025762E+00
         21   -1    0    0  502  501  0.00000000000E+00  0.00000000000E+00  0.10383606068E+03  0.10383606068E+03  0.00000000000E+00 0. -1.
         21   -1    0    0  501  502 -0.00000000000E+00 -0.00000000000E+00 -0.50202573968E+03  0.50202573968E+03  0.00000000000E+00 0. -1.
      99926    2    1    2    0    0  0.00000000000E+00  0.00000000000E+00 -0.39818967900E+03  0.60586180036E+03  0.45663278538E+03 0.  0.
      99925    2    3    3    0    0 -0.71443754658E+02 -0.21905369494E+02 -0.13465781036E+03  0.30472958824E+03  0.26295121366E+03 0.  0.
         25    1    4    4    0    0 -0.58078821982E+02  0.22618846444E+02 -0.63726761019E+02  0.15360133446E+03  0.12509000000E+03 0.  0.
         25    1    4    4    0    0 -0.13364932676E+02 -0.44524215938E+02 -0.70931049345E+02  0.15112825378E+03  0.12509000000E+03 0.  0.
         25    1    3    3    0    0  0.71443754658E+02  0.21905369494E+02 -0.26353186863E+03  0.30113221212E+03  0.12509000000E+03 0.  0.
<mgrwt>
<rscale>  2 0.45663279E+03</rscale>
<asrwt>0</asrwt>
<pdfrwt beam="1">  1       21 0.15270009E-01 0.45663279E+03</pdfrwt>
<pdfrwt beam="2">  1       21 0.73827314E-01 0.45663279E+03</pdfrwt>
<totfact> 0.57572674E+04</totfact>
</mgrwt>
</event>
<event>
 7    0  0.4784406E-002  0.4630264E+03  0.7546771E-02  0.1023907E+00
         21   -1    0    0  502  501  0.00000000000E+00  0.00000000000E+00  0.68639508201E+02  0.68639508201E+02  0.00000000000E+00 0.  1.
         21   -1    0    0  501  502 -0.00000000000E+00 -0.00000000000E+00 -0.78086738793E+03  0.78086738793E+03  0.00000000000E+00 0.  1.
      99926    2    1    2    0    0  0.00000000000E+00  0.00000000000E+00 -0.71222787973E+03  0.84950689613E+03  0.46302636416E+03 0.  0.
      99925    2    3    3    0    0  0.11348673412E+03  0.20757535438E+02 -0.50945664886E+03  0.58479234371E+03  0.26291803683E+03 0.  0.
         25    1    4    4    0    0  0.76733898474E+02  0.99544486082E+01 -0.19536711206E+03  0.24454651663E+03  0.12509000000E+03 0.  0.
         25    1    3    3    0    0 -0.11348673412E+03 -0.20757535438E+02 -0.20277123087E+03  0.26471455243E+03  0.12509000000E+03 0.  0.
         25    1    4    4    0    0  0.36752835643E+02  0.10803086829E+02 -0.31408953680E+03  0.34024582708E+03  0.12509000000E+03 0.  0.
<mgrwt>
<rscale>  2 0.46302636E+03</rscale>
<asrwt>0</asrwt>
<pdfrwt beam="1">  1       21 0.10094046E-01 0.46302636E+03</pdfrwt>
<pdfrwt beam="2">  1       21 0.11483344E+00 0.46302636E+03</pdfrwt>
<totfact> 0.42708152E+04</totfact>
</mgrwt>
</event>
<event>
 7    0  0.4784406E-002  0.4477852E+03  0.7546771E-02  0.1028385E+00
         21   -1    0    0  502  501  0.00000000000E+00  0.00000000000E+00  0.60152565035E+02  0.60152565035E+02  0.00000000000E+00 0.  1.
         21   -1    0    0  501  502 -0.00000000000E+00 -0.00000000000E+00 -0.83334596221E+03  0.83334596221E+03  0.00000000000E+00 0.  1.
      99926    2    1    2    0    0  0.00000000000E+00 -0.35527136788E-14 -0.77319339718E+03  0.89349852725E+03  0.44778520381E+03 0.  0.
      99925    2    3    3    0    0  0.94339562261E+02 -0.19202401352E+02 -0.57976488089E+03  0.64383718815E+03  0.26292645837E+03 0.  0.
         25    1    4    4    0    0  0.86075783561E+02 -0.17323751965E+02 -0.35431550182E+03  0.38587062058E+03  0.12509000000E+03 0.  0.
         25    1    4    4    0    0  0.82637786999E+01 -0.18786493867E+01 -0.22544937907E+03  0.25796656757E+03  0.12509000000E+03 0.  0.
         25    1    3    3    0    0 -0.94339562261E+02  0.19202401352E+02 -0.19342851629E+03  0.24966133910E+03  0.12509000000E+03 0.  0.
<mgrwt>
<rscale>  2 0.44778520E+03</rscale>
<asrwt>0</asrwt>
<pdfrwt beam="1">  1       21 0.88459650E-02 0.44778520E+03</pdfrwt>
<pdfrwt beam="2">  1       21 0.12255088E+00 0.44778520E+03</pdfrwt>
<totfact> 0.46063329E+04</totfact>
</mgrwt>
</event>
<event>
 7    0  0.4784406E-002  0.4548661E+03  0.7546771E-02  0.1026281E+00
         21   -1    0    0  502  501  0.00000000000E+00  0.00000000000E+00  0.84327086736E+02  0.84327086736E+02  0.00000000000E+00 0. -1.
         21   -1    0    0  501  502 -0.00000000000E+00 -0.00000000000E+00 -0.61339483617E+03  0.61339483617E+03  0.00000000000E+00 0. -1.
      99926    2    1    2    0    0  0.14210854715E-13  0.00000000000E+00 -0.52906774943E+03  0.69772192291E+03  0.45486613219E+03 0.  0.
      99925    2    3    3    0    0  0.88837778367E+02  0.52305418463E+02 -0.26173757404E+03  0.38508645077E+03  0.26297720288E+03 0.  0.
         25    1    4    4    0    0  0.28566168354E+02  0.42108509524E+02 -0.17501702038E+03  0.22106021368E+03  0.12509000000E+03 0.  0.
         25    1    3    3    0    0 -0.88837778367E+02 -0.52305418463E+02 -0.26733017539E+03  0.31263547214E+03  0.12509000000E+03 0.  0.
         25    1    4    4    0    0  0.60271610013E+02  0.10196908939E+02 -0.86720553660E+02  0.16402623709E+03  0.12509000000E+03 0.  0.
<mgrwt>
<rscale>  2 0.45486613E+03</rscale>
<asrwt>0</asrwt>
<pdfrwt beam="1">  1       21 0.12401043E-01 0.45486613E+03</pdfrwt>
<pdfrwt beam="2">  1       21 0.90205120E-01 0.45486613E+03</pdfrwt>
<totfact> 0.53082731E+04</totfact>
</mgrwt>
</event>
<event>
 7    0  0.4784406E-002  0.4566258E+03  0.7546771E-02  0.1025764E+00
         21   -1    0    0  502  501  0.00000000000E+00  0.00000000000E+00  0.16381261619E+03  0.16381261619E+03  0.00000000000E+00 0. -1.
         21   -1    0    0  501  502 -0.00000000000E+00 -0.00000000000E+00 -0.31820974263E+03  0.31820974263E+03  0.00000000000E+00 0. -1.
      99926    2    1    2    0    0  0.00000000000E+00  0.00000000000E+00 -0.15439712644E+03  0.48202235882E+03  0.45662575678E+03 0.  0.
      99925    2    3    3    0    0 -0.74725301667E+02 -0.39853687739E+02 -0.17861715686E+03  0.32903116591E+03  0.26303085804E+03 0.  0.
         25    1    3    3    0    0  0.74725301667E+02  0.39853687739E+02  0.24220030419E+02  0.15299119291E+03  0.12509000000E+03 0.  0.
         25    1    4    4    0    0 -0.13990314352E+02 -0.87481940249E+01 -0.12258988623E+03  0.17592057327E+03  0.12509000000E+03 0.  0.
         25    1    4    4    0    0 -0.60734987315E+02 -0.31105493714E+02 -0.56027270631E+02  0.15311059264E+03  0.12509000000E+03 0.  0.
<mgrwt>
<rscale>  2 0.45662576E+03</rscale>
<asrwt>0</asrwt>
<pdfrwt beam="1">  1       21 0.24090091E-01 0.45662576E+03</pdfrwt>
<pdfrwt beam="2">  1       21 0.46795550E-01 0.45662576E+03</pdfrwt>
<totfact> 0.65701218E+04</totfact>
</mgrwt>
</event>
<event>
 7    0  0.4784406E-002  0.4552927E+03  0.7546771E-02  0.1026155E+00
         21   -1    0    0  502  501  0.00000000000E+00  0.00000000000E+00  0.74817257914E+02  0.74817257914E+02  0.00000000000E+00 0.  1.
         21   -1    0    0  501  502 -0.00000000000E+00 -0.00000000000E+00 -0.69265908305E+03  0.69265908305E+03  0.00000000000E+00 0.  1.
      99926    2    1    2    0    0  0.14210854715E-13  0.14210854715E-13 -0.61784182514E+03  0.76747634097E+03  0.45529266747E+03 0.  0.
      99925    2    3    3    0    0 -0.75771745899E+02 -0.76419557042E+02 -0.32799606595E+03  0.43395066220E+03  0.26296473485E+03 0.  0.
         25    1    4    4    0    0 -0.59779058593E+02 -0.75356592304E+02 -0.19083920433E+03  0.24762726397E+03  0.12509000000E+03 0.  0.
         25    1    3    3    0    0  0.75771745899E+02  0.76419557042E+02 -0.28984575919E+03  0.33352567876E+03  0.12509000000E+03 0.  0.
         25    1    4    4    0    0 -0.15992687306E+02 -0.10629647385E+01 -0.13715686162E+03  0.18632339824E+03  0.12509000000E+03 0.  0.
<mgrwt>
<rscale>  2 0.45529267E+03</rscale>
<asrwt>0</asrwt>
<pdfrwt beam="1">  1       21 0.11002539E-01 0.45529267E+03</pdfrwt>
<pdfrwt beam="2">  1       21 0.10186162E+00 0.45529267E+03</pdfrwt>
<totfact> 0.49264770E+04</totfact>
</mgrwt>
</event>
<event>
 7    0  0.4784406E-002  0.4551347E+03  0.7546771E-02  0.1026202E+00
         21   -1    0    0  502  501  0.00000000000E+00  0.00000000000E+00  0.36244127318E+03  0.36244127318E+03  0.00000000000E+00 0. -1.
         21   -1    0    0  501  502 -0.00000000000E+00 -0.00000000000E+00 -0.14288357498E+03  0.14288357498E+03  0.00000000000E+00 0. -1.
      99926    2    1    2    0    0  0.00000000000E+00  0.00000000000E+00  0.21955769820E+03  0.50532484815E+03  0.45513472657E+03 0.  0.
      99925    2    3    3    0    0  0.73947229353E+02 -0.79228494867E+02  0.17507019722E+03  0.33394225578E+03  0.26291159942E+03 0.  0.
         25    1    4    4    0    0  0.26149005304E+02 -0.39708808120E+02  0.39979437002E+02  0.13966539802E+03  0.12509000000E+03 0.  0.
         25    1    3    3    0    0 -0.73947229353E+02  0.79228494867E+02  0.44487500973E+02  0.17138259238E+03  0.12509000000E+03 0.  0.
         25    1    4    4    0    0  0.47798224049E+02 -0.39519686747E+02  0.13509076022E+03  0.19427685776E+03  0.12509000000E+03 0.  0.
<mgrwt>
<rscale>  2 0.45513473E+03</rscale>
<asrwt>0</asrwt>
<pdfrwt beam="1">  1       21 0.53300187E-01 0.45513473E+03</pdfrwt>
<pdfrwt beam="2">  1       21 0.21012290E-01 0.45513473E+03</pdfrwt>
<totfact> 0.64828819E+04</totfact>
</mgrwt>
</event>
<event>
 7    0  0.4784406E-002  0.4589675E+03  0.7546771E-02  0.1025081E+00
         21   -1    0    0  502  501  0.00000000000E+00  0.00000000000E+00  0.10196907415E+03  0.10196907415E+03  0.00000000000E+00 0.  1.
         21   -1    0    0  501  502 -0.00000000000E+00 -0.00000000000E+00 -0.51645842186E+03  0.51645842186E+03  0.00000000000E+00 0.  1.
      99926    2    1    2    0    0  0.00000000000E+00  0.00000000000E+00 -0.41448934771E+03  0.61842749602E+03  0.45896748084E+03 0.  0.
      99925    2    3    3    0    0  0.76860029294E+02 -0.61545964174E+02 -0.34468176005E+03  0.44460006089E+03  0.26299872361E+03 0.  0.
         25    1    4    4    0    0  0.39949381942E+02 -0.46117711753E+01 -0.21553040729E+03  0.25242441664E+03  0.12509000000E+03 0.  0.
         25    1    3    3    0    0 -0.76860029294E+02  0.61545964174E+02 -0.69807587656E+02  0.17382743513E+03  0.12509000000E+03 0.  0.
         25    1    4    4    0    0  0.36910647353E+02 -0.56934192998E+02 -0.12915135277E+03  0.19217564425E+03  0.12509000000E+03 0.  0.
<mgrwt>
<rscale>  2 0.45896748E+03</rscale>
<asrwt>0</asrwt>
<pdfrwt beam="1">  1       21 0.14995452E-01 0.45896748E+03</pdfrwt>
<pdfrwt beam="2">  1       21 0.75949768E-01 0.45896748E+03</pdfrwt>
<totfact> 0.55789478E+04</totfact>
</mgrwt>
</event>
<event>
 7    0  0.4784406E-002  0.4506379E+03  0.7546771E-02  0.1027532E+00
         21   -1    0    0  502  501  0.00000000000E+00  0.00000000000E+00  0.13217769406E+04  0.13217769406E+04  0.00000000000E+00 0. -1.
         21   -1    0    0  501  502 -0.00000000000E+00 -0.00000000000E+00 -0.38409381237E+02  0.38409381237E+02  0.00000000000E+00 0. -1.
      99926    2    1    2    0    0  0.00000000000E+00  0.00000000000E+00  0.12833675594E+04  0.13601863219E+04  0.45063792305E+03 0.  0.
      99925    2    3    3    0    0  0.10122286223E+03  0.36190900330E+02  0.86492298011E+03  0.91040946259E+03  0.26305470716E+03 0.  0.
         25    1    3    3    0    0 -0.10122286223E+03 -0.36190900330E+02  0.41844457929E+03  0.44977685927E+03  0.12509000000E+03 0.  0.
         25    1    4    4    0    0  0.82290033895E+02  0.25356228806E+02  0.38219137507E+03  0.41125702826E+03  0.12509000000E+03 0.  0.
         25    1    4    4    0    0  0.18932828333E+02  0.10834671524E+02  0.48273160504E+03  0.49915243433E+03  0.12509000000E+03 0.  0.
<mgrwt>
<rscale>  2 0.45063792E+03</rscale>
<asrwt>0</asrwt>
<pdfrwt beam="1">  1       21 0.19437893E+00 0.45063792E+03</pdfrwt>
<pdfrwt beam="2">  1       21 0.56484393E-02 0.45063792E+03</pdfrwt>
<totfact> 0.28362084E+04</totfact>
</mgrwt>
</event>
<event>
 7    0  0.4784406E-002  0.4501450E+03  0.7546771E-02  0.1027679E+00
         21   -1    0    0  502  501  0.00000000000E+00  0.00000000000E+00  0.16751019028E+04  0.16751019028E+04  0.00000000000E+00 0.  1.
         21   -1    0    0  501  502 -0.00000000000E+00 -0.00000000000E+00 -0.30241521598E+02  0.30241521598E+02  0.00000000000E+00 0.  1.
      99926    2    1    2    0    0  0.00000000000E+00  0.35527136788E-14  0.16448603812E+04  0.17053434244E+04  0.45014500051E+03 0.  0.
      99925    2    3    3    0    0 -0.44852313251E+02  0.23089143353E+02  0.67523145962E+03  0.72637836261E+03  0.26295087574E+03 0.  0.
         25    1    3    3    0    0  0.44852313251E+02 -0.23089143353E+02  0.96962892158E+03  0.97896506179E+03  0.12509000000E+03 0.  0.
         25    1    4    4    0    0 -0.40812552365E+02 -0.24310211103E+02  0.32719912261E+03  0.35350166157E+03  0.12509000000E+03 0.  0.
         25    1    4    4    0    0 -0.40397608859E+01  0.47399354456E+02  0.34803233701E+03  0.37287670104E+03  0.12509000000E+03 0.  0.
<mgrwt>
<rscale>  2 0.45014500E+03</rscale>
<asrwt>0</asrwt>
<pdfrwt beam="1">  1       21 0.24633845E+00 0.45014500E+03</pdfrwt>
<pdfrwt beam="2">  1       21 0.44472837E-02 0.45014500E+03</pdfrwt>
<totfact> 0.19890045E+04</totfact>
</mgrwt>
</event>
<event>
 7    0  0.4784406E-002  0.4520689E+03  0.7546771E-02  0.1027107E+00
         21   -1    0    0  502  501  0.00000000000E+00  0.00000000000E+00  0.83276334910E+03  0.83276334910E+03  0.00000000000E+00 0. -1.
         21   -1    0    0  501  502 -0.00000000000E+00 -0.00000000000E+00 -0.61351852989E+02  0.61351852989E+02  0.00000000000E+00 0. -1.
      99926    2    1    2    0    0  0.71054273576E-14  0.00000000000E+00  0.77141149611E+03  0.89411520209E+03  0.45206890877E+03 0.  0.
      99925    2    3    3    0    0  0.55697548124E+02 -0.76474548046E+02  0.59839233777E+03  0.66059066244E+03  0.26335538733E+03 0.  0.
         25    1    3    3    0    0 -0.55697548124E+02  0.76474548046E+02  0.17301915834E+03  0.23352453965E+03  0.12509000000E+03 0.  0.
         25    1    4    4    0    0 -0.82502835521E+01 -0.14403988380E+02  0.27657464291E+03  0.30400095931E+03  0.12509000000E+03 0.  0.
         25    1    4    4    0    0  0.63947831676E+02 -0.62070559665E+02  0.32181769485E+03  0.35658970312E+03  0.12509000000E+03 0.  0.
<mgrwt>
<rscale>  2 0.45206891E+03</rscale>
<asrwt>0</asrwt>
<pdfrwt beam="1">  1       21 0.12246519E+00 0.45206891E+03</pdfrwt>
<pdfrwt beam="2">  1       21 0.90223318E-02 0.45206891E+03</pdfrwt>
<totfact> 0.44501693E+04</totfact>
</mgrwt>
</event>
<event>
 7    0  0.4784406E-002  0.4548262E+03  0.7546771E-02  0.1026293E+00
         21   -1    0    0  502  501  0.00000000000E+00  0.00000000000E+00  0.37067336580E+02  0.37067336580E+02  0.00000000000E+00 0. -1.
         21   -1    0    0  501  502 -0.00000000000E+00 -0.00000000000E+00 -0.13952098888E+04  0.13952098888E+04  0.00000000000E+00 0. -1.
      99926    2    1    2    0    0  0.00000000000E+00  0.00000000000E+00 -0.13581425523E+04  0.14322772254E+04  0.45482618460E+03 0.  0.
      99925    2    3    3    0    0 -0.82400820119E+02 -0.53614421276E+02 -0.68367917989E+03  0.73930338025E+03  0.26360551152E+03 0.  0.
         25    1    3    3    0    0  0.82400820119E+02  0.53614421276E+02 -0.67446337237E+03  0.69297384518E+03  0.12509000000E+03 0.  0.
         25    1    4    4    0    0 -0.18220262812E+02 -0.53832880911E+02 -0.39487629211E+03  0.41809658121E+03  0.12509000000E+03 0.  0.
         25    1    4    4    0    0 -0.64180557306E+02  0.21845963416E+00 -0.28880288778E+03  0.32120679904E+03  0.12509000000E+03 0.  0.
<mgrwt>
<rscale>  2 0.45482618E+03</rscale>
<asrwt>0</asrwt>
<pdfrwt beam="1">  1       21 0.54510802E-02 0.45482618E+03</pdfrwt>
<pdfrwt beam="2">  1       21 0.20517788E+00 0.45482618E+03</pdfrwt>
<totfact> 0.25518901E+04</totfact>
</mgrwt>
</event>
<event>
 7    0  0.4784406E-002  0.4537011E+03  0.7546771E-02  0.1026624E+00
         21   -1    0    0  502  501  0.00000000000E+00  0.00000000000E+00  0.88459201470E+02  0.88459201470E+02  0.00000000000E+00 0.  1.
         21   -1    0    0  501  502 -0.00000000000E+00 -0.00000000000E+00 -0.58175025563E+03  0.58175025563E+03  0.00000000000E+00 0.  1.
      99926    2    1    2    0    0  0.00000000000E+00  0.00000000000E+00 -0.49329105416E+03  0.67020945710E+03  0.45370106047E+03 0.  0.
      99925    2    3    3    0    0  0.13861025864E+02  0.87168948498E+02 -0.20899117531E+03  0.34730934431E+03  0.26297512368E+03 0.  0.
         25    1    3    3    0    0 -0.13861025864E+02 -0.87168948498E+02 -0.28429987886E+03  0.32290011279E+03  0.12509000000E+03 0.  0.
         25    1    4    4    0    0  0.29749849810E+02  0.13261855097E+02 -0.77539408228E+02  0.15073419749E+03  0.12509000000E+03 0.  0.
         25    1    4    4    0    0 -0.15888823947E+02  0.73907093401E+02 -0.13145176708E+03  0.19657514683E+03  0.12509000000E+03 0.  0.
<mgrwt>
<rscale>  2 0.45370106E+03</rscale>
<asrwt>0</asrwt>
<pdfrwt beam="1">  1       21 0.13008706E-01 0.45370106E+03</pdfrwt>
<pdfrwt beam="2">  1       21 0.85551509E-01 0.45370106E+03</pdfrwt>
<totfact> 0.55112667E+04</totfact>
</mgrwt>
</event>
<event>
 7    0  0.4784406E-002  0.4565438E+03  0.7546771E-02  0.1025788E+00
         21   -1    0    0  502  501  0.00000000000E+00  0.00000000000E+00  0.54366299041E+03  0.54366299041E+03  0.00000000000E+00 0.  1.
         21   -1    0    0  501  502 -0.00000000000E+00 -0.00000000000E+00 -0.95846259784E+02  0.95846259784E+02  0.00000000000E+00 0.  1.
      99926    2    1    2    0    0  0.00000000000E+00  0.00000000000E+00  0.44781673063E+03  0.63950925019E+03  0.45654381701E+03 0.  0.
      99925    2    3    3    0    0  0.84199884109E+02 -0.70979918736E+02  0.32632565828E+03  0.43326823074E+03  0.26287859396E+03 0.  0.
         25    1    3    3    0    0 -0.84199884109E+02  0.70979918736E+02  0.12149107234E+03  0.20624101946E+03  0.12509000000E+03 0.  0.
         25    1    4    4    0    0  0.17125141219E+02 -0.11415842843E+02  0.18522119640E+03  0.22445042131E+03  0.12509000000E+03 0.  0.
         25    1    4    4    0    0  0.67074742890E+02 -0.59564075893E+02  0.14110446188E+03  0.20881780943E+03  0.12509000000E+03 0.  0.
<mgrwt>
<rscale>  2 0.45654382E+03</rscale>
<asrwt>0</asrwt>
<pdfrwt beam="1">  1       21 0.79950438E-01 0.45654382E+03</pdfrwt>
<pdfrwt beam="2">  1       21 0.14095038E-01 0.45654382E+03</pdfrwt>
<totfact> 0.55629085E+04</totfact>
</mgrwt>
</event>
<event>
 7    0  0.4784406E-002  0.4541877E+03  0.7546771E-02  0.1026481E+00
         21   -1    0    0  502  501  0.00000000000E+00  0.00000000000E+00  0.85596071386E+03  0.85596071386E+03  0.00000000000E+00 0. -1.
         21   -1    0    0  501  502 -0.00000000000E+00 -0.00000000000E+00 -0.60249976041E+02  0.60249976041E+02  0.00000000000E+00 0. -1.
      99926    2    1    2    0    0  0.00000000000E+00  0.00000000000E+00  0.79571073782E+03  0.91621068990E+03  0.45418768148E+03 0.  0.
      99925    2    3    3    0    0 -0.78338964929E+02  0.77476085210E+02  0.54575517221E+03  0.61576963065E+03  0.26302850194E+03 0.  0.
         25    1    4    4    0    0 -0.25388854691E+02  0.70872330588E+02  0.23651368497E+03  0.27794552068E+03  0.12509000000E+03 0.  0.
         25    1    4    4    0    0 -0.52950110238E+02  0.66037546216E+01  0.30924148723E+03  0.33782410997E+03  0.12509000000E+03 0.  0.
         25    1    3    3    0    0  0.78338964929E+02 -0.77476085210E+02  0.24995556562E+03  0.30044105926E+03  0.12509000000E+03 0.  0.
<mgrwt>
<rscale>  2 0.45418768E+03</rscale>
<asrwt>0</asrwt>
<pdfrwt beam="1">  1       21 0.12587657E+00 0.45418768E+03</pdfrwt>
<pdfrwt beam="2">  1       21 0.88602911E-02 0.45418768E+03</pdfrwt>
<totfact> 0.42811693E+04</totfact>
</mgrwt>
</event>
<event>
 7    0  0.4784406E-002  0.4566466E+03  0.7546771E-02  0.1025758E+00
         21   -1    0    0  502  501  0.00000000000E+00  0.00000000000E+00  0.25528385049E+02  0.25528385049E+02  0.00000000000E+00 0. -1.
         21   -1    0    0  501  502 -0.00000000000E+00 -0.00000000000E+00 -0.20421006596E+04  0.20421006596E+04  0.00000000000E+00 0. -1.
      99926    2    1    2    0    0  0.00000000000E+00  0.00000000000E+00 -0.20165722746E+04  0.20676290447E+04  0.45664661149E+03 0.  0.
      99925    2    3    3    0    0 -0.21413148068E+02 -0.11260391205E+03 -0.12669629572E+04  0.12990590734E+04  0.26309917787E+03 0.  0.
         25    1    3    3    0    0  0.21413148068E+02  0.11260391205E+03 -0.74960931736E+03  0.76856997124E+03  0.12509000000E+03 0.  0.
         25    1    4    4    0    0  0.86782252040E+01 -0.49589842945E+02 -0.77573964830E+03  0.78737156042E+03  0.12509000000E+03 0.  0.
         25    1    4    4    0    0 -0.30091373272E+02 -0.63014069102E+02 -0.49122330892E+03  0.51168751301E+03  0.12509000000E+03 0.  0.
<mgrwt>
<rscale>  2 0.45664661E+03</rscale>
<asrwt>0</asrwt>
<pdfrwt beam="1">  1       21 0.37541742E-02 0.45664661E+03</pdfrwt>
<pdfrwt beam="2">  1       21 0.30030893E+00 0.45664661E+03</pdfrwt>
<totfact> 0.12476686E+04</totfact>
</mgrwt>
</event>
<event>
 7    0  0.4784406E-002  0.4630369E+03  0.7546771E-02  0.1023904E+00
         21   -1    0    0  502  501  0.00000000000E+00  0.00000000000E+00  0.65503811597E+02  0.65503811597E+02  0.00000000000E+00 0. -1.
         21   -1    0    0  501  502 -0.00000000000E+00 -0.00000000000E+00 -0.81828519775E+03  0.81828519775E+03  0.00000000000E+00 0. -1.
      99926    2    1    2    0    0  0.00000000000E+00 -0.35527136788E-14 -0.75278138615E+03  0.88378900935E+03  0.46303692909E+03 0.  0.
      99925    2    3    3    0    0  0.91896922177E+02 -0.18767802846E+02 -0.32577010005E+03  0.42905455794E+03  0.26299121826E+03 0.  0.
         25    1    4    4    0    0  0.60070417054E+02 -0.31058718361E+02 -0.21888219742E+03  0.26101728571E+03  0.12509000000E+03 0.  0.
         25    1    4    4    0    0  0.31826505123E+02  0.12290915515E+02 -0.10688790263E+03  0.16803727224E+03  0.12509000000E+03 0.  0.
         25    1    3    3    0    0 -0.91896922177E+02  0.18767802846E+02 -0.42701128611E+03  0.45473445140E+03  0.12509000000E+03 0.  0.
<mgrwt>
<rscale>  2 0.46303693E+03</rscale>
<asrwt>0</asrwt>
<pdfrwt beam="1">  1       21 0.96329148E-02 0.46303693E+03</pdfrwt>
<pdfrwt beam="2">  1       21 0.12033604E+00 0.46303693E+03</pdfrwt>
<totfact> 0.41281742E+04</totfact>
</mgrwt>
</event>
<event>
 7    0  0.4784406E-002  0.4429660E+03  0.7546771E-02  0.1029841E+00
         21   -1    0    0  502  501  0.00000000000E+00  0.00000000000E+00  0.19382172283E+03  0.19382172283E+03  0.00000000000E+00 0.  1.
         21   -1    0    0  501  502 -0.00000000000E+00 -0.00000000000E+00 -0.25309199758E+03  0.25309199758E+03  0.00000000000E+00 0.  1.
      99926    2    1    2    0    0  0.00000000000E+00  0.00000000000E+00 -0.59270274751E+02  0.44691372041E+03  0.44296603484E+03 0.  0.
      99925    2    3    3    0    0  0.75209699401E+02 -0.55934633561E+02 -0.77142902341E+02  0.28958565225E+03  0.26291375105E+03 0.  0.
         25    1    4    4    0    0  0.97379926284E+01 -0.34868201140E+02 -0.67068174516E+02  0.14647958248E+03  0.12509000000E+03 0.  0.
         25    1    3    3    0    0 -0.75209699401E+02  0.55934633561E+02  0.17872627590E+02  0.15732806816E+03  0.12509000000E+03 0.  0.
         25    1    4    4    0    0  0.65471706772E+02 -0.21066432421E+02 -0.10074727826E+02  0.14310606976E+03  0.12509000000E+03 0.  0.
<mgrwt>
<rscale>  2 0.44296603E+03</rscale>
<asrwt>0</asrwt>
<pdfrwt beam="1">  1       21 0.28503195E-01 0.44296603E+03</pdfrwt>
<pdfrwt beam="2">  1       21 0.37219411E-01 0.44296603E+03</pdfrwt>
<totfact> 0.76199302E+04</totfact>
</mgrwt>
</event>
<event>
 7    0  0.4784406E-002  0.4503176E+03  0.7546771E-02  0.1027627E+00
         21   -1    0    0  502  501  0.00000000000E+00  0.00000000000E+00  0.14083234878E+04  0.14083234878E+04  0.00000000000E+00 0. -1.
         21   -1    0    0  501  502 -0.00000000000E+00 -0.00000000000E+00 -0.35997750085E+02  0.35997750085E+02  0.00000000000E+00 0. -1.
      99926    2    1    2    0    0  0.14210854715E-13  0.00000000000E+00  0.13723257378E+04  0.14443212379E+04  0.45031756330E+03 0.  0.
      99925    2    3    3    0    0 -0.71406714870E+02  0.42319916690E+01  0.60453511411E+03  0.66312550155E+03  0.26297508993E+03 0.  0.
         25    1    4    4    0    0 -0.73097106688E+02  0.74220592115E+01  0.28116090382E+03  0.31638147213E+03  0.12509000000E+03 0.  0.
         25    1    3    3    0    0  0.71406714870E+02 -0.42319916690E+01  0.76779062365E+03  0.78119573638E+03  0.12509000000E+03 0.  0.
         25    1    4    4    0    0  0.16903918184E+01 -0.31900675425E+01  0.32337421029E+03  0.34674402942E+03  0.12509000000E+03 0.  0.
<mgrwt>
<rscale>  2 0.45031756E+03</rscale>
<asrwt>0</asrwt>
<pdfrwt beam="1">  1       21 0.20710636E+00 0.45031756E+03</pdfrwt>
<pdfrwt beam="2">  1       21 0.52937877E-02 0.45031756E+03</pdfrwt>
<totfact> 0.26111634E+04</totfact>
</mgrwt>
</event>
<event>
 7    0  0.4784406E-002  0.4576865E+03  0.7546771E-02  0.1025454E+00
         21   -1    0    0  502  501  0.00000000000E+00  0.00000000000E+00  0.92289043558E+02  0.92289043558E+02  0.00000000000E+00 0.  1.
         21   -1    0    0  501  502 -0.00000000000E+00 -0.00000000000E+00 -0.56744797346E+03  0.56744797346E+03  0.00000000000E+00 0.  1.
      99926    2    1    2    0    0  0.00000000000E+00  0.00000000000E+00 -0.47515892990E+03  0.65973701702E+03  0.45768648981E+03 0.  0.
      99925    2    3    3    0    0  0.74322757893E+02 -0.52067506066E+02 -0.19508409156E+03  0.33985528778E+03  0.26307587560E+03 0.  0.
         25    1    4    4    0    0  0.15377302627E+02 -0.24314271788E+02 -0.13580508849E+03  0.18686405595E+03  0.12509000000E+03 0.  0.
         25    1    3    3    0    0 -0.74322757893E+02  0.52067506066E+02 -0.28007483834E+03  0.31988172924E+03  0.12509000000E+03 0.  0.
         25    1    4    4    0    0  0.58945455266E+02 -0.27753234278E+02 -0.59279003072E+02  0.15299123182E+03  0.12509000000E+03 0.  0.
<mgrwt>
<rscale>  2 0.45768649E+03</rscale>
<asrwt>0</asrwt>
<pdfrwt beam="1">  1       21 0.13571918E-01 0.45768649E+03</pdfrwt>
<pdfrwt beam="2">  1       21 0.83448232E-01 0.45768649E+03</pdfrwt>
<totfact> 0.53990687E+04</totfact>
</mgrwt>
</event>
<event>
 7    0  0.4784406E-002  0.4540979E+03  0.7546771E-02  0.1026507E+00
         21   -1    0    0  502  501  0.00000000000E+00  0.00000000000E+00  0.44820418869E+02  0.44820418869E+02  0.00000000000E+00 0.  1.
         21   -1    0    0  501  502 -0.00000000000E+00 -0.00000000000E+00 -0.11501726437E+04  0.11501726437E+04  0.00000000000E+00 0.  1.
      99926    2    1    2    0    0  0.00000000000E+00  0.00000000000E+00 -0.11053522248E+04  0.11949930626E+04  0.45409787343E+03 0.  0.
      99925    2    3    3    0    0 -0.19701181972E+02  0.97648373913E+02 -0.83287653224E+03  0.87905975845E+03  0.26294371921E+03 0.  0.
         25    1    4    4    0    0  0.30279970469E+02  0.43238562197E+02 -0.41572234458E+03  0.43733171135E+03  0.12509000000E+03 0.  0.
         25    1    3    3    0    0  0.19701181972E+02 -0.97648373913E+02 -0.27247569261E+03  0.31593330413E+03  0.12509000000E+03 0.  0.
         25    1    4    4    0    0 -0.49981152442E+02  0.54409811716E+02 -0.41715418766E+03  0.44172804710E+03  0.12509000000E+03 0.  0.
<mgrwt>
<rscale>  2 0.45409787E+03</rscale>
<asrwt>0</asrwt>
<pdfrwt beam="1">  1       21 0.65912380E-02 0.45409787E+03</pdfrwt>
<pdfrwt beam="2">  1       21 0.16914304E+00 0.45409787E+03</pdfrwt>
<totfact> 0.32543143E+04</totfact>
</mgrwt>
</event>
<event>
 7    0  0.4784406E-002  0.4689981E+03  0.7546771E-02  0.1022203E+00
         21   -1    0    0  502  501  0.00000000000E+00  0.00000000000E+00  0.13094765962E+04  0.13094765962E+04  0.00000000000E+00 0.  1.
         21   -1    0    0  501  502 -0.00000000000E+00 -0.00000000000E+00 -0.41993735266E+02  0.41993735266E+02  0.00000000000E+00 0.  1.
      99926    2    1    2    0    0  0.00000000000E+00 -0.14210854715E-13  0.12674828609E+04  0.13514703315E+04  0.46899813866E+03 0.  0.
      99925    2    3    3    0    0 -0.90025804069E+02  0.80529340837E+02  0.68624129386E+03  0.74477527831E+03  0.26300852009E+03 0.  0.
         25    1    4    4    0    0 -0.60317317403E+02  0.40972965870E+02  0.45238203047E+03  0.47498839176E+03  0.12509000000E+03 0.  0.
         25    1    4    4    0    0 -0.29708486667E+02  0.39556374967E+02  0.23385926339E+03  0.26978688655E+03  0.12509000000E+03 0.  0.
         25    1    3    3    0    0  0.90025804069E+02 -0.80529340837E+02  0.58124156705E+03  0.60669505314E+03  0.12509000000E+03 0.  0.
<mgrwt>
<rscale>  2 0.46899814E+03</rscale>
<asrwt>0</asrwt>
<pdfrwt beam="1">  1       21 0.19257006E+00 0.46899814E+03</pdfrwt>
<pdfrwt beam="2">  1       21 0.61755502E-02 0.46899814E+03</pdfrwt>
<totfact> 0.24839473E+04</totfact>
</mgrwt>
</event>
<event>
 7    0  0.4784406E-002  0.4644336E+03  0.7546771E-02  0.1023503E+00
         21   -1    0    0  502  501  0.00000000000E+00  0.00000000000E+00  0.30191869781E+03  0.30191869781E+03  0.00000000000E+00 0. -1.
         21   -1    0    0  501  502 -0.00000000000E+00 -0.00000000000E+00 -0.17860652914E+03  0.17860652914E+03  0.00000000000E+00 0. -1.
      99926    2    1    2    0    0  0.17763568394E-14  0.00000000000E+00  0.12331216867E+03  0.48052522695E+03  0.46443363659E+03 0.  0.
      99925    2    3    3    0    0  0.10842927708E+02  0.90378885988E+02  0.16094214038E+03  0.32131016804E+03  0.26277735713E+03 0.  0.
         25    1    4    4    0    0 -0.33499405434E+01  0.74226550040E+02  0.53505506356E+02  0.15501983790E+03  0.12509000000E+03 0.  0.
         25    1    4    4    0    0  0.14192868251E+02  0.16152335948E+02  0.10743663403E+03  0.16629033014E+03  0.12509000000E+03 0.  0.
         25    1    3    3    0    0 -0.10842927708E+02 -0.90378885988E+02 -0.37629971713E+02  0.15921505891E+03  0.12509000000E+03 0.  0.
<mgrwt>
<rscale>  2 0.46443364E+03</rscale>
<asrwt>0</asrwt>
<pdfrwt beam="1">  1       21 0.44399809E-01 0.46443364E+03</pdfrwt>
<pdfrwt beam="2">  1       21 0.26265666E-01 0.46443364E+03</pdfrwt>
<totfact> 0.61896727E+04</totfact>
</mgrwt>
</event>
<event>
 7    0  0.4784406E-002  0.4587035E+03  0.7546771E-02  0.1025158E+00
         21   -1    0    0  502  501  0.00000000000E+00  0.00000000000E+00  0.94067542740E+03  0.94067542740E+03  0.00000000000E+00 0. -1.
         21   -1    0    0  501  502 -0.00000000000E+00 -0.00000000000E+00 -0.55919629823E+02  0.55919629823E+02  0.00000000000E+00 0. -1.
      99926    2    1    2    0    0  0.00000000000E+00  0.00000000000E+00  0.88475579758E+03  0.99659505722E+03  0.45870348454E+03 0.  0.
      99925    2    3    3    0    0 -0.59781952084E+02 -0.32605626082E+01  0.33788785966E+03  0.43241728145E+03  0.26311971899E+03 0.  0.
         25    1    3    3    0    0  0.59781952084E+02  0.32605626082E+01  0.54686793791E+03  0.56417777578E+03  0.12509000000E+03 0.  0.
         25    1    4    4    0    0 -0.69238267154E+02  0.86598794369E+01  0.19405650322E+03  0.24119362697E+03  0.12509000000E+03 0.  0.
         25    1    4    4    0    0  0.94563150701E+01 -0.11920442045E+02  0.14383135645E+03  0.19122365447E+03  0.12509000000E+03 0.  0.
<mgrwt>
<rscale>  2 0.45870348E+03</rscale>
<asrwt>0</asrwt>
<pdfrwt beam="1">  1       21 0.13833461E+00 0.45870348E+03</pdfrwt>
<pdfrwt beam="2">  1       21 0.82234755E-02 0.45870348E+03</pdfrwt>
<totfact> 0.38183035E+04</totfact>
</mgrwt>
</event>
<event>
 7    0  0.4784406E-002  0.4529115E+03  0.7546771E-02  0.1026857E+00
         21   -1    0    0  502  501  0.00000000000E+00  0.00000000000E+00  0.13772536732E+03  0.13772536732E+03  0.00000000000E+00 0. -1.
         21   -1    0    0  501  502 -0.00000000000E+00 -0.00000000000E+00 -0.37235112578E+03  0.37235112578E+03  0.00000000000E+00 0. -1.
      99926    2    1    2    0    0  0.71054273576E-14  0.00000000000E+00 -0.23462575846E+03  0.51007649309E+03  0.45291145081E+03 0.  0.
      99925    2    3    3    0    0  0.37687767586E+02  0.10483839493E+03 -0.14438529097E+03  0.31980745475E+03  0.26271322576E+03 0.  0.
         25    1    4    4    0    0 -0.14843848331E+02  0.27769356191E+02 -0.57678631501E+02  0.14130042324E+03  0.12509000000E+03 0.  0.
         25    1    3    3    0    0 -0.37687767586E+02 -0.10483839493E+03 -0.90240467493E+02  0.19026903834E+03  0.12509000000E+03 0.  0.
         25    1    4    4    0    0  0.52531615918E+02  0.77069038739E+02 -0.86706659468E+02  0.17850703151E+03  0.12509000000E+03 0.  0.
<mgrwt>
<rscale>  2 0.45291145E+03</rscale>
<asrwt>0</asrwt>
<pdfrwt beam="1">  1       21 0.20253731E-01 0.45291145E+03</pdfrwt>
<pdfrwt beam="2">  1       21 0.54757518E-01 0.45291145E+03</pdfrwt>
<totfact> 0.65649794E+04</totfact>
</mgrwt>
</event>
<event>
 7    0  0.4784406E-002  0.4330604E+03  0.7546771E-02  0.1032898E+00
         21   -1    0    0  502  501  0.00000000000E+00  0.00000000000E+00  0.92830543266E+02  0.92830543266E+02  0.00000000000E+00 0. -1.
         21   -1    0    0  501  502 -0.00000000000E+00 -0.00000000000E+00 -0.50506352236E+03  0.50506352236E+03  0.00000000000E+00 0. -1.
      99926    2    1    2    0    0  0.13322676296E-14 -0.71054273576E-14 -0.41223297910E+03  0.59789406563E+03  0.43306037069E+03 0.  0.
      99925    2    3    3    0    0  0.22444085559E+01  0.63842701159E+02 -0.17520824426E+03  0.32237789390E+03  0.26296130848E+03 0.  0.
         25    1    3    3    0    0 -0.22444085559E+01 -0.63842701159E+02 -0.23702473484E+03  0.27551617173E+03  0.12509000000E+03 0.  0.
         25    1    4    4    0    0  0.19403747819E+02  0.38450165594E+02 -0.13108175307E+03  0.18623870369E+03  0.12509000000E+03 0.  0.
         25    1    4    4    0    0 -0.17159339263E+02  0.25392535565E+02 -0.44126491189E+02  0.13613919021E+03  0.12509000000E+03 0.  0.
<mgrwt>
<rscale>  2 0.43306037E+03</rscale>
<asrwt>0</asrwt>
<pdfrwt beam="1">  1       21 0.13651550E-01 0.43306037E+03</pdfrwt>
<pdfrwt beam="2">  1       21 0.74274047E-01 0.43306037E+03</pdfrwt>
<totfact> 0.70209709E+04</totfact>
</mgrwt>
</event>
<event>
 7    0  0.4784406E-002  0.4625373E+03  0.7546771E-02  0.1024048E+00
         21   -1    0    0  502  501  0.00000000000E+00  0.00000000000E+00  0.31909185230E+02  0.31909185230E+02  0.00000000000E+00 0.  1.
         21   -1    0    0  501  502 -0.00000000000E+00 -0.00000000000E+00 -0.16761693734E+04  0.16761693734E+04  0.00000000000E+00 0.  1.
      99926    2    1    2    0    0  0.14210854715E-13  0.71054273576E-14 -0.16442601882E+04  0.17080785586E+04  0.46253734557E+03 0.  0.
      99925    2    3    3    0    0 -0.88165460544E+02 -0.45044699066E+02 -0.77634800091E+03  0.82562672071E+03  0.26294693399E+03 0.  0.
         25    1    4    4    0    0 -0.10603866938E+02 -0.31780241193E+02 -0.42977738463E+03  0.44886360307E+03  0.12509000000E+03 0.  0.
         25    1    4    4    0    0 -0.77561593607E+02 -0.13264457873E+02 -0.34657061627E+03  0.37676311763E+03  0.12509000000E+03 0.  0.
         25    1    3    3    0    0  0.88165460544E+02  0.45044699066E+02 -0.86791218728E+03  0.88245183794E+03  0.12509000000E+03 0.  0.
<mgrwt>
<rscale>  2 0.46253735E+03</rscale>
<asrwt>0</asrwt>
<pdfrwt beam="1">  1       21 0.46925271E-02 0.46253735E+03</pdfrwt>
<pdfrwt beam="2">  1       21 0.24649550E+00 0.46253735E+03</pdfrwt>
<totfact> 0.18016603E+04</totfact>
</mgrwt>
</event>
<event>
 7    0  0.4784406E-002  0.4286158E+03  0.7546771E-02  0.1034298E+00
         21   -1    0    0  502  501  0.00000000000E+00  0.00000000000E+00  0.11226892290E+03  0.11226892290E+03  0.00000000000E+00 0.  1.
         21   -1    0    0  501  502 -0.00000000000E+00 -0.00000000000E+00 -0.40908802758E+03  0.40908802758E+03  0.00000000000E+00 0.  1.
      99926    2    1    2    0    0 -0.13322676296E-14  0.00000000000E+00 -0.29681910468E+03  0.52135695048E+03  0.42861578238E+03 0.  0.
      99925    2    3    3    0    0  0.20161497990E+01 -0.64220386862E+02 -0.26031863695E+03  0.37607062905E+03  0.26369490390E+03 0.  0.
         25    1    4    4    0    0 -0.35841380270E+02 -0.22833455759E+02 -0.10385601041E+03  0.16804627410E+03  0.12509000000E+03 0.  0.
         25    1    4    4    0    0  0.37857530069E+02 -0.41386931103E+02 -0.15646262654E+03  0.20802435495E+03  0.12509000000E+03 0.  0.
         25    1    3    3    0    0 -0.20161497990E+01  0.64220386862E+02 -0.36500467729E+02  0.14528632143E+03  0.12509000000E+03 0.  0.
<mgrwt>
<rscale>  2 0.42861578E+03</rscale>
<asrwt>0</asrwt>
<pdfrwt beam="1">  1       21 0.16510136E-01 0.42861578E+03</pdfrwt>
<pdfrwt beam="2">  1       21 0.60160004E-01 0.42861578E+03</pdfrwt>
<totfact> 0.79067229E+04</totfact>
</mgrwt>
</event>
<event>
 7    0  0.4784406E-002  0.4339762E+03  0.7546771E-02  0.1032611E+00
         21   -1    0    0  502  501  0.00000000000E+00  0.00000000000E+00  0.69687839811E+02  0.69687839811E+02  0.00000000000E+00 0.  1.
         21   -1    0    0  501  502 -0.00000000000E+00 -0.00000000000E+00 -0.67563931922E+03  0.67563931922E+03  0.00000000000E+00 0.  1.
      99926    2    1    2    0    0  0.00000000000E+00  0.00000000000E+00 -0.60595147941E+03  0.74532715903E+03  0.43397624197E+03 0.  0.
      99925    2    3    3    0    0 -0.51489866474E+02 -0.46578059689E+02 -0.28507468420E+03  0.39400088931E+03  0.26296083969E+03 0.  0.
         25    1    4    4    0    0 -0.53773057587E+02  0.50857261062E+01 -0.13285565055E+03  0.19030380531E+03  0.12509000000E+03 0.  0.
         25    1    3    3    0    0  0.51489866474E+02  0.46578059689E+02 -0.32087679520E+03  0.35132626972E+03  0.12509000000E+03 0.  0.
         25    1    4    4    0    0  0.22831911127E+01 -0.51663785795E+02 -0.15221903365E+03  0.20369708400E+03  0.12509000000E+03 0.  0.
<mgrwt>
<rscale>  2 0.43397624E+03</rscale>
<asrwt>0</asrwt>
<pdfrwt beam="1">  1       21 0.10248211E-01 0.43397624E+03</pdfrwt>
<pdfrwt beam="2">  1       21 0.99358728E-01 0.43397624E+03</pdfrwt>
<totfact> 0.59795738E+04</totfact>
</mgrwt>
</event>
<event>
 7    0  0.4784406E-002  0.4547609E+03  0.7546771E-02  0.1026312E+00
         21   -1    0    0  502  501  0.00000000000E+00  0.00000000000E+00  0.27579878877E+03  0.27579878877E+03  0.00000000000E+00 0.  1.
         21   -1    0    0  501  502 -0.00000000000E+00 -0.00000000000E+00 -0.18746228183E+03  0.18746228183E+03  0.00000000000E+00 0.  1.
      99926    2    1    2    0    0  0.00000000000E+00  0.00000000000E+00  0.88336506942E+02  0.46326107059E+03  0.45476090539E+03 0.  0.
      99925    2    3    3    0    0  0.26831824869E+02 -0.39600873259E+02  0.15965803146E+03  0.31152958425E+03  0.26319540054E+03 0.  0.
         25    1    3    3    0    0 -0.26831824869E+02  0.39600873259E+02 -0.71321524517E+02  0.15173148634E+03  0.12509000000E+03 0.  0.
         25    1    4    4    0    0 -0.17283488188E+02  0.95461705627E+00  0.54840280247E+02  0.13767568665E+03  0.12509000000E+03 0.  0.
         25    1    4    4    0    0  0.44115313057E+02 -0.40555490315E+02  0.10481775121E+03  0.17385389760E+03  0.12509000000E+03 0.  0.
<mgrwt>
<rscale>  2 0.45476091E+03</rscale>
<asrwt>0</asrwt>
<pdfrwt beam="1">  1       21 0.40558645E-01 0.45476091E+03</pdfrwt>
<pdfrwt beam="2">  1       21 0.27567983E-01 0.45476091E+03</pdfrwt>
<totfact> 0.68068757E+04</totfact>
</mgrwt>
</event>
<event>
 7    0  0.4784406E-002  0.4608452E+03  0.7546771E-02  0.1024536E+00
         21   -1    0    0  502  501  0.00000000000E+00  0.00000000000E+00  0.23624320325E+03  0.23624320325E+03  0.00000000000E+00 0. -1.
         21   -1    0    0  501  502 -0.00000000000E+00 -0.00000000000E+00 -0.22474543873E+03  0.22474543873E+03  0.00000000000E+00 0. -1.
      99926    2    1    2    0    0  0.00000000000E+00  0.00000000000E+00  0.11497764520E+02  0.46098864197E+03  0.46084523371E+03 0.  0.
      99925    2    3    3    0    0 -0.11662835735E+03 -0.21098327218E+02  0.10171590273E+02  0.28866168533E+03  0.26301101532E+03 0.  0.
         25    1    4    4    0    0 -0.25663126890E+02  0.89609281283E+01 -0.15775023983E+02  0.12897772597E+03  0.12509000000E+03 0.  0.
         25    1    3    3    0    0  0.11662835735E+03  0.21098327218E+02  0.13261742477E+01  0.17232695665E+03  0.12509000000E+03 0.  0.
         25    1    4    4    0    0 -0.90965230457E+02 -0.30059255346E+02  0.25946614255E+02  0.15968395936E+03  0.12509000000E+03 0.  0.
<mgrwt>
<rscale>  2 0.46084523E+03</rscale>
<asrwt>0</asrwt>
<pdfrwt beam="1">  1       21 0.34741648E-01 0.46084523E+03</pdfrwt>
<pdfrwt beam="2">  1       21 0.33050800E-01 0.46084523E+03</pdfrwt>
<totfact> 0.65023348E+04</totfact>
</mgrwt>
</event>
<event>
 7    0  0.4784406E-002  0.4532395E+03  0.7546771E-02  0.1026760E+00
         21   -1    0    0  502  501  0.00000000000E+00  0.00000000000E+00  0.60707937738E+03  0.60707937738E+03  0.00000000000E+00 0. -1.
         21   -1    0    0  501  502 -0.00000000000E+00 -0.00000000000E+00 -0.84596032138E+02  0.84596032138E+02  0.00000000000E+00 0. -1.
      99926    2    1    2    0    0  0.00000000000E+00  0.00000000000E+00  0.52248334524E+03  0.69167540952E+03  0.45323947983E+03 0.  0.
      99925    2    3    3    0    0 -0.78157789926E+02  0.53595761626E+02  0.23920367488E+03  0.36782972786E+03  0.26286719999E+03 0.  0.
         25    1    3    3    0    0  0.78157789926E+02 -0.53595761626E+02  0.28327967037E+03  0.32384568166E+03  0.12509000000E+03 0.  0.
         25    1    4    4    0    0 -0.42714210748E+02 -0.26809187067E+00  0.76560822735E+02  0.15275353793E+03  0.12509000000E+03 0.  0.
         25    1    4    4    0    0 -0.35443579178E+02  0.53863853497E+02  0.16264285214E+03  0.21507618992E+03  0.12509000000E+03 0.  0.
<mgrwt>
<rscale>  2 0.45323948E+03</rscale>
<asrwt>0</asrwt>
<pdfrwt beam="1">  1       21 0.89276377E-01 0.45323948E+03</pdfrwt>
<pdfrwt beam="2">  1       21 0.12440593E-01 0.45323948E+03</pdfrwt>
<totfact> 0.54103213E+04</totfact>
</mgrwt>
</event>
<event>
 7    0  0.4784406E-002  0.4539945E+03  0.7546771E-02  0.1026538E+00
         21   -1    0    0  502  501  0.00000000000E+00  0.00000000000E+00  0.27728556280E+04  0.27728556280E+04  0.00000000000E+00 0. -1.
         21   -1    0    0  501  502 -0.00000000000E+00 -0.00000000000E+00 -0.18582915507E+02  0.18582915507E+02  0.00000000000E+00 0. -1.
      99926    2    1    2    0    0  0.00000000000E+00 -0.71054273576E-14  0.27542727125E+04  0.27914385435E+04  0.45399445746E+03 0.  0.
      99925    2    3    3    0    0 -0.88227422702E+02 -0.47110521568E+02  0.14237279925E+04  0.14512892088E+04  0.26312637942E+03 0.  0.
         25    1    4    4    0    0 -0.61876248305E+02  0.36133619798E+01  0.84423096344E+03  0.85569571357E+03  0.12509000000E+03 0.  0.
         25    1    3    3    0    0  0.88227422702E+02  0.47110521568E+02  0.13305447200E+04  0.13401493348E+04  0.12509000000E+03 0.  0.
         25    1    4    4    0    0 -0.26351174397E+02 -0.50723883548E+02  0.57949702907E+03  0.59559349523E+03  0.12509000000E+03 0.  0.
<mgrwt>
<rscale>  2 0.45399446E+03</rscale>
<asrwt>0</asrwt>
<pdfrwt beam="1">  1       21 0.40777260E+00 0.45399446E+03</pdfrwt>
<pdfrwt beam="2">  1       21 0.27327836E-02 0.45399446E+03</pdfrwt>
<totfact> 0.46221551E+03</totfact>
</mgrwt>
</event>
<event>
 7    0  0.4784406E-002  0.4551492E+03  0.7546771E-02  0.1026198E+00
         21   -1    0    0  502  501  0.00000000000E+00  0.00000000000E+00  0.62303023270E+03  0.62303023270E+03  0.00000000000E+00 0.  1.
         21   -1    0    0  501  502 -0.00000000000E+00 -0.00000000000E+00 -0.83126289317E+02  0.83126289317E+02  0.00000000000E+00 0.  1.
      99926    2    1    2    0    0  0.00000000000E+00  0.00000000000E+00  0.53990394339E+03  0.70615652202E+03  0.45514916841E+03 0.  0.
      99925    2    3    3    0    0 -0.96670762314E+02 -0.19751077122E+02  0.42605472505E+03  0.51033902038E+03  0.26303601588E+03 0.  0.
         25    1    3    3    0    0  0.96670762314E+02  0.19751077122E+02  0.11384921834E+03  0.19581750164E+03  0.12509000000E+03 0.  0.
         25    1    4    4    0    0 -0.91171032347E+02 -0.16666214128E+02  0.23573171235E+03  0.28250109405E+03  0.12509000000E+03 0.  0.
         25    1    4    4    0    0 -0.54997299673E+01 -0.30848629943E+01  0.19032301270E+03  0.22783792632E+03  0.12509000000E+03 0.  0.
<mgrwt>
<rscale>  2 0.45514917E+03</rscale>
<asrwt>0</asrwt>
<pdfrwt beam="1">  1       21 0.91622091E-01 0.45514917E+03</pdfrwt>
<pdfrwt beam="2">  1       21 0.12224455E-01 0.45514917E+03</pdfrwt>
<totfact> 0.52508315E+04</totfact>
</mgrwt>
</event>
<event>
 7    0  0.4784406E-002  0.4085344E+03  0.7546771E-02  0.1040864E+00
         21   -1    0    0  502  501  0.00000000000E+00  0.00000000000E+00  0.57387788633E+02  0.57387788633E+02  0.00000000000E+00 0. -1.
         21   -1    0    0  501  502 -0.00000000000E+00 -0.00000000000E+00 -0.72707253312E+03  0.72707253312E+03  0.00000000000E+00 0. -1.
      99926    2    1    2    0    0  0.71054273576E-14  0.17763568394E-14 -0.66968474449E+03  0.78446032176E+03  0.40853437971E+03 0.  0.
      99925    2    3    3    0    0  0.47653440169E+02 -0.83935423827E+01 -0.51041692041E+03  0.57624156708E+03  0.26303537608E+03 0.  0.
         25    1    4    4    0    0  0.94381345180E+01 -0.37696865370E+02 -0.21363587030E+03  0.25059514205E+03  0.12509000000E+03 0.  0.
         25    1    3    3    0    0 -0.47653440169E+02  0.83935423827E+01 -0.15926782408E+03  0.20821875468E+03  0.12509000000E+03 0.  0.
         25    1    4    4    0    0  0.38215305651E+02  0.29303322987E+02 -0.29678105012E+03  0.32564642503E+03  0.12509000000E+03 0.  0.
<mgrwt>
<rscale>  2 0.40853438E+03</rscale>
<asrwt>0</asrwt>
<pdfrwt beam="1">  1       21 0.84393819E-02 0.40853438E+03</pdfrwt>
<pdfrwt beam="2">  1       21 0.10692242E+00 0.40853438E+03</pdfrwt>
<totfact> 0.71130939E+04</totfact>
</mgrwt>
</event>
<event>
 7    0  0.4784406E-002  0.4500226E+03  0.7546771E-02  0.1027715E+00
         21   -1    0    0  502  501  0.00000000000E+00  0.00000000000E+00  0.12631801308E+03  0.12631801308E+03  0.00000000000E+00 0.  1.
         21   -1    0    0  501  502 -0.00000000000E+00 -0.00000000000E+00 -0.40081443535E+03  0.40081443535E+03  0.00000000000E+00 0.  1.
      99926    2    1    2    0    0  0.00000000000E+00  0.00000000000E+00 -0.27449642227E+03  0.52713244843E+03  0.45002259093E+03 0.  0.
      99925    2    3    3    0    0  0.73267637077E+02 -0.63597528415E+02 -0.23025560072E+03  0.36276228491E+03  0.26299437527E+03 0.  0.
         25    1    3    3    0    0 -0.73267637077E+02  0.63597528415E+02 -0.44240821551E+02  0.16437016352E+03  0.12509000000E+03 0.  0.
         25    1    4    4    0    0  0.70697501085E+01 -0.23086645756E+02 -0.70824496050E+02  0.14576210728E+03  0.12509000000E+03 0.  0.
         25    1    4    4    0    0  0.66197886968E+02 -0.40510882659E+02 -0.15943110467E+03  0.21700017763E+03  0.12509000000E+03 0.  0.
<mgrwt>
<rscale>  2 0.45002259E+03</rscale>
<asrwt>0</asrwt>
<pdfrwt beam="1">  1       21 0.18576178E-01 0.45002259E+03</pdfrwt>
<pdfrwt beam="2">  1       21 0.58943299E-01 0.45002259E+03</pdfrwt>
<totfact> 0.65964428E+04</totfact>
</mgrwt>
</event>
<event>
 7    0  0.4784406E-002  0.4725027E+03  0.7546771E-02  0.1021216E+00
         21   -1    0    0  502  501  0.00000000000E+00  0.00000000000E+00  0.42168204634E+03  0.42168204634E+03  0.00000000000E+00 0.  1.
         21   -1    0    0  501  502 -0.00000000000E+00 -0.00000000000E+00 -0.13236202617E+03  0.13236202617E+03  0.00000000000E+00 0.  1.
      99926    2    1    2    0    0  0.14210854715E-13  0.00000000000E+00  0.28932002017E+03  0.55404407251E+03  0.47250265630E+03 0.  0.
      99925    2    3    3    0    0  0.85413880961E+02  0.95206913067E+02  0.19496185497E+03  0.35177974348E+03  0.26339889080E+03 0.  0.
         25    1    4    4    0    0  0.73949920249E+02  0.80918832243E+02  0.10714894756E+03  0.19785058297E+03  0.12509000000E+03 0.  0.
         25    1    4    4    0    0  0.11463960712E+02  0.14288080824E+02  0.87812907410E+02  0.15392916051E+03  0.12509000000E+03 0.  0.
         25    1    3    3    0    0 -0.85413880961E+02 -0.95206913067E+02  0.94358165202E+02  0.20226432903E+03  0.12509000000E+03 0.  0.
<mgrwt>
<rscale>  2 0.47250266E+03</rscale>
<asrwt>0</asrwt>
<pdfrwt beam="1">  1       21 0.62012065E-01 0.47250266E+03</pdfrwt>
<pdfrwt beam="2">  1       21 0.19465004E-01 0.47250266E+03</pdfrwt>
<totfact> 0.53756736E+04</totfact>
</mgrwt>
</event>
<event>
 7    0  0.4784406E-002  0.4415663E+03  0.7546771E-02  0.1030267E+00
         21   -1    0    0  502  501  0.00000000000E+00  0.00000000000E+00  0.54102997832E+02  0.54102997832E+02  0.00000000000E+00 0. -1.
         21   -1    0    0  501  502 -0.00000000000E+00 -0.00000000000E+00 -0.90097038557E+03  0.90097038557E+03  0.00000000000E+00 0. -1.
      99926    2    1    2    0    0  0.35527136788E-14  0.00000000000E+00 -0.84686738774E+03  0.95507338340E+03  0.44156629771E+03 0.  0.
      99925    2    3    3    0    0 -0.29827371077E+02  0.94450190817E+02 -0.57241845793E+03  0.63761435646E+03  0.26282820621E+03 0.  0.
         25    1    3    3    0    0  0.29827371077E+02 -0.94450190817E+02 -0.27444892981E+03  0.31745902694E+03  0.12509000000E+03 0.  0.
         25    1    4    4    0    0  0.12134723831E+02  0.46855922172E+02 -0.34818263840E+03  0.37312382227E+03  0.12509000000E+03 0.  0.
         25    1    4    4    0    0 -0.41962094908E+02  0.47594268645E+02 -0.22423581953E+03  0.26449053419E+03  0.12509000000E+03 0.  0.
<mgrwt>
<rscale>  2 0.44156630E+03</rscale>
<asrwt>0</asrwt>
<pdfrwt beam="1">  1       21 0.79563232E-02 0.44156630E+03</pdfrwt>
<pdfrwt beam="2">  1       21 0.13249565E+00 0.44156630E+03</pdfrwt>
<totfact> 0.45534142E+04</totfact>
</mgrwt>
</event>
<event>
 7    0  0.4784406E-002  0.4588139E+03  0.7546771E-02  0.1025126E+00
         21   -1    0    0  502  501  0.00000000000E+00  0.00000000000E+00  0.87291590570E+02  0.87291590570E+02  0.00000000000E+00 0.  1.
         21   -1    0    0  501  502 -0.00000000000E+00 -0.00000000000E+00 -0.60289357158E+03  0.60289357158E+03  0.00000000000E+00 0.  1.
      99926    2    1    2    0    0 -0.35527136788E-14  0.00000000000E+00 -0.51560198101E+03  0.69018516215E+03  0.45881385684E+03 0.  0.
      99925    2    3    3    0    0 -0.31356635389E+02  0.27666239141E+01 -0.15434590817E+03  0.30659116969E+03  0.26302964314E+03 0.  0.
         25    1    4    4    0    0  0.11268814242E+02  0.60815793279E+01 -0.40424641714E+02  0.13208191223E+03  0.12509000000E+03 0.  0.
         25    1    4    4    0    0 -0.42625449631E+02 -0.33149554138E+01 -0.11392126646E+03  0.17450925745E+03  0.12509000000E+03 0.  0.
         25    1    3    3    0    0  0.31356635389E+02 -0.27666239141E+01 -0.36125607283E+03  0.38359399246E+03  0.12509000000E+03 0.  0.
<mgrwt>
<rscale>  2 0.45881386E+03</rscale>
<asrwt>0</asrwt>
<pdfrwt beam="1">  1       21 0.12836999E-01 0.45881386E+03</pdfrwt>
<pdfrwt beam="2">  1       21 0.88660815E-01 0.45881386E+03</pdfrwt>
<totfact> 0.51864441E+04</totfact>
</mgrwt>
</event>
<event>
 7    0  0.4784406E-002  0.4551449E+03  0.7546771E-02  0.1026199E+00
         21   -1    0    0  502  501  0.00000000000E+00  0.00000000000E+00  0.78282169959E+03  0.78282169959E+03  0.00000000000E+00 0. -1.
         21   -1    0    0  501  502 -0.00000000000E+00 -0.00000000000E+00 -0.66157097482E+02  0.66157097482E+02  0.00000000000E+00 0. -1.
      99926    2    1    2    0    0  0.00000000000E+00  0.00000000000E+00  0.71666460210E+03  0.84897879707E+03  0.45514486261E+03 0.  0.
      99925    2    3    3    0    0  0.52327076272E+02 -0.80495894729E+02  0.33862092100E+03  0.43936648658E+03  0.26298492240E+03 0.  0.
         25    1    4    4    0    0 -0.13094335218E+02 -0.30867194416E+02  0.14039640162E+03  0.19100498160E+03  0.12509000000E+03 0.  0.
         25    1    4    4    0    0  0.65421411490E+02 -0.49628700313E+02  0.19822451938E+03  0.24836150498E+03  0.12509000000E+03 0.  0.
         25    1    3    3    0    0 -0.52327076272E+02  0.80495894729E+02  0.37804368111E+03  0.40961231049E+03  0.12509000000E+03 0.  0.
<mgrwt>
<rscale>  2 0.45514486E+03</rscale>
<asrwt>0</asrwt>
<pdfrwt beam="1">  1       21 0.11512083E+00 0.45514486E+03</pdfrwt>
<pdfrwt beam="2">  1       21 0.97289854E-02 0.45514486E+03</pdfrwt>
<totfact> 0.45433443E+04</totfact>
</mgrwt>
</event>
<event>
 7    0  0.4784406E-002  0.4443789E+03  0.7546771E-02  0.1029412E+00
         21   -1    0    0  502  501  0.00000000000E+00  0.00000000000E+00  0.12047659747E+03  0.12047659747E+03  0.00000000000E+00 0.  1.
         21   -1    0    0  501  502 -0.00000000000E+00 -0.00000000000E+00 -0.40977372677E+03  0.40977372677E+03  0.00000000000E+00 0.  1.
      99926    2    1    2    0    0  0.00000000000E+00 -0.35527136788E-14 -0.28929712930E+03  0.53025032425E+03  0.44437886690E+03 0.  0.
      99925    2    3    3    0    0  0.10114797915E+03 -0.18025174247E+02 -0.18051421273E+03  0.33521942508E+03  0.26311758086E+03 0.  0.
         25    1    4    4    0    0  0.22970042445E+02 -0.39281030023E+02 -0.93162344816E+02  0.16247262157E+03  0.12509000000E+03 0.  0.
         25    1    4    4    0    0  0.78177936709E+02  0.21255855777E+02 -0.87351867913E+02  0.17274680350E+03  0.12509000000E+03 0.  0.
         25    1    3    3    0    0 -0.10114797915E+03  0.18025174247E+02 -0.10878291657E+03  0.19503089917E+03  0.12509000000E+03 0.  0.
<mgrwt>
<rscale>  2 0.44437887E+03</rscale>
<asrwt>0</asrwt>
<pdfrwt beam="1">  1       21 0.17717147E-01 0.44437887E+03</pdfrwt>
<pdfrwt beam="2">  1       21 0.60260842E-01 0.44437887E+03</pdfrwt>
<totfact> 0.68794747E+04</totfact>
</mgrwt>
</event>
<event>
 7    0  0.4784406E-002  0.4409502E+03  0.7546771E-02  0.1030456E+00
         21   -1    0    0  502  501  0.00000000000E+00  0.00000000000E+00  0.11051098410E+04  0.11051098410E+04  0.00000000000E+00 0. -1.
         21   -1    0    0  501  502 -0.00000000000E+00 -0.00000000000E+00 -0.43985912250E+02  0.43985912250E+02  0.00000000000E+00 0. -1.
      99926    2    1    2    0    0  0.71054273576E-14  0.71054273576E-14  0.10611239287E+04  0.11490957532E+04  0.44095017629E+03 0.  0.
      99925    2    3    3    0    0 -0.59386930066E+02 -0.40380602584E+02  0.49656217675E+03  0.56639953699E+03  0.26282511218E+03 0.  0.
         25    1    3    3    0    0  0.59386930066E+02  0.40380602584E+02  0.56456175198E+03  0.58269621624E+03  0.12509000000E+03 0.  0.
         25    1    4    4    0    0 -0.13921364272E+02  0.10448916922E+02  0.18735367505E+03  0.22594665720E+03  0.12509000000E+03 0.  0.
         25    1    4    4    0    0 -0.45465565794E+02 -0.50829519506E+02  0.30920850171E+03  0.34045287979E+03  0.12509000000E+03 0.  0.
<mgrwt>
<rscale>  2 0.44095018E+03</rscale>
<asrwt>0</asrwt>
<pdfrwt beam="1">  1       21 0.16251614E+00 0.44095018E+03</pdfrwt>
<pdfrwt beam="2">  1       21 0.64685172E-02 0.44095018E+03</pdfrwt>
<totfact> 0.37783409E+04</totfact>
</mgrwt>
</event>
<event>
 7    0  0.4784406E-002  0.4600306E+03  0.7546771E-02  0.1024772E+00
         21   -1    0    0  502  501  0.00000000000E+00  0.00000000000E+00  0.47234529756E+03  0.47234529756E+03  0.00000000000E+00 0.  1.
         21   -1    0    0  501  502 -0.00000000000E+00 -0.00000000000E+00 -0.11200923215E+03  0.11200923215E+03  0.00000000000E+00 0.  1.
      99926    2    1    2    0    0  0.26645352591E-14  0.00000000000E+00  0.36033606541E+03  0.58435452972E+03  0.46003058199E+03 0.  0.
      99925    2    3    3    0    0 -0.55715339432E+01  0.11561424141E+03  0.19787085482E+03  0.34889721393E+03  0.26301843260E+03 0.  0.
         25    1    4    4    0    0  0.17411626925E+02  0.20627774591E+02  0.76685345800E+02  0.14918719850E+03  0.12509000000E+03 0.  0.
         25    1    3    3    0    0  0.55715339432E+01 -0.11561424141E+03  0.16246521059E+03  0.23545731579E+03  0.12509000000E+03 0.  0.
         25    1    4    4    0    0 -0.22983160869E+02  0.94986466822E+02  0.12118550902E+03  0.19971001542E+03  0.12509000000E+03 0.  0.
<mgrwt>
<rscale>  2 0.46003058E+03</rscale>
<asrwt>0</asrwt>
<pdfrwt beam="1">  1       21 0.69462543E-01 0.46003058E+03</pdfrwt>
<pdfrwt beam="2">  1       21 0.16471946E-01 0.46003058E+03</pdfrwt>
<totfact> 0.57337428E+04</totfact>
</mgrwt>
</event>
<event>
 7    0  0.4784406E-002  0.4395008E+03  0.7546771E-02  0.1030900E+00
         21   -1    0    0  502  501  0.00000000000E+00  0.00000000000E+00  0.30881886213E+03  0.30881886213E+03  0.00000000000E+00 0. -1.
         21   -1    0    0  501  502 -0.00000000000E+00 -0.00000000000E+00 -0.15637075939E+03  0.15637075939E+03  0.00000000000E+00 0. -1.
      99926    2    1    2    0    0  0.00000000000E+00  0.00000000000E+00  0.15244810274E+03  0.46518962151E+03  0.43950080766E+03 0.  0.
      99925    2    3    3    0    0  0.66160558990E+02 -0.39323006372E+02  0.33365277193E+02  0.27610830082E+03  0.26305709202E+03 0.  0.
         25    1    4    4    0    0  0.72970877296E+02 -0.32933584023E+02  0.22343637719E+02  0.15018693730E+03  0.12509000000E+03 0.  0.
         25    1    3    3    0    0 -0.66160558990E+02  0.39323006372E+02  0.11908282554E+03  0.18908132069E+03  0.12509000000E+03 0.  0.
         25    1    4    4    0    0 -0.68103183063E+01 -0.63894223490E+01  0.11021639474E+02  0.12592136352E+03  0.12509000000E+03 0.  0.
<mgrwt>
<rscale>  2 0.43950081E+03</rscale>
<asrwt>0</asrwt>
<pdfrwt beam="1">  1       21 0.45414538E-01 0.43950081E+03</pdfrwt>
<pdfrwt beam="2">  1       21 0.22995700E-01 0.43950081E+03</pdfrwt>
<totfact> 0.76817022E+04</totfact>
</mgrwt>
</event>
<event>
 7    0  0.4784406E-002  0.4551438E+03  0.7546771E-02  0.1026199E+00
         21   -1    0    0  502  501  0.00000000000E+00  0.00000000000E+00  0.51786660409E+03  0.51786660409E+03  0.00000000000E+00 0. -1.
         21   -1    0    0  501  502 -0.00000000000E+00 -0.00000000000E+00 -0.10000447968E+03  0.10000447968E+03  0.00000000000E+00 0. -1.
      99926    2    1    2    0    0  0.71054273576E-14  0.00000000000E+00  0.41786212441E+03  0.61787108376E+03  0.45514384664E+03 0.  0.
      99925    2    3    3    0    0 -0.35503094203E+02  0.86040402000E+02  0.35077077157E+03  0.44812957970E+03  0.26290029582E+03 0.  0.
         25    1    3    3    0    0  0.35503094203E+02 -0.86040402000E+02  0.67091352842E+02  0.16974150406E+03  0.12509000000E+03 0.  0.
         25    1    4    4    0    0  0.95756777617E+01  0.42825766934E+02  0.21906816041E+03  0.25605489045E+03  0.12509000000E+03 0.  0.
         25    1    4    4    0    0 -0.45078771965E+02  0.43214635067E+02  0.13170261117E+03  0.19207468926E+03  0.12509000000E+03 0.  0.
<mgrwt>
<rscale>  2 0.45514385E+03</rscale>
<asrwt>0</asrwt>
<pdfrwt beam="1">  1       21 0.76156853E-01 0.45514385E+03</pdfrwt>
<pdfrwt beam="2">  1       21 0.14706541E-01 0.45514385E+03</pdfrwt>
<totfact> 0.57526149E+04</totfact>
</mgrwt>
</event>
<event>
 7    0  0.4784406E-002  0.4532642E+03  0.7546771E-02  0.1026753E+00
         21   -1    0    0  502  501  0.00000000000E+00  0.00000000000E+00  0.41534085136E+03  0.41534085136E+03  0.00000000000E+00 0. -1.
         21   -1    0    0  501  502 -0.00000000000E+00 -0.00000000000E+00 -0.12366255109E+03  0.12366255109E+03  0.00000000000E+00 0. -1.
      99926    2    1    2    0    0  0.00000000000E+00  0.00000000000E+00  0.29167830028E+03  0.53900340245E+03  0.45326420221E+03 0.  0.
      99925    2    3    3    0    0  0.52648413541E+02 -0.82106172112E+02  0.11947913579E+03  0.30488091464E+03  0.26299016955E+03 0.  0.
         25    1    3    3    0    0 -0.52648413541E+02  0.82106172112E+02  0.17219916448E+03  0.23412248781E+03  0.12509000000E+03 0.  0.
         25    1    4    4    0    0 -0.65674636963E+01 -0.22961970625E+02  0.34064102670E+02  0.13182660909E+03  0.12509000000E+03 0.  0.
         25    1    4    4    0    0  0.59215877238E+02 -0.59144201487E+02  0.85415033121E+02  0.17305430555E+03  0.12509000000E+03 0.  0.
<mgrwt>
<rscale>  2 0.45326420E+03</rscale>
<asrwt>0</asrwt>
<pdfrwt beam="1">  1       21 0.61079536E-01 0.45326420E+03</pdfrwt>
<pdfrwt beam="2">  1       21 0.18185669E-01 0.45326420E+03</pdfrwt>
<totfact> 0.63466450E+04</totfact>
</mgrwt>
</event>
<event>
 7    0  0.4784406E-002  0.4597737E+03  0.7546771E-02  0.1024847E+00
         21   -1    0    0  502  501  0.00000000000E+00  0.00000000000E+00  0.44229618197E+02  0.44229618197E+02  0.00000000000E+00 0.  1.
         21   -1    0    0  501  502 -0.00000000000E+00 -0.00000000000E+00 -0.11948547319E+04  0.11948547319E+04  0.00000000000E+00 0.  1.
      99926    2    1    2    0    0 -0.35527136788E-14  0.00000000000E+00 -0.11506251137E+04  0.12390843501E+04  0.45977372083E+03 0.  0.
      99925    2    3    3    0    0 -0.21252890659E+02 -0.27899343822E+02 -0.10235814797E+04  0.10573767504E+04  0.26286210817E+03 0.  0.
         25    1    3    3    0    0  0.21252890659E+02  0.27899343822E+02 -0.12704363393E+03  0.18170759964E+03  0.12509000000E+03 0.  0.
         25    1    4    4    0    0 -0.10534420000E+02 -0.53416205230E+02 -0.56480219258E+03  0.58104499811E+03  0.12509000000E+03 0.  0.
         25    1    4    4    0    0 -0.10718470660E+02  0.25516861408E+02 -0.45877928717E+03  0.47633175231E+03  0.12509000000E+03 0.  0.
<mgrwt>
<rscale>  2 0.45977372E+03</rscale>
<asrwt>0</asrwt>
<pdfrwt beam="1">  1       21 0.65043558E-02 0.45977372E+03</pdfrwt>
<pdfrwt beam="2">  1       21 0.17571393E+00 0.45977372E+03</pdfrwt>
<totfact> 0.29812913E+04</totfact>
</mgrwt>
</event>
<event>
 7    0  0.4784406E-002  0.4493882E+03  0.7546771E-02  0.1027905E+00
         21   -1    0    0  502  501  0.00000000000E+00  0.00000000000E+00  0.25632744856E+03  0.25632744856E+03  0.00000000000E+00 0. -1.
         21   -1    0    0  501  502 -0.00000000000E+00 -0.00000000000E+00 -0.19696466359E+03  0.19696466359E+03  0.00000000000E+00 0. -1.
      99926    2    1    2    0    0  0.00000000000E+00  0.00000000000E+00  0.59362784969E+02  0.45329211214E+03  0.44938824939E+03 0.  0.
      99925    2    3    3    0    0  0.60341520248E+02  0.45191166274E+02  0.11525709882E+03  0.29691109349E+03  0.26303737003E+03 0.  0.
         25    1    4    4    0    0  0.67248830181E+02  0.37925157987E+02  0.48649598910E+02  0.15483867199E+03  0.12509000000E+03 0.  0.
         25    1    4    4    0    0 -0.69073099338E+01  0.72660082869E+01  0.66607499908E+02  0.14207242150E+03  0.12509000000E+03 0.  0.
         25    1    3    3    0    0 -0.60341520248E+02 -0.45191166274E+02 -0.55894313848E+02  0.15638101865E+03  0.12509000000E+03 0.  0.
<mgrwt>
<rscale>  2 0.44938825E+03</rscale>
<asrwt>0</asrwt>
<pdfrwt beam="1">  1       21 0.37695213E-01 0.44938825E+03</pdfrwt>
<pdfrwt beam="2">  1       21 0.28965392E-01 0.44938825E+03</pdfrwt>
<totfact> 0.71833519E+04</totfact>
</mgrwt>
</event>
<event>
 7    0  0.4784406E-002  0.4521734E+03  0.7546771E-02  0.1027076E+00
         21   -1    0    0  502  501  0.00000000000E+00  0.00000000000E+00  0.15716254003E+03  0.15716254003E+03  0.00000000000E+00 0.  1.
         21   -1    0    0  501  502 -0.00000000000E+00 -0.00000000000E+00 -0.32523781806E+03  0.32523781806E+03  0.00000000000E+00 0.  1.
      99926    2    1    2    0    0  0.00000000000E+00  0.00000000000E+00 -0.16807527802E+03  0.48240035809E+03  0.45217342514E+03 0.  0.
      99925    2    3    3    0    0  0.58555674820E+02 -0.73395204624E+02 -0.16841485339E+03  0.32599304839E+03  0.26285410715E+03 0.  0.
         25    1    4    4    0    0  0.44536353701E+02 -0.81102423702E+00 -0.66440927754E+02  0.14847912157E+03  0.12509000000E+03 0.  0.
         25    1    3    3    0    0 -0.58555674820E+02  0.73395204624E+02  0.33957536646E+00  0.15640730970E+03  0.12509000000E+03 0.  0.
         25    1    4    4    0    0  0.14019321119E+02 -0.72584180387E+02 -0.10197392563E+03  0.17751392682E+03  0.12509000000E+03 0.  0.
<mgrwt>
<rscale>  2 0.45217343E+03</rscale>
<asrwt>0</asrwt>
<pdfrwt beam="1">  1       21 0.23112139E-01 0.45217343E+03</pdfrwt>
<pdfrwt beam="2">  1       21 0.47829090E-01 0.45217343E+03</pdfrwt>
<totfact> 0.68039692E+04</totfact>
</mgrwt>
</event>
<event>
 7    0  0.4784406E-002  0.4507192E+03  0.7546771E-02  0.1027508E+00
         21   -1    0    0  502  501  0.00000000000E+00  0.00000000000E+00  0.10397000833E+03  0.10397000833E+03  0.00000000000E+00 0. -1.
         21   -1    0    0  501  502 -0.00000000000E+00 -0.00000000000E+00 -0.48847696929E+03  0.48847696929E+03  0.00000000000E+00 0. -1.
      99926    2    1    2    0    0  0.00000000000E+00  0.00000000000E+00 -0.38450696096E+03  0.59244697762E+03  0.45071922331E+03 0.  0.
      99925    2    3    3    0    0  0.74951668666E+02 -0.26186053230E+02 -0.34166254990E+03  0.43821788283E+03  0.26267499464E+03 0.  0.
         25    1    4    4    0    0  0.56387785547E+02 -0.48820487113E+02 -0.19178839412E+03  0.24081801955E+03  0.12509000000E+03 0.  0.
         25    1    4    4    0    0  0.18563883119E+02  0.22634433884E+02 -0.14987415578E+03  0.19739986328E+03  0.12509000000E+03 0.  0.
         25    1    3    3    0    0 -0.74951668666E+02  0.26186053230E+02 -0.42844411069E+02  0.15422909479E+03  0.12509000000E+03 0.  0.
<mgrwt>
<rscale>  2 0.45071922E+03</rscale>
<asrwt>0</asrwt>
<pdfrwt beam="1">  1       21 0.15289707E-01 0.45071922E+03</pdfrwt>
<pdfrwt beam="2">  1       21 0.71834848E-01 0.45071922E+03</pdfrwt>
<totfact> 0.61189531E+04</totfact>
</mgrwt>
</event>
<event>
 7    0  0.4784406E-002  0.4574561E+03  0.7546771E-02  0.1025522E+00
         21   -1    0    0  502  501  0.00000000000E+00  0.00000000000E+00  0.30025968170E+03  0.30025968170E+03  0.00000000000E+00 0. -1.
         21   -1    0    0  501  502 -0.00000000000E+00 -0.00000000000E+00 -0.17423756308E+03  0.17423756308E+03  0.00000000000E+00 0. -1.
      99926    2    1    2    0    0  0.00000000000E+00 -0.17763568394E-14  0.12602211861E+03  0.47449724478E+03  0.45745607540E+03 0.  0.
      99925    2    3    3    0    0  0.76418261470E+02  0.11934183921E+02 -0.10225253965E+02  0.27401525041E+03  0.26267399225E+03 0.  0.
         25    1    3    3    0    0 -0.76418261470E+02 -0.11934183921E+02  0.13624737258E+03  0.20048199437E+03  0.12509000000E+03 0.  0.
         25    1    4    4    0    0  0.28204910961E+02 -0.20020888627E+02 -0.34000798502E+02  0.13416376330E+03  0.12509000000E+03 0.  0.
         25    1    4    4    0    0  0.48213350509E+02  0.31955072548E+02  0.23775544538E+02  0.13985148711E+03  0.12509000000E+03 0.  0.
<mgrwt>
<rscale>  2 0.45745608E+03</rscale>
<asrwt>0</asrwt>
<pdfrwt beam="1">  1       21 0.44155835E-01 0.45745608E+03</pdfrwt>
<pdfrwt beam="2">  1       21 0.25623171E-01 0.45745608E+03</pdfrwt>
<totfact> 0.65810969E+04</totfact>
</mgrwt>
</event>
<event>
 7    0  0.4784406E-002  0.4613046E+03  0.7546771E-02  0.1024404E+00
         21   -1    0    0  502  501  0.00000000000E+00  0.00000000000E+00  0.42352692777E+03  0.42352692777E+03  0.00000000000E+00 0.  1.
         21   -1    0    0  501  502 -0.00000000000E+00 -0.00000000000E+00 -0.12561299759E+03  0.12561299759E+03  0.00000000000E+00 0.  1.
      99926    2    1    2    0    0  0.00000000000E+00 -0.35527136788E-14  0.29791393018E+03  0.54913992535E+03  0.46130461500E+03 0.  0.
      99925    2    3    3    0    0  0.91566512718E+02  0.10081292201E+02  0.96237340590E+02  0.29456770850E+03  0.26272124098E+03 0.  0.
         25    1    4    4    0    0  0.69408372698E+02 -0.27468930811E+02  0.44000687254E+02  0.15216975041E+03  0.12509000000E+03 0.  0.
         25    1    4    4    0    0  0.22158140020E+02  0.37550223012E+02  0.52236653337E+02  0.14239795809E+03  0.12509000000E+03 0.  0.
         25    1    3    3    0    0 -0.91566512718E+02 -0.10081292201E+02  0.20167658959E+03  0.25457221685E+03  0.12509000000E+03 0.  0.
<mgrwt>
<rscale>  2 0.46130462E+03</rscale>
<asrwt>0</asrwt>
<pdfrwt beam="1">  1       21 0.62283371E-01 0.46130462E+03</pdfrwt>
<pdfrwt beam="2">  1       21 0.18472500E-01 0.46130462E+03</pdfrwt>
<totfact> 0.58928357E+04</totfact>
</mgrwt>
</event>
<event>
 7    0  0.4784406E-002  0.4406418E+03  0.7546771E-02  0.1030550E+00
         21   -1    0    0  502  501  0.00000000000E+00  0.00000000000E+00  0.17377411087E+03  0.17377411087E+03  0.00000000000E+00 0. -1.
         21   -1    0    0  501  502 -0.00000000000E+00 -0.00000000000E+00 -0.27933561411E+03  0.27933561411E+03  0.00000000000E+00 0. -1.
      99926    2    1    2    0    0  0.00000000000E+00  0.00000000000E+00 -0.10556150325E+03  0.45310972498E+03  0.44064179546E+03 0.  0.
      99925    2    3    3    0    0 -0.19193030673E+02  0.92746013191E+02 -0.36760966459E+02  0.28178775514E+03  0.26283602284E+03 0.  0.
         25    1    4    4    0    0 -0.38154257792E+01  0.21571212731E+02  0.15424508943E+02  0.12792692550E+03  0.12509000000E+03 0.  0.
         25    1    3    3    0    0  0.19193030673E+02 -0.92746013191E+02 -0.68800536787E+02  0.17132196984E+03  0.12509000000E+03 0.  0.
         25    1    4    4    0    0 -0.15377604894E+02  0.71174800460E+02 -0.52185475402E+02  0.15386082963E+03  0.12509000000E+03 0.  0.
<mgrwt>
<rscale>  2 0.44064180E+03</rscale>
<asrwt>0</asrwt>
<pdfrwt beam="1">  1       21 0.25555017E-01 0.44064180E+03</pdfrwt>
<pdfrwt beam="2">  1       21 0.41078766E-01 0.44064180E+03</pdfrwt>
<totfact> 0.77129811E+04</totfact>
</mgrwt>
</event>
<event>
 7    0  0.4784406E-002  0.4529030E+03  0.7546771E-02  0.1026860E+00
         21   -1    0    0  502  501  0.00000000000E+00  0.00000000000E+00  0.45019333104E+02  0.45019333104E+02  0.00000000000E+00 0.  1.
         21   -1    0    0  501  502 -0.00000000000E+00 -0.00000000000E+00 -0.11390723509E+04  0.11390723509E+04  0.00000000000E+00 0.  1.
      99926    2    1    2    0    0  0.14210854715E-13 -0.44408920985E-15 -0.10940530178E+04  0.11840916840E+04  0.45290298120E+03 0.  0.
      99925    2    3    3    0    0 -0.86755947029E+02  0.26734025799E+01 -0.50867581987E+03  0.57923821962E+03  0.26311990408E+03 0.  0.
         25    1    3    3    0    0  0.86755947029E+02 -0.26734025799E+01 -0.58537719794E+03  0.60485346440E+03  0.12509000000E+03 0.  0.
         25    1    4    4    0    0 -0.84363861804E+02  0.10757344611E+02 -0.29412001209E+03  0.33073716340E+03  0.12509000000E+03 0.  0.
         25    1    4    4    0    0 -0.23920852253E+01 -0.80839420310E+01 -0.21455580778E+03  0.24850105622E+03  0.12509000000E+03 0.  0.
<mgrwt>
<rscale>  2 0.45290298E+03</rscale>
<asrwt>0</asrwt>
<pdfrwt beam="1">  1       21 0.66204905E-02 0.45290298E+03</pdfrwt>
<pdfrwt beam="2">  1       21 0.16751063E+00 0.45290298E+03</pdfrwt>
<totfact> 0.33203436E+04</totfact>
</mgrwt>
</event>
<event>
 7    0  0.4784406E-002  0.4491069E+03  0.7546771E-02  0.1027989E+00
         21   -1    0    0  502  501  0.00000000000E+00  0.00000000000E+00  0.54214729190E+02  0.54214729190E+02  0.00000000000E+00 0.  1.
         21   -1    0    0  501  502 -0.00000000000E+00 -0.00000000000E+00 -0.93008383793E+03  0.93008383793E+03  0.00000000000E+00 0.  1.
      99926    2    1    2    0    0  0.17763568394E-14  0.00000000000E+00 -0.87586910874E+03  0.98429856712E+03  0.44910686210E+03 0.  0.
      99925    2    3    3    0    0 -0.15823473747E+02  0.67101113492E+02 -0.37326280694E+03  0.46179158682E+03  0.26300837413E+03 0.  0.
         25    1    3    3    0    0  0.15823473747E+02 -0.67101113492E+02 -0.50260630180E+03  0.52250698030E+03  0.12509000000E+03 0.  0.
         25    1    4    4    0    0  0.59427706618E+01 -0.54370805372E+01 -0.16122934737E+03  0.20422362479E+03  0.12509000000E+03 0.  0.
         25    1    4    4    0    0 -0.21766244409E+02  0.72538194029E+02 -0.21203345957E+03  0.25756796204E+03  0.12509000000E+03 0.  0.
<mgrwt>
<rscale>  2 0.44910686E+03</rscale>
<asrwt>0</asrwt>
<pdfrwt beam="1">  1       21 0.79727551E-02 0.44910686E+03</pdfrwt>
<pdfrwt beam="2">  1       21 0.13677702E+00 0.44910686E+03</pdfrwt>
<totfact> 0.41668313E+04</totfact>
</mgrwt>
</event>
<event>
 7    0  0.4784406E-002  0.4531665E+03  0.7546771E-02  0.1026782E+00
         21   -1    0    0  502  501  0.00000000000E+00  0.00000000000E+00  0.38564439799E+03  0.38564439799E+03  0.00000000000E+00 0. -1.
         21   -1    0    0  501  502 -0.00000000000E+00 -0.00000000000E+00 -0.13312772847E+03  0.13312772847E+03  0.00000000000E+00 0. -1.
      99926    2    1    2    0    0 -0.35527136788E-14  0.00000000000E+00  0.25251666952E+03  0.51877212646E+03  0.45316647140E+03 0.  0.
      99925    2    3    3    0    0  0.18508176791E+02 -0.97075308798E+02  0.10011988191E+03  0.29823084425E+03  0.26296668519E+03 0.  0.
         25    1    4    4    0    0  0.14691379120E+02 -0.73526827479E+01  0.34130363379E+02  0.13069922865E+03  0.12509000000E+03 0.  0.
         25    1    3    3    0    0 -0.18508176791E+02  0.97075308798E+02  0.15239678761E+03  0.22054128221E+03  0.12509000000E+03 0.  0.
         25    1    4    4    0    0  0.38167976718E+01 -0.89722626050E+02  0.65989518530E+02  0.16753161560E+03  0.12509000000E+03 0.  0.
<mgrwt>
<rscale>  2 0.45316647E+03</rscale>
<asrwt>0</asrwt>
<pdfrwt beam="1">  1       21 0.56712411E-01 0.45316647E+03</pdfrwt>
<pdfrwt beam="2">  1       21 0.19577607E-01 0.45316647E+03</pdfrwt>
<totfact> 0.64910114E+04</totfact>
</mgrwt>
</event>
<event>
 7    0  0.4784406E-002  0.4632795E+03  0.7546771E-02  0.1023834E+00
         21   -1    0    0  502  501  0.00000000000E+00  0.00000000000E+00  0.64928532867E+03  0.64928532867E+03  0.00000000000E+00 0.  1.
         21   -1    0    0  501  502 -0.00000000000E+00 -0.00000000000E+00 -0.82640057250E+02  0.82640057250E+02  0.00000000000E+00 0.  1.
      99926    2    1    2    0    0  0.71054273576E-14  0.14210854715E-13  0.56664527142E+03  0.73192538592E+03  0.46327951275E+03 0.  0.
      99925    2    3    3    0    0  0.42225167251E+02  0.69728123538E+02  0.49491914372E+03  0.56628384084E+03  0.26284492313E+03 0.  0.
         25    1    3    3    0    0 -0.42225167251E+02 -0.69728123538E+02  0.71726127698E+02  0.16564154508E+03  0.12509000000E+03 0.  0.
         25    1    4    4    0    0 -0.40893142082E+01  0.20046675847E+01  0.20984124896E+03  0.24433910667E+03  0.12509000000E+03 0.  0.
         25    1    4    4    0    0  0.46314481459E+02  0.67723455954E+02  0.28507789476E+03  0.32194473417E+03  0.12509000000E+03 0.  0.
<mgrwt>
<rscale>  2 0.46327951E+03</rscale>
<asrwt>0</asrwt>
<pdfrwt beam="1">  1       21 0.95483134E-01 0.46327951E+03</pdfrwt>
<pdfrwt beam="2">  1       21 0.12152950E-01 0.46327951E+03</pdfrwt>
<totfact> 0.48001426E+04</totfact>
</mgrwt>
</event>
<event>
 7    0  0.4784406E-002  0.4558751E+03  0.7546771E-02  0.1025984E+00
         21   -1    0    0  502  501  0.00000000000E+00  0.00000000000E+00  0.57660208413E+03  0.57660208413E+03  0.00000000000E+00 0. -1.
         21   -1    0    0  501  502 -0.00000000000E+00 -0.00000000000E+00 -0.90106372139E+02  0.90106372139E+02  0.00000000000E+00 0. -1.
      99926    2    1    2    0    0  0.00000000000E+00  0.00000000000E+00  0.48649571199E+03  0.66670845627E+03  0.45587507924E+03 0.  0.
      99925    2    3    3    0    0  0.53371214147E+02 -0.94744288565E+02  0.25657694897E+03  0.38327396224E+03  0.26313918878E+03 0.  0.
         25    1    4    4    0    0  0.46710012804E+01 -0.18576336094E+02  0.84736741823E+02  0.15229813535E+03  0.12509000000E+03 0.  0.
         25    1    3    3    0    0 -0.53371214147E+02  0.94744288565E+02  0.22991876302E+03  0.28343449403E+03  0.12509000000E+03 0.  0.
         25    1    4    4    0    0  0.48700212867E+02 -0.76167952471E+02  0.17184020715E+03  0.23097582689E+03  0.12509000000E+03 0.  0.
<mgrwt>
<rscale>  2 0.45587508E+03</rscale>
<asrwt>0</asrwt>
<pdfrwt beam="1">  1       21 0.84794422E-01 0.45587508E+03</pdfrwt>
<pdfrwt beam="2">  1       21 0.13250937E-01 0.45587508E+03</pdfrwt>
<totfact> 0.54371822E+04</totfact>
</mgrwt>
</event>
<event>
 7    0  0.4784406E-002  0.4563460E+03  0.7546771E-02  0.1025846E+00
         21   -1    0    0  502  501  0.00000000000E+00  0.00000000000E+00  0.34030344039E+03  0.34030344039E+03  0.00000000000E+00 0. -1.
         21   -1    0    0  501  502 -0.00000000000E+00 -0.00000000000E+00 -0.15298971095E+03  0.15298971095E+03  0.00000000000E+00 0. -1.
      99926    2    1    2    0    0  0.35527136788E-14  0.00000000000E+00  0.18731372944E+03  0.49329315134E+03  0.45634603090E+03 0.  0.
      99925    2    3    3    0    0 -0.18019478947E+02  0.78977012756E+02  0.20516793301E+03  0.34319867825E+03  0.26292466954E+03 0.  0.
         25    1    4    4    0    0 -0.40350681225E+02  0.46338328929E+02  0.13668775727E+03  0.19520878385E+03  0.12509000000E+03 0.  0.
         25    1    4    4    0    0  0.22331202278E+02  0.32638683827E+02  0.68480175741E+02  0.14798989441E+03  0.12509000000E+03 0.  0.
         25    1    3    3    0    0  0.18019478947E+02 -0.78977012756E+02 -0.17854203573E+02  0.15009447308E+03  0.12509000000E+03 0.  0.
<mgrwt>
<rscale>  2 0.45634603E+03</rscale>
<asrwt>0</asrwt>
<pdfrwt beam="1">  1       21 0.50044624E-01 0.45634603E+03</pdfrwt>
<pdfrwt beam="2">  1       21 0.22498487E-01 0.45634603E+03</pdfrwt>
<totfact> 0.65046597E+04</totfact>
</mgrwt>
</event>
<event>
 7    0  0.4784406E-002  0.4555880E+03  0.7546771E-02  0.1026069E+00
         21   -1    0    0  502  501  0.00000000000E+00  0.00000000000E+00  0.82133989882E+03  0.82133989882E+03  0.00000000000E+00 0.  1.
         21   -1    0    0  501  502 -0.00000000000E+00 -0.00000000000E+00 -0.63177374597E+02  0.63177374597E+02  0.00000000000E+00 0.  1.
      99926    2    1    2    0    0  0.00000000000E+00  0.00000000000E+00  0.75816252422E+03  0.88451727341E+03  0.45558796498E+03 0.  0.
      99925    2    3    3    0    0  0.12327472380E+02 -0.65708454492E+02  0.65619788536E+03  0.70983509560E+03  0.26229874310E+03 0.  0.
         25    1    3    3    0    0 -0.12327472380E+02  0.65708454492E+02  0.10196463886E+03  0.17468217781E+03  0.12509000000E+03 0.  0.
         25    1    4    4    0    0 -0.13867046696E+02 -0.49735113481E+02  0.25817982906E+03  0.29149649866E+03  0.12509000000E+03 0.  0.
         25    1    4    4    0    0  0.26194519076E+02 -0.15973341011E+02  0.39801805630E+03  0.41833859695E+03  0.12509000000E+03 0.  0.
<mgrwt>
<rscale>  2 0.45558796E+03</rscale>
<asrwt>0</asrwt>
<pdfrwt beam="1">  1       21 0.12078527E+00 0.45558796E+03</pdfrwt>
<pdfrwt beam="2">  1       21 0.92907909E-02 0.45558796E+03</pdfrwt>
<totfact> 0.43708293E+04</totfact>
</mgrwt>
</event>
<event>
 7    0  0.4784406E-002  0.4549525E+03  0.7546771E-02  0.1026255E+00
         21   -1    0    0  502  501  0.00000000000E+00  0.00000000000E+00  0.33077660294E+02  0.33077660294E+02  0.00000000000E+00 0. -1.
         21   -1    0    0  501  502 -0.00000000000E+00 -0.00000000000E+00 -0.15643625485E+04  0.15643625485E+04  0.00000000000E+00 0. -1.
      99926    2    1    2    0    0 -0.14210854715E-13 -0.17763568394E-14 -0.15312848882E+04  0.15974402088E+04  0.45495253799E+03 0.  0.
      99925    2    3    3    0    0  0.10191239146E+03  0.80335761743E+01 -0.11331175987E+04  0.11677480254E+04  0.26311458459E+03 0.  0.
         25    1    4    4    0    0  0.85947277733E+02 -0.31675469277E+01 -0.71243072042E+03  0.72842433197E+03  0.12509000000E+03 0.  0.
         25    1    4    4    0    0  0.15965113728E+02  0.11201123102E+02 -0.42068687824E+03  0.43932369347E+03  0.12509000000E+03 0.  0.
         25    1    3    3    0    0 -0.10191239146E+03 -0.80335761743E+01 -0.39816728956E+03  0.42969218337E+03  0.12509000000E+03 0.  0.
<mgrwt>
<rscale>  2 0.45495254E+03</rscale>
<asrwt>0</asrwt>
<pdfrwt beam="1">  1       21 0.48643623E-02 0.45495254E+03</pdfrwt>
<pdfrwt beam="2">  1       21 0.23005329E+00 0.45495254E+03</pdfrwt>
<totfact> 0.21495614E+04</totfact>
</mgrwt>
</event>
<event>
 6    0  0.4784406E-002  0.4519507E+03  0.7546771E-02  0.1027142E+00
         21   -1    0    0  502  501  0.00000000000E+00  0.00000000000E+00  0.13146558941E+03  0.13146558941E+03  0.00000000000E+00 0.  1.
         21   -1    0    0  501  502 -0.00000000000E+00 -0.00000000000E+00 -0.38842752402E+03  0.38842752402E+03  0.00000000000E+00 0.  1.
      99926    2    1    2    0    0  0.00000000000E+00  0.00000000000E+00 -0.25696193461E+03  0.51989311343E+03  0.45195067602E+03 0.  0.
         25    1    3    3    0    0 -0.10052873659E+02  0.29312449842E+00 -0.45392550042E+02  0.13345088194E+03  0.12509000000E+03 0.  0.
         25    1    3    3    0    0 -0.57932990615E+02  0.42058414585E+02 -0.18666574738E+03  0.23583203977E+03  0.12509000000E+03 0.  0.
         25    1    3    3    0    0  0.67985864274E+02 -0.42351539083E+02 -0.24903637190E+02  0.15061019172E+03  0.12509000000E+03 0.  0.
<mgrwt>
<rscale>  2 0.45195068E+03</rscale>
<asrwt>0</asrwt>
<pdfrwt beam="1">  1       21 0.19333175E-01 0.45195068E+03</pdfrwt>
<pdfrwt beam="2">  1       21 0.57121693E-01 0.45195068E+03</pdfrwt>
<totfact> 0.65463913E+04</totfact>
</mgrwt>
</event>
<event>
 7    0  0.4784406E-002  0.4558486E+03  0.7546771E-02  0.1025992E+00
         21   -1    0    0  502  501  0.00000000000E+00  0.00000000000E+00  0.21166969582E+03  0.21166969582E+03  0.00000000000E+00 0. -1.
         21   -1    0    0  501  502 -0.00000000000E+00 -0.00000000000E+00 -0.24542712294E+03  0.24542712294E+03  0.00000000000E+00 0. -1.
      99926    2    1    2    0    0  0.00000000000E+00  0.00000000000E+00 -0.33757427119E+02  0.45709681876E+03  0.45584859091E+03 0.  0.
      99925    2    3    3    0    0 -0.52326245154E+02  0.12803125029E+02 -0.12198369249E+03  0.29482131863E+03  0.26294035967E+03 0.  0.
         25    1    4    4    0    0 -0.43634522569E+01  0.20477837448E+02 -0.25043415569E+02  0.12927900953E+03  0.12509000000E+03 0.  0.
         25    1    4    4    0    0 -0.47962792897E+02 -0.76747124196E+01 -0.96940276918E+02  0.16554230910E+03  0.12509000000E+03 0.  0.
         25    1    3    3    0    0  0.52326245154E+02 -0.12803125029E+02  0.88226265368E+02  0.16227550013E+03  0.12509000000E+03 0.  0.
<mgrwt>
<rscale>  2 0.45584859E+03</rscale>
<asrwt>0</asrwt>
<pdfrwt beam="1">  1       21 0.31127897E-01 0.45584859E+03</pdfrwt>
<pdfrwt beam="2">  1       21 0.36092224E-01 0.45584859E+03</pdfrwt>
<totfact> 0.67931381E+04</totfact>
</mgrwt>
</event>
<event>
 7    0  0.4784406E-002  0.4472934E+03  0.7546771E-02  0.1028532E+00
         21   -1    0    0  502  501  0.00000000000E+00  0.00000000000E+00  0.10025661857E+03  0.10025661857E+03  0.00000000000E+00 0.  1.
         21   -1    0    0  501  502 -0.00000000000E+00 -0.00000000000E+00 -0.49889809966E+03  0.49889809966E+03  0.00000000000E+00 0.  1.
      99926    2    1    2    0    0 -0.14210854715E-13  0.00000000000E+00 -0.39864148109E+03  0.59915471823E+03  0.44729335556E+03 0.  0.
      99925    2    3    3    0    0 -0.10502481949E+03  0.10614001830E+02 -0.24389936594E+03  0.37390929642E+03  0.26301785395E+03 0.  0.
         25    1    4    4    0    0 -0.26803743869E+02 -0.15422523083E+02 -0.14704345318E+03  0.19551363157E+03  0.12509000000E+03 0.  0.
         25    1    3    3    0    0  0.10502481949E+03 -0.10614001830E+02 -0.15474211515E+03  0.22524542181E+03  0.12509000000E+03 0.  0.
         25    1    4    4    0    0 -0.78221075625E+02  0.26036524913E+02 -0.96855912758E+02  0.17839566485E+03  0.12509000000E+03 0.  0.
<mgrwt>
<rscale>  2 0.44729336E+03</rscale>
<asrwt>0</asrwt>
<pdfrwt beam="1">  1       21 0.14743621E-01 0.44729336E+03</pdfrwt>
<pdfrwt beam="2">  1       21 0.73367365E-01 0.44729336E+03</pdfrwt>
<totfact> 0.62446820E+04</totfact>
</mgrwt>
</event>
<event>
 7    0  0.4784406E-002  0.4554734E+03  0.7546771E-02  0.1026102E+00
         21   -1    0    0  502  501  0.00000000000E+00  0.00000000000E+00  0.15815465420E+04  0.15815465420E+04  0.00000000000E+00 0. -1.
         21   -1    0    0  501  502 -0.00000000000E+00 -0.00000000000E+00 -0.32793214094E+02  0.32793214094E+02  0.00000000000E+00 0. -1.
      99926    2    1    2    0    0  0.00000000000E+00  0.00000000000E+00  0.15487533279E+04  0.16143397561E+04  0.45547335532E+03 0.  0.
      99925    2    3    3    0    0  0.86165749417E+02  0.28882628156E+02  0.73325923910E+03  0.78431755184E+03  0.26310866161E+03 0.  0.
         25    1    3    3    0    0 -0.86165749417E+02 -0.28882628156E+02  0.81549408882E+03  0.83002220427E+03  0.12509000000E+03 0.  0.
         25    1    4    4    0    0  0.81405099665E+02  0.29351351635E+02  0.43622506832E+03  0.46198280317E+03  0.12509000000E+03 0.  0.
         25    1    4    4    0    0  0.47606497523E+01 -0.46872347901E+00  0.29703417078E+03  0.32233474867E+03  0.12509000000E+03 0.  0.
<mgrwt>
<rscale>  2 0.45547336E+03</rscale>
<asrwt>0</asrwt>
<pdfrwt beam="1">  1       21 0.23258032E+00 0.45547336E+03</pdfrwt>
<pdfrwt beam="2">  1       21 0.48225326E-02 0.45547336E+03</pdfrwt>
<totfact> 0.21030277E+04</totfact>
</mgrwt>
</event>
<event>
 7    0  0.4784406E-002  0.4542690E+03  0.7546771E-02  0.1026457E+00
         21   -1    0    0  502  501  0.00000000000E+00  0.00000000000E+00  0.44244815428E+03  0.44244815428E+03  0.00000000000E+00 0. -1.
         21   -1    0    0  501  502 -0.00000000000E+00 -0.00000000000E+00 -0.11660139244E+03  0.11660139244E+03  0.00000000000E+00 0. -1.
      99926    2    1    2    0    0  0.00000000000E+00  0.00000000000E+00  0.32584676184E+03  0.55904954672E+03  0.45426895502E+03 0.  0.
      99925    2    3    3    0    0  0.54222180569E+02 -0.42256853973E+02  0.31476951484E+03  0.41588565437E+03  0.26297403572E+03 0.  0.
         25    1    3    3    0    0 -0.54222180569E+02  0.42256853973E+02  0.11077246995E+02  0.14316389236E+03  0.12509000000E+03 0.  0.
         25    1    4    4    0    0  0.62690839202E+02 -0.38709848250E+02  0.18830085917E+03  0.23776735549E+03  0.12509000000E+03 0.  0.
         25    1    4    4    0    0 -0.84686586324E+01 -0.35470057235E+01  0.12646865567E+03  0.17811829888E+03  0.12509000000E+03 0.  0.
<mgrwt>
<rscale>  2 0.45426896E+03</rscale>
<asrwt>0</asrwt>
<pdfrwt beam="1">  1       21 0.65065904E-01 0.45426896E+03</pdfrwt>
<pdfrwt beam="2">  1       21 0.17147264E-01 0.45426896E+03</pdfrwt>
<totfact> 0.61628041E+04</totfact>
</mgrwt>
</event>
<event>
 7    0  0.4784406E-002  0.4606254E+03  0.7546771E-02  0.1024600E+00
         21   -1    0    0  502  501  0.00000000000E+00  0.00000000000E+00  0.21902459268E+03  0.21902459268E+03  0.00000000000E+00 0. -1.
         21   -1    0    0  501  502 -0.00000000000E+00 -0.00000000000E+00 -0.24218257325E+03  0.24218257325E+03  0.00000000000E+00 0. -1.
      99926    2    1    2    0    0  0.00000000000E+00 -0.14210854715E-13 -0.23157980571E+02  0.46120716593E+03  0.46062539861E+03 0.  0.
      99925    2    3    3    0    0  0.88961291883E+02  0.70818347953E+02  0.18281484968E+02  0.28715519880E+03  0.26304856138E+03 0.  0.
         25    1    3    3    0    0 -0.88961291883E+02 -0.70818347953E+02 -0.41439465540E+02  0.17405196714E+03  0.12509000000E+03 0.  0.
         25    1    4    4    0    0  0.60437495470E+02 -0.21572896600E+01  0.10872780194E+02  0.13936667538E+03  0.12509000000E+03 0.  0.
         25    1    4    4    0    0  0.28523796413E+02  0.72975637613E+02  0.74087047747E+01  0.14778852342E+03  0.12509000000E+03 0.  0.
<mgrwt>
<rscale>  2 0.46062540E+03</rscale>
<asrwt>0</asrwt>
<pdfrwt beam="1">  1       21 0.32209499E-01 0.46062540E+03</pdfrwt>
<pdfrwt beam="2">  1       21 0.35615084E-01 0.46062540E+03</pdfrwt>
<totfact> 0.65121096E+04</totfact>
</mgrwt>
</event>
<event>
 7    0  0.4784406E-002  0.4523863E+03  0.7546771E-02  0.1027013E+00
         21   -1    0    0  502  501  0.00000000000E+00  0.00000000000E+00  0.19171492978E+03  0.19171492978E+03  0.00000000000E+00 0. -1.
         21   -1    0    0  501  502 -0.00000000000E+00 -0.00000000000E+00 -0.26687202219E+03  0.26687202219E+03  0.00000000000E+00 0. -1.
      99926    2    1    2    0    0  0.00000000000E+00 -0.14210854715E-13 -0.75157092416E+02  0.45858695197E+03  0.45238634371E+03 0.  0.
      99925    2    3    3    0    0  0.33875315715E+02 -0.10265544205E+03 -0.73015689022E+02  0.29324557631E+03  0.26263282427E+03 0.  0.
         25    1    4    4    0    0  0.36611320619E+02 -0.87378305798E+02 -0.27974530355E+02  0.15939083904E+03  0.12509000000E+03 0.  0.
         25    1    4    4    0    0 -0.27360049045E+01 -0.15277136254E+02 -0.45041158667E+02  0.13385473727E+03  0.12509000000E+03 0.  0.
         25    1    3    3    0    0 -0.33875315715E+02  0.10265544205E+03 -0.21414033944E+01  0.16534137566E+03  0.12509000000E+03 0.  0.
<mgrwt>
<rscale>  2 0.45238634E+03</rscale>
<asrwt>0</asrwt>
<pdfrwt beam="1">  1       21 0.28193372E-01 0.45238634E+03</pdfrwt>
<pdfrwt beam="2">  1       21 0.39245885E-01 0.45238634E+03</pdfrwt>
<totfact> 0.69725555E+04</totfact>
</mgrwt>
</event>
<event>
 7    0  0.4784406E-002  0.4492257E+03  0.7546771E-02  0.1027953E+00
         21   -1    0    0  502  501  0.00000000000E+00  0.00000000000E+00  0.18876151139E+03  0.18876151139E+03  0.00000000000E+00 0.  1.
         21   -1    0    0  501  502 -0.00000000000E+00 -0.00000000000E+00 -0.26727345787E+03  0.26727345787E+03  0.00000000000E+00 0.  1.
      99926    2    1    2    0    0  0.00000000000E+00  0.00000000000E+00 -0.78511946485E+02  0.45603496926E+03  0.44922574219E+03 0.  0.
      99925    2    3    3    0    0 -0.27845153197E+02  0.77380275852E+02  0.20927915460E+02  0.27631615030E+03  0.26296307273E+03 0.  0.
         25    1    4    4    0    0 -0.68520349926E+00  0.83801298520E+01  0.35146066029E+02  0.13020541516E+03  0.12509000000E+03 0.  0.
         25    1    4    4    0    0 -0.27159949698E+02  0.69000146000E+02 -0.14218150569E+02  0.14611073513E+03  0.12509000000E+03 0.  0.
         25    1    3    3    0    0  0.27845153197E+02 -0.77380275852E+02 -0.99439861945E+02  0.17971881897E+03  0.12509000000E+03 0.  0.
<mgrwt>
<rscale>  2 0.44922574E+03</rscale>
<asrwt>0</asrwt>
<pdfrwt beam="1">  1       21 0.27759046E-01 0.44922574E+03</pdfrwt>
<pdfrwt beam="2">  1       21 0.39304920E-01 0.44922574E+03</pdfrwt>
<totfact> 0.71716123E+04</totfact>
</mgrwt>
</event>
<event>
 7    0  0.4784406E-002  0.4581197E+03  0.7546771E-02  0.1025328E+00
         21   -1    0    0  502  501  0.00000000000E+00  0.00000000000E+00  0.38391167223E+02  0.38391167223E+02  0.00000000000E+00 0. -1.
         21   -1    0    0  501  502 -0.00000000000E+00 -0.00000000000E+00 -0.13666794008E+04  0.13666794008E+04  0.00000000000E+00 0. -1.
      99926    2    1    2    0    0  0.00000000000E+00  0.88817841970E-15 -0.13282882336E+04  0.14050705680E+04  0.45811971107E+03 0.  0.
      99925    2    3    3    0    0  0.49446867968E+02 -0.18024651043E+01 -0.51123597023E+03  0.57701854624E+03  0.26294475431E+03 0.  0.
         25    1    4    4    0    0 -0.40849659745E+00 -0.27875546342E+02 -0.20985159433E+03  0.24589105860E+03  0.12509000000E+03 0.  0.
         25    1    4    4    0    0  0.49855364566E+02  0.26073081238E+02 -0.30138437590E+03  0.33112748765E+03  0.12509000000E+03 0.  0.
         25    1    3    3    0    0 -0.49446867968E+02  0.18024651043E+01 -0.81705226336E+03  0.82805202180E+03  0.12509000000E+03 0.  0.
<mgrwt>
<rscale>  2 0.45811971E+03</rscale>
<asrwt>0</asrwt>
<pdfrwt beam="1">  1       21 0.56457594E-02 0.45811971E+03</pdfrwt>
<pdfrwt beam="2">  1       21 0.20098228E+00 0.45811971E+03</pdfrwt>
<totfact> 0.25571610E+04</totfact>
</mgrwt>
</event>
<event>
 7    0  0.4784406E-002  0.4547245E+03  0.7546771E-02  0.1026322E+00
         21   -1    0    0  502  501  0.00000000000E+00  0.00000000000E+00  0.24537964295E+03  0.24537964295E+03  0.00000000000E+00 0. -1.
         21   -1    0    0  501  502 -0.00000000000E+00 -0.00000000000E+00 -0.21066780155E+03  0.21066780155E+03  0.00000000000E+00 0. -1.
      99926    2    1    2    0    0  0.00000000000E+00  0.00000000000E+00  0.34711841407E+02  0.45604744450E+03  0.45472448768E+03 0.  0.
      99925    2    3    3    0    0 -0.46624154003E+02  0.88934125706E+01  0.12548337899E+03  0.29436910749E+03  0.26201944301E+03 0.  0.
         25    1    4    4    0    0  0.30361783538E+01 -0.12896271923E+02  0.34416497238E+02  0.13041294257E+03  0.12509000000E+03 0.  0.
         25    1    4    4    0    0 -0.49660332357E+02  0.21789684493E+02  0.91066881755E+02  0.16395616491E+03  0.12509000000E+03 0.  0.
         25    1    3    3    0    0  0.46624154003E+02 -0.88934125706E+01 -0.90771537586E+02  0.16167833701E+03  0.12509000000E+03 0.  0.
<mgrwt>
<rscale>  2 0.45472449E+03</rscale>
<asrwt>0</asrwt>
<pdfrwt beam="1">  1       21 0.36085242E-01 0.45472449E+03</pdfrwt>
<pdfrwt beam="2">  1       21 0.30980559E-01 0.45472449E+03</pdfrwt>
<totfact> 0.68619879E+04</totfact>
</mgrwt>
</event>
<event>
 7    0  0.4784406E-002  0.4583603E+03  0.7546771E-02  0.1025258E+00
         21   -1    0    0  502  501  0.00000000000E+00  0.00000000000E+00  0.10996260398E+03  0.10996260398E+03  0.00000000000E+00 0. -1.
         21   -1    0    0  501  502 -0.00000000000E+00 -0.00000000000E+00 -0.47764916735E+03  0.47764916735E+03  0.00000000000E+00 0. -1.
      99926    2    1    2    0    0  0.35527136788E-14  0.00000000000E+00 -0.36768656337E+03  0.58761177134E+03  0.45836032216E+03 0.  0.
      99925    2    3    3    0    0  0.22898681545E+02 -0.10508796368E+03 -0.28823889841E+03  0.40450724028E+03  0.26263399466E+03 0.  0.
         25    1    3    3    0    0 -0.22898681545E+02  0.10508796368E+03 -0.79447664960E+02  0.18310453106E+03  0.12509000000E+03 0.  0.
         25    1    4    4    0    0  0.19747302638E+02 -0.74483348552E+02 -0.10526994527E+03  0.18074013016E+03  0.12509000000E+03 0.  0.
         25    1    4    4    0    0  0.31513789072E+01 -0.30604615131E+02 -0.18296895314E+03  0.22376711012E+03  0.12509000000E+03 0.  0.
<mgrwt>
<rscale>  2 0.45836032E+03</rscale>
<asrwt>0</asrwt>
<pdfrwt beam="1">  1       21 0.16170971E-01 0.45836032E+03</pdfrwt>
<pdfrwt beam="2">  1       21 0.70242524E-01 0.45836032E+03</pdfrwt>
<totfact> 0.57894255E+04</totfact>
</mgrwt>
</event>
<event>
 7    0  0.4784406E-002  0.4440171E+03  0.7546771E-02  0.1029521E+00
         21   -1    0    0  502  501  0.00000000000E+00  0.00000000000E+00  0.58784545193E+02  0.58784545193E+02  0.00000000000E+00 0.  1.
         21   -1    0    0  501  502 -0.00000000000E+00 -0.00000000000E+00 -0.83844814659E+03  0.83844814659E+03  0.00000000000E+00 0.  1.
      99926    2    1    2    0    0 -0.71054273576E-14  0.00000000000E+00 -0.77966360140E+03  0.89723269178E+03  0.44401708510E+03 0.  0.
      99925    2    3    3    0    0 -0.33133997312E+02  0.82773202159E+02 -0.39340013390E+03  0.48154502153E+03  0.26300699162E+03 0.  0.
         25    1    4    4    0    0 -0.23804514412E+02  0.83357385773E+02 -0.21000524956E+03  0.25935462520E+03  0.12509000000E+03 0.  0.
         25    1    3    3    0    0  0.33133997312E+02 -0.82773202159E+02 -0.38626346750E+03  0.41568767025E+03  0.12509000000E+03 0.  0.
         25    1    4    4    0    0 -0.93294828996E+01 -0.58418361360E+00 -0.18339488434E+03  0.22219039633E+03  0.12509000000E+03 0.  0.
<mgrwt>
<rscale>  2 0.44401709E+03</rscale>
<asrwt>0</asrwt>
<pdfrwt beam="1">  1       21 0.86447859E-02 0.44401709E+03</pdfrwt>
<pdfrwt beam="2">  1       21 0.12330120E+00 0.44401709E+03</pdfrwt>
<totfact> 0.47289535E+04</totfact>
</mgrwt>
</event>
<event>
 7    0  0.4784406E-002  0.4550101E+03  0.7546771E-02  0.1026238E+00
         21   -1    0    0  502  501  0.00000000000E+00  0.00000000000E+00  0.10404507746E+03  0.10404507746E+03  0.00000000000E+00 0.  1.
         21   -1    0    0  501  502 -0.00000000000E+00 -0.00000000000E+00 -0.49746279373E+03  0.49746279373E+03  0.00000000000E+00 0.  1.
      99926    2    1    2    0    0 -0.35527136788E-14  0.00000000000E+00 -0.39341771626E+03  0.60150787119E+03  0.45501013135E+03 0.  0.
      99925    2    3    3    0    0 -0.30877540632E+02  0.10465852812E+03 -0.20605356482E+03  0.35118874813E+03  0.26261880210E+03 0.  0.
         25    1    3    3    0    0  0.30877540632E+02 -0.10465852812E+03 -0.18736415144E+03  0.25031912305E+03  0.12509000000E+03 0.  0.
         25    1    4    4    0    0 -0.50502087781E+01  0.68753505016E+02 -0.63083594674E+02  0.15613967170E+03  0.12509000000E+03 0.  0.
         25    1    4    4    0    0 -0.25827331854E+02  0.35905023102E+02 -0.14296997015E+03  0.19504907644E+03  0.12509000000E+03 0.  0.
<mgrwt>
<rscale>  2 0.45501013E+03</rscale>
<asrwt>0</asrwt>
<pdfrwt beam="1">  1       21 0.15300747E-01 0.45501013E+03</pdfrwt>
<pdfrwt beam="2">  1       21 0.73156291E-01 0.45501013E+03</pdfrwt>
<totfact> 0.58580861E+04</totfact>
</mgrwt>
</event>
<event>
 7    0  0.4784406E-002  0.4050527E+03  0.7546771E-02  0.1042044E+00
         21   -1    0    0  502  501  0.00000000000E+00  0.00000000000E+00  0.65459533176E+02  0.65459533176E+02  0.00000000000E+00 0.  1.
         21   -1    0    0  501  502 -0.00000000000E+00 -0.00000000000E+00 -0.62659973668E+03  0.62659973668E+03  0.00000000000E+00 0.  1.
      99926    2    1    2    0    0  0.71054273576E-14  0.44408920985E-15 -0.56114020351E+03  0.69205926986E+03  0.40505271880E+03 0.  0.
      99925    2    3    3    0    0  0.50887566007E+02 -0.59227289791E+00 -0.33730002357E+03  0.43063656729E+03  0.26284339830E+03 0.  0.
         25    1    3    3    0    0 -0.50887566007E+02  0.59227289791E+00 -0.22384017994E+03  0.26142270257E+03  0.12509000000E+03 0.  0.
         25    1    4    4    0    0  0.46977357406E+02  0.27234314690E+02 -0.14081282638E+03  0.19602127481E+03  0.12509000000E+03 0.  0.
         25    1    4    4    0    0  0.39102086009E+01 -0.27826587588E+02 -0.19648719719E+03  0.23461529248E+03  0.12509000000E+03 0.  0.
<mgrwt>
<rscale>  2 0.40505272E+03</rscale>
<asrwt>0</asrwt>
<pdfrwt beam="1">  1       21 0.96264019E-02 0.40505272E+03</pdfrwt>
<pdfrwt beam="2">  1       21 0.92147020E-01 0.40505272E+03</pdfrwt>
<totfact> 0.80679418E+04</totfact>
</mgrwt>
</event>
<event>
 7    0  0.4784406E-002  0.4441841E+03  0.7546771E-02  0.1029471E+00
         21   -1    0    0  502  501  0.00000000000E+00  0.00000000000E+00  0.43339452941E+03  0.43339452941E+03  0.00000000000E+00 0. -1.
         21   -1    0    0  501  502 -0.00000000000E+00 -0.00000000000E+00 -0.11381056061E+03  0.11381056061E+03  0.00000000000E+00 0. -1.
      99926    2    1    2    0    0  0.00000000000E+00  0.00000000000E+00  0.31958396880E+03  0.54720509002E+03  0.44418408057E+03 0.  0.
      99925    2    3    3    0    0  0.50781053480E+02  0.43604317210E+02  0.29963621311E+03  0.40393795168E+03  0.26249563183E+03 0.  0.
         25    1    4    4    0    0 -0.10249790327E+02  0.25089267834E+02  0.17031735518E+03  0.21304938192E+03  0.12509000000E+03 0.  0.
         25    1    4    4    0    0  0.61030843807E+02  0.18515049376E+02  0.12931885793E+03  0.19088856976E+03  0.12509000000E+03 0.  0.
         25    1    3    3    0    0 -0.50781053480E+02 -0.43604317210E+02  0.19947755692E+02  0.14326713834E+03  0.12509000000E+03 0.  0.
<mgrwt>
<rscale>  2 0.44418408E+03</rscale>
<asrwt>0</asrwt>
<pdfrwt beam="1">  1       21 0.63734489E-01 0.44418408E+03</pdfrwt>
<pdfrwt beam="2">  1       21 0.16736847E-01 0.44418408E+03</pdfrwt>
<totfact> 0.67658493E+04</totfact>
</mgrwt>
</event>
<event>
 7    0  0.4784406E-002  0.4756796E+03  0.7546771E-02  0.1020329E+00
         21   -1    0    0  502  501  0.00000000000E+00  0.00000000000E+00  0.42598484640E+03  0.42598484640E+03  0.00000000000E+00 0. -1.
         21   -1    0    0  501  502 -0.00000000000E+00 -0.00000000000E+00 -0.13279290865E+03  0.13279290865E+03  0.00000000000E+00 0. -1.
      99926    2    1    2    0    0  0.00000000000E+00  0.00000000000E+00  0.29319193775E+03  0.55877775504E+03  0.47567958456E+03 0.  0.
      99925    2    3    3    0    0 -0.17636678927E+02 -0.76847740053E+02  0.30499014721E+03  0.41044254870E+03  0.26311113297E+03 0.  0.
         25    1    4    4    0    0  0.42818463118E+00 -0.63245841049E+02  0.11233871715E+03  0.17963216645E+03  0.12509000000E+03 0.  0.
         25    1    3    3    0    0  0.17636678927E+02  0.76847740053E+02 -0.11798209458E+02  0.14833520634E+03  0.12509000000E+03 0.  0.
         25    1    4    4    0    0 -0.18064863558E+02 -0.13601899004E+02  0.19265143006E+03  0.23081038225E+03  0.12509000000E+03 0.  0.
<mgrwt>
<rscale>  2 0.47567958E+03</rscale>
<asrwt>0</asrwt>
<pdfrwt beam="1">  1       21 0.62644830E-01 0.47567958E+03</pdfrwt>
<pdfrwt beam="2">  1       21 0.19528369E-01 0.47567958E+03</pdfrwt>
<totfact> 0.52206924E+04</totfact>
</mgrwt>
</event>
<event>
 7    0  0.4784406E-002  0.4551066E+03  0.7546771E-02  0.1026210E+00
         21   -1    0    0  502  501  0.00000000000E+00  0.00000000000E+00  0.54475768704E+03  0.54475768704E+03  0.00000000000E+00 0.  1.
         21   -1    0    0  501  502 -0.00000000000E+00 -0.00000000000E+00 -0.95052363269E+02  0.95052363269E+02  0.00000000000E+00 0.  1.
      99926    2    1    2    0    0  0.14210854715E-13  0.00000000000E+00  0.44970532377E+03  0.63981005031E+03  0.45510660537E+03 0.  0.
      99925    2    3    3    0    0  0.83877017391E+02 -0.27142874462E+02  0.18296485502E+03  0.33228757073E+03  0.26299582089E+03 0.  0.
         25    1    4    4    0    0  0.14903242017E+02 -0.41705192395E+00  0.11974915561E+03  0.17380923141E+03  0.12509000000E+03 0.  0.
         25    1    4    4    0    0  0.68973775374E+02 -0.26725822538E+02  0.63215699412E+02  0.15847833931E+03  0.12509000000E+03 0.  0.
         25    1    3    3    0    0 -0.83877017391E+02  0.27142874462E+02  0.26674046875E+03  0.30752247959E+03  0.12509000000E+03 0.  0.
<mgrwt>
<rscale>  2 0.45510661E+03</rscale>
<asrwt>0</asrwt>
<pdfrwt beam="1">  1       21 0.80111422E-01 0.45510661E+03</pdfrwt>
<pdfrwt beam="2">  1       21 0.13978289E-01 0.45510661E+03</pdfrwt>
<totfact> 0.56245048E+04</totfact>
</mgrwt>
</event>
<event>
 7    0  0.4784406E-002  0.4600875E+03  0.7546771E-02  0.1024756E+00
         21   -1    0    0  502  501  0.00000000000E+00  0.00000000000E+00  0.58499413390E+03  0.58499413390E+03  0.00000000000E+00 0. -1.
         21   -1    0    0  501  502 -0.00000000000E+00 -0.00000000000E+00 -0.90462644409E+02  0.90462644409E+02  0.00000000000E+00 0. -1.
      99926    2    1    2    0    0  0.00000000000E+00  0.00000000000E+00  0.49453148949E+03  0.67545677831E+03  0.46008745393E+03 0.  0.
      99925    2    3    3    0    0  0.75345780034E+02  0.63394473724E+02  0.21455803054E+03  0.35338769925E+03  0.26296743457E+03 0.  0.
         25    1    4    4    0    0  0.23229120974E+02  0.32633012554E+02  0.56649207222E+02  0.14304246345E+03  0.12509000000E+03 0.  0.
         25    1    4    4    0    0  0.52116659061E+02  0.30761461170E+02  0.15790882332E+03  0.21034523581E+03  0.12509000000E+03 0.  0.
         25    1    3    3    0    0 -0.75345780034E+02 -0.63394473724E+02  0.27997345895E+03  0.32206907906E+03  0.12509000000E+03 0.  0.
<mgrwt>
<rscale>  2 0.46008745E+03</rscale>
<asrwt>0</asrwt>
<pdfrwt beam="1">  1       21 0.86028547E-01 0.46008745E+03</pdfrwt>
<pdfrwt beam="2">  1       21 0.13303330E-01 0.46008745E+03</pdfrwt>
<totfact> 0.52134094E+04</totfact>
</mgrwt>
</event>
<event>
 7    0  0.4784406E-002  0.4641834E+03  0.7546771E-02  0.1023575E+00
         21   -1    0    0  502  501  0.00000000000E+00  0.00000000000E+00  0.25069298096E+03  0.25069298096E+03  0.00000000000E+00 0.  1.
         21   -1    0    0  501  502 -0.00000000000E+00 -0.00000000000E+00 -0.21487065783E+03  0.21487065783E+03  0.00000000000E+00 0.  1.
      99926    2    1    2    0    0  0.00000000000E+00  0.00000000000E+00  0.35822323129E+02  0.46556363878E+03  0.46418343672E+03 0.  0.
      99925    2    3    3    0    0 -0.10930781891E+03  0.34339517758E+02 -0.19685064045E+02  0.28708120299E+03  0.26248945429E+03 0.  0.
         25    1    4    4    0    0 -0.30140816895E+02  0.14455647948E+02 -0.41859787958E+02  0.13607786208E+03  0.12509000000E+03 0.  0.
         25    1    4    4    0    0 -0.79167002013E+02  0.19883869811E+02  0.22174723913E+02  0.15100334091E+03  0.12509000000E+03 0.  0.
         25    1    3    3    0    0  0.10930781891E+03 -0.34339517758E+02  0.55507387174E+02  0.17848243579E+03  0.12509000000E+03 0.  0.
<mgrwt>
<rscale>  2 0.46418344E+03</rscale>
<asrwt>0</asrwt>
<pdfrwt beam="1">  1       21 0.36866615E-01 0.46418344E+03</pdfrwt>
<pdfrwt beam="2">  1       21 0.31598626E-01 0.46418344E+03</pdfrwt>
<totfact> 0.63032108E+04</totfact>
</mgrwt>
</event>
<event>
 7    0  0.4784406E-002  0.4558573E+03  0.7546771E-02  0.1025990E+00
         21   -1    0    0  502  501  0.00000000000E+00  0.00000000000E+00  0.31009833561E+03  0.31009833561E+03  0.00000000000E+00 0.  1.
         21   -1    0    0  501  502 -0.00000000000E+00 -0.00000000000E+00 -0.16753226964E+03  0.16753226964E+03  0.00000000000E+00 0.  1.
      99926    2    1    2    0    0  0.00000000000E+00  0.00000000000E+00  0.14256606597E+03  0.47763060525E+03  0.45585733723E+03 0.  0.
      99925    2    3    3    0    0 -0.77095372377E+02  0.80123192825E+02  0.62966660898E+02  0.29230118002E+03  0.26289115045E+03 0.  0.
         25    1    4    4    0    0 -0.26987469298E+02  0.56893669780E+00  0.40421951285E+02  0.13420167448E+03  0.12509000000E+03 0.  0.
         25    1    3    3    0    0  0.77095372377E+02 -0.80123192825E+02  0.79599405069E+02  0.18532942523E+03  0.12509000000E+03 0.  0.
         25    1    4    4    0    0 -0.50107903079E+02  0.79554256127E+02  0.22544709612E+02  0.15809950553E+03  0.12509000000E+03 0.  0.
<mgrwt>
<rscale>  2 0.45585734E+03</rscale>
<asrwt>0</asrwt>
<pdfrwt beam="1">  1       21 0.45602696E-01 0.45585734E+03</pdfrwt>
<pdfrwt beam="2">  1       21 0.24637099E-01 0.45585734E+03</pdfrwt>
<totfact> 0.66419882E+04</totfact>
</mgrwt>
</event>
<event>
 7    0  0.4784406E-002  0.4557084E+03  0.7546771E-02  0.1026033E+00
         21   -1    0    0  502  501  0.00000000000E+00  0.00000000000E+00  0.26777654948E+03  0.26777654948E+03  0.00000000000E+00 0.  1.
         21   -1    0    0  501  502 -0.00000000000E+00 -0.00000000000E+00 -0.19388384514E+03  0.19388384514E+03  0.00000000000E+00 0.  1.
      99926    2    1    2    0    0 -0.14210854715E-13 -0.14210854715E-13  0.73892704338E+02  0.46166039462E+03  0.45570844649E+03 0.  0.
      99925    2    3    3    0    0 -0.57930334747E+02 -0.68927311458E+02 -0.24119734921E+02  0.27901088244E+03  0.26297987178E+03 0.  0.
         25    1    3    3    0    0  0.57930334747E+02  0.68927311458E+02  0.98012439260E+02  0.18264951218E+03  0.12509000000E+03 0.  0.
         25    1    4    4    0    0 -0.87896427141E+01  0.20155461587E+01 -0.19385896187E+01  0.12542960765E+03  0.12509000000E+03 0.  0.
         25    1    4    4    0    0 -0.49140692033E+02 -0.70942857616E+02 -0.22181145303E+02  0.15358127479E+03  0.12509000000E+03 0.  0.
<mgrwt>
<rscale>  2 0.45570845E+03</rscale>
<asrwt>0</asrwt>
<pdfrwt beam="1">  1       21 0.39378905E-01 0.45570845E+03</pdfrwt>
<pdfrwt beam="2">  1       21 0.28512330E-01 0.45570845E+03</pdfrwt>
<totfact> 0.67676532E+04</totfact>
</mgrwt>
</event>
<event>
 7    0  0.4784406E-002  0.4773569E+03  0.7546771E-02  0.1019864E+00
         21   -1    0    0  502  501  0.00000000000E+00  0.00000000000E+00  0.11519635115E+03  0.11519635115E+03  0.00000000000E+00 0. -1.
         21   -1    0    0  501  502 -0.00000000000E+00 -0.00000000000E+00 -0.49452435860E+03  0.49452435860E+03  0.00000000000E+00 0. -1.
      99926    2    1    2    0    0  0.35527136788E-14  0.00000000000E+00 -0.37932800745E+03  0.60972070975E+03  0.47735689653E+03 0.  0.
      99925    2    3    3    0    0 -0.18492171548E+02  0.11341982298E+03 -0.31988061212E+03  0.42975538652E+03  0.26298302146E+03 0.  0.
         25    1    4    4    0    0 -0.24474043523E+02  0.46633149139E+02 -0.10223038538E+03  0.16991818384E+03  0.12509000000E+03 0.  0.
         25    1    3    3    0    0  0.18492171548E+02 -0.11341982298E+03 -0.59447395326E+02  0.17996532323E+03  0.12509000000E+03 0.  0.
         25    1    4    4    0    0  0.59818719742E+01  0.66786673843E+02 -0.21765022674E+03  0.25983720268E+03  0.12509000000E+03 0.  0.
<mgrwt>
<rscale>  2 0.47735690E+03</rscale>
<asrwt>0</asrwt>
<pdfrwt beam="1">  1       21 0.16940640E-01 0.47735690E+03</pdfrwt>
<pdfrwt beam="2">  1       21 0.72724171E-01 0.47735690E+03</pdfrwt>
<totfact> 0.48864444E+04</totfact>
</mgrwt>
</event>
<event>
 7    0  0.4784406E-002  0.4501315E+03  0.7546771E-02  0.1027683E+00
         21   -1    0    0  502  501  0.00000000000E+00  0.00000000000E+00  0.26021150535E+02  0.26021150535E+02  0.00000000000E+00 0. -1.
         21   -1    0    0  501  502 -0.00000000000E+00 -0.00000000000E+00 -0.19466696577E+04  0.19466696577E+04  0.00000000000E+00 0. -1.
      99926    2    1    2    0    0  0.88817841970E-15  0.00000000000E+00 -0.19206485071E+04  0.19726908082E+04  0.45013146615E+03 0.  0.
      99925    2    3    3    0    0  0.47797759898E+01 -0.84230260063E+02 -0.15131136586E+04  0.15381223512E+04  0.26303961754E+03 0.  0.
         25    1    4    4    0    0 -0.21869111727E+02 -0.31466947655E+02 -0.56381545693E+03  0.57879513164E+03  0.12509000000E+03 0.  0.
         25    1    4    4    0    0  0.26648887717E+02 -0.52763312408E+02 -0.94929820167E+03  0.95932721954E+03  0.12509000000E+03 0.  0.
         25    1    3    3    0    0 -0.47797759898E+01  0.84230260063E+02 -0.40753484855E+03  0.43456845704E+03  0.12509000000E+03 0.  0.
<mgrwt>
<rscale>  2 0.45013147E+03</rscale>
<asrwt>0</asrwt>
<pdfrwt beam="1">  1       21 0.38266399E-02 0.45013147E+03</pdfrwt>
<pdfrwt beam="2">  1       21 0.28627494E+00 0.45013147E+03</pdfrwt>
<totfact> 0.14708873E+04</totfact>
</mgrwt>
</event>
<event>
 7    0  0.4784406E-002  0.4533205E+03  0.7546771E-02  0.1026736E+00
         21   -1    0    0  502  501  0.00000000000E+00  0.00000000000E+00  0.30427084843E+03  0.30427084843E+03  0.00000000000E+00 0.  1.
         21   -1    0    0  501  502 -0.00000000000E+00 -0.00000000000E+00 -0.16884586847E+03  0.16884586847E+03  0.00000000000E+00 0.  1.
      99926    2    1    2    0    0  0.00000000000E+00  0.00000000000E+00  0.13542497996E+03  0.47311671690E+03  0.45332052966E+03 0.  0.
      99925    2    3    3    0    0  0.92874021352E+02  0.40884196966E+02  0.37041531507E+02  0.28437373708E+03  0.26305749539E+03 0.  0.
         25    1    4    4    0    0  0.84628781620E+02  0.30950771176E+02  0.34309872629E+01  0.15420525506E+03  0.12509000000E+03 0.  0.
         25    1    4    4    0    0  0.82452397314E+01  0.99334257901E+01  0.33610544244E+02  0.13016848202E+03  0.12509000000E+03 0.  0.
         25    1    3    3    0    0 -0.92874021352E+02 -0.40884196966E+02  0.98383448449E+02  0.18874297982E+03  0.12509000000E+03 0.  0.
<mgrwt>
<rscale>  2 0.45332053E+03</rscale>
<asrwt>0</asrwt>
<pdfrwt beam="1">  1       21 0.44745713E-01 0.45332053E+03</pdfrwt>
<pdfrwt beam="2">  1       21 0.24830275E-01 0.45332053E+03</pdfrwt>
<totfact> 0.68107868E+04</totfact>
</mgrwt>
</event>
<event>
 7    0  0.4784406E-002  0.4587824E+03  0.7546771E-02  0.1025135E+00
         21   -1    0    0  502  501  0.00000000000E+00  0.00000000000E+00  0.49010430113E+03  0.49010430113E+03  0.00000000000E+00 0.  1.
         21   -1    0    0  501  502 -0.00000000000E+00 -0.00000000000E+00 -0.10736556521E+03  0.10736556521E+03  0.00000000000E+00 0.  1.
      99926    2    1    2    0    0  0.14210854715E-13  0.00000000000E+00  0.38273873592E+03  0.59746986634E+03  0.45878241162E+03 0.  0.
      99925    2    3    3    0    0  0.10833511603E+03  0.43020083355E+02  0.24783957519E+03  0.37967979172E+03  0.26295449087E+03 0.  0.
         25    1    4    4    0    0  0.46914778151E+02 -0.17376253862E+02  0.13256304904E+03  0.18900635089E+03  0.12509000000E+03 0.  0.
         25    1    3    3    0    0 -0.10833511603E+03 -0.43020083355E+02  0.13489916073E+03  0.21779007462E+03  0.12509000000E+03 0.  0.
         25    1    4    4    0    0  0.61420337883E+02  0.60396337216E+02  0.11527652616E+03  0.19067344083E+03  0.12509000000E+03 0.  0.
<mgrwt>
<rscale>  2 0.45878241E+03</rscale>
<asrwt>0</asrwt>
<pdfrwt beam="1">  1       21 0.72074161E-01 0.45878241E+03</pdfrwt>
<pdfrwt beam="2">  1       21 0.15789054E-01 0.45878241E+03</pdfrwt>
<totfact> 0.57108159E+04</totfact>
</mgrwt>
</event>
<event>
 7    0  0.4784406E-002  0.4579480E+03  0.7546771E-02  0.1025378E+00
         21   -1    0    0  502  501  0.00000000000E+00  0.00000000000E+00  0.81069083498E+02  0.81069083498E+02  0.00000000000E+00 0.  1.
         21   -1    0    0  501  502 -0.00000000000E+00 -0.00000000000E+00 -0.64672108034E+03  0.64672108034E+03  0.00000000000E+00 0.  1.
      99926    2    1    2    0    0  0.00000000000E+00 -0.71054273576E-14 -0.56565199685E+03  0.72779016384E+03  0.45794796762E+03 0.  0.
      99925    2    3    3    0    0 -0.52393767382E+02 -0.58539387165E+02 -0.49029345089E+03  0.56196379302E+03  0.26314191984E+03 0.  0.
         25    1    4    4    0    0 -0.32723944120E+02 -0.10026442665E+02 -0.16744710219E+03  0.21179571809E+03  0.12509000000E+03 0.  0.
         25    1    3    3    0    0  0.52393767382E+02  0.58539387165E+02 -0.75358545959E+02  0.16582637082E+03  0.12509000000E+03 0.  0.
         25    1    4    4    0    0 -0.19669823262E+02 -0.48512944500E+02 -0.32284634870E+03  0.35016807493E+03  0.12509000000E+03 0.  0.
<mgrwt>
<rscale>  2 0.45794797E+03</rscale>
<asrwt>0</asrwt>
<pdfrwt beam="1">  1       21 0.11921924E-01 0.45794797E+03</pdfrwt>
<pdfrwt beam="2">  1       21 0.95106043E-01 0.45794797E+03</pdfrwt>
<totfact> 0.50245013E+04</totfact>
</mgrwt>
</event>
<event>
 7    0  0.4784406E-002  0.4570281E+03  0.7546771E-02  0.1025647E+00
         21   -1    0    0  502  501  0.00000000000E+00  0.00000000000E+00  0.30041363074E+02  0.30041363074E+02  0.00000000000E+00 0. -1.
         21   -1    0    0  501  502 -0.00000000000E+00 -0.00000000000E+00 -0.17382257110E+04  0.17382257110E+04  0.00000000000E+00 0. -1.
      99926    2    1    2    0    0  0.00000000000E+00  0.35527136788E-14 -0.17081843479E+04  0.17682670741E+04  0.45702809405E+03 0.  0.
      99925    2    3    3    0    0 -0.34685574010E+02 -0.23490287315E+02 -0.14857347380E+04  0.15096433712E+04  0.26431139551E+03 0.  0.
         25    1    4    4    0    0 -0.44292696924E+02  0.12803282968E+02 -0.87523240224E+03  0.88532764166E+03  0.12509000000E+03 0.  0.
         25    1    3    3    0    0  0.34685574010E+02  0.23490287315E+02 -0.22244960991E+03  0.25862370288E+03  0.12509000000E+03 0.  0.
         25    1    4    4    0    0  0.96071229140E+01 -0.36293570284E+02 -0.61050233580E+03  0.62431572956E+03  0.12509000000E+03 0.  0.
<mgrwt>
<rscale>  2 0.45702809E+03</rscale>
<asrwt>0</asrwt>
<pdfrwt beam="1">  1       21 0.44178461E-02 0.45702809E+03</pdfrwt>
<pdfrwt beam="2">  1       21 0.25562151E+00 0.45702809E+03</pdfrwt>
<totfact> 0.17598499E+04</totfact>
</mgrwt>
</event>
<event>
 7    0  0.4784406E-002  0.4565462E+03  0.7546771E-02  0.1025788E+00
         21   -1    0    0  502  501  0.00000000000E+00  0.00000000000E+00  0.15823848162E+03  0.15823848162E+03  0.00000000000E+00 0.  1.
         21   -1    0    0  501  502 -0.00000000000E+00 -0.00000000000E+00 -0.32930428743E+03  0.32930428743E+03  0.00000000000E+00 0.  1.
      99926    2    1    2    0    0  0.00000000000E+00  0.00000000000E+00 -0.17106580581E+03  0.48754276904E+03  0.45654620985E+03 0.  0.
      99925    2    3    3    0    0  0.58417565514E+02 -0.97611940959E+02 -0.12346627720E+03  0.31188991196E+03  0.26285108445E+03 0.  0.
         25    1    3    3    0    0 -0.58417565514E+02  0.97611940959E+02 -0.47599528614E+02  0.17565285709E+03  0.12509000000E+03 0.  0.
         25    1    4    4    0    0  0.34431342155E+02 -0.91751815084E+02 -0.68184694773E+02  0.17291782324E+03  0.12509000000E+03 0.  0.
         25    1    4    4    0    0  0.23986223360E+02 -0.58601258748E+01 -0.55281582427E+02  0.13897208872E+03  0.12509000000E+03 0.  0.
<mgrwt>
<rscale>  2 0.45654621E+03</rscale>
<asrwt>0</asrwt>
<pdfrwt beam="1">  1       21 0.23270365E-01 0.45654621E+03</pdfrwt>
<pdfrwt beam="2">  1       21 0.48427101E-01 0.45654621E+03</pdfrwt>
<totfact> 0.65349181E+04</totfact>
</mgrwt>
</event>
<event>
 7    0  0.4784406E-002  0.4655856E+03  0.7546771E-02  0.1023174E+00
         21   -1    0    0  502  501  0.00000000000E+00  0.00000000000E+00  0.71575636704E+02  0.71575636704E+02  0.00000000000E+00 0. -1.
         21   -1    0    0  501  502 -0.00000000000E+00 -0.00000000000E+00 -0.75713593615E+03  0.75713593615E+03  0.00000000000E+00 0. -1.
      99926    2    1    2    0    0  0.00000000000E+00  0.00000000000E+00 -0.68556029945E+03  0.82871157286E+03  0.46558559557E+03 0.  0.
      99925    2    3    3    0    0 -0.41917334830E+02  0.41158996003E+01 -0.63272729613E+03  0.68653971232E+03  0.26309492913E+03 0.  0.
         25    1    3    3    0    0  0.41917334830E+02 -0.41158996003E+01 -0.52833003317E+02  0.14217186054E+03  0.12509000000E+03 0.  0.
         25    1    4    4    0    0 -0.60702576286E+02 -0.49071953090E+01 -0.30988149343E+03  0.33968063148E+03  0.12509000000E+03 0.  0.
         25    1    4    4    0    0  0.18785241456E+02  0.90230949094E+01 -0.32284580270E+03  0.34685908084E+03  0.12509000000E+03 0.  0.
<mgrwt>
<rscale>  2 0.46558560E+03</rscale>
<asrwt>0</asrwt>
<pdfrwt beam="1">  1       21 0.10525830E-01 0.46558560E+03</pdfrwt>
<pdfrwt beam="2">  1       21 0.11134351E+00 0.46558560E+03</pdfrwt>
<totfact> 0.42744818E+04</totfact>
</mgrwt>
</event>
<event>
 7    0  0.4784406E-002  0.4596713E+03  0.7546771E-02  0.1024877E+00
         21   -1    0    0  502  501  0.00000000000E+00  0.00000000000E+00  0.27791703586E+03  0.27791703586E+03  0.00000000000E+00 0.  1.
         21   -1    0    0  501  502 -0.00000000000E+00 -0.00000000000E+00 -0.19007264620E+03  0.19007264620E+03  0.00000000000E+00 0.  1.
      99926    2    1    2    0    0  0.00000000000E+00  0.00000000000E+00  0.87844389660E+02  0.46798968206E+03  0.45967130182E+03 0.  0.
      99925    2    3    3    0    0 -0.56578989689E+02 -0.10592564285E+02  0.15934524018E+03  0.31283406915E+03  0.26298453331E+03 0.  0.
         25    1    4    4    0    0 -0.44173269850E+02  0.16974271435E+02  0.46258929249E+02  0.14151607787E+03  0.12509000000E+03 0.  0.
         25    1    4    4    0    0 -0.12405719839E+02 -0.27566835720E+02  0.11308631093E+03  0.17131799128E+03  0.12509000000E+03 0.  0.
         25    1    3    3    0    0  0.56578989689E+02  0.10592564285E+02 -0.71500850522E+02  0.15515561291E+03  0.12509000000E+03 0.  0.
<mgrwt>
<rscale>  2 0.45967130E+03</rscale>
<asrwt>0</asrwt>
<pdfrwt beam="1">  1       21 0.40870152E-01 0.45967130E+03</pdfrwt>
<pdfrwt beam="2">  1       21 0.27951860E-01 0.45967130E+03</pdfrwt>
<totfact> 0.65136292E+04</totfact>
</mgrwt>
</event>
<event>
 7    0  0.4784406E-002  0.4571022E+03  0.7546771E-02  0.1025625E+00
         21   -1    0    0  502  501  0.00000000000E+00  0.00000000000E+00  0.11260644994E+03  0.11260644994E+03  0.00000000000E+00 0. -1.
         21   -1    0    0  501  502 -0.00000000000E+00 -0.00000000000E+00 -0.46387749077E+03  0.46387749077E+03  0.00000000000E+00 0. -1.
      99926    2    1    2    0    0  0.00000000000E+00  0.71054273576E-14 -0.35127104083E+03  0.57648394070E+03  0.45710216556E+03 0.  0.
      99925    2    3    3    0    0  0.63755366428E+02  0.34077198652E+02 -0.33371124592E+03  0.43094406056E+03  0.26291364638E+03 0.  0.
         25    1    4    4    0    0 -0.14370463669E+01  0.77991786977E+00 -0.12503086038E+03  0.17686971906E+03  0.12509000000E+03 0.  0.
         25    1    3    3    0    0 -0.63755366428E+02 -0.34077198652E+02 -0.17559794909E+02  0.14553988015E+03  0.12509000000E+03 0.  0.
         25    1    4    4    0    0  0.65192412795E+02  0.33297280782E+02 -0.20868038555E+03  0.25407434149E+03  0.12509000000E+03 0.  0.
<mgrwt>
<rscale>  2 0.45710217E+03</rscale>
<asrwt>0</asrwt>
<pdfrwt beam="1">  1       21 0.16559772E-01 0.45710217E+03</pdfrwt>
<pdfrwt beam="2">  1       21 0.68217280E-01 0.45710217E+03</pdfrwt>
<totfact> 0.59160166E+04</totfact>
</mgrwt>
</event>
<event>
 7    0  0.4784406E-002  0.4586882E+03  0.7546771E-02  0.1025162E+00
         21   -1    0    0  502  501  0.00000000000E+00  0.00000000000E+00  0.98837227408E+03  0.98837227408E+03  0.00000000000E+00 0. -1.
         21   -1    0    0  501  502 -0.00000000000E+00 -0.00000000000E+00 -0.53217510696E+02  0.53217510696E+02  0.00000000000E+00 0. -1.
      99926    2    1    2    0    0  0.17763568394E-14  0.00000000000E+00  0.93515476338E+03  0.10415897848E+04  0.45868818196E+03 0.  0.
      99925    2    3    3    0    0 -0.15012853441E+02  0.18375996507E+02  0.32578881347E+03  0.41906473947E+03  0.26251446031E+03 0.  0.
         25    1    4    4    0    0  0.25154667953E+02  0.27394860290E+02  0.14065286283E+03  0.19186967351E+03  0.12509000000E+03 0.  0.
         25    1    4    4    0    0 -0.40167521394E+02 -0.90188637834E+01  0.18513595064E+03  0.22719506596E+03  0.12509000000E+03 0.  0.
         25    1    3    3    0    0  0.15012853441E+02 -0.18375996507E+02  0.60936594991E+03  0.62252504530E+03  0.12509000000E+03 0.  0.
<mgrwt>
<rscale>  2 0.45868818E+03</rscale>
<asrwt>0</asrwt>
<pdfrwt beam="1">  1       21 0.14534885E+00 0.45868818E+03</pdfrwt>
<pdfrwt beam="2">  1       21 0.78261051E-02 0.45868818E+03</pdfrwt>
<totfact> 0.36524588E+04</totfact>
</mgrwt>
</event>
<event>
 7    0  0.4784406E-002  0.4593253E+03  0.7546771E-02  0.1024977E+00
         21   -1    0    0  502  501  0.00000000000E+00  0.00000000000E+00  0.42954595929E+02  0.42954595929E+02  0.00000000000E+00 0.  1.
         21   -1    0    0  501  502 -0.00000000000E+00 -0.00000000000E+00 -0.12279228611E+04  0.12279228611E+04  0.00000000000E+00 0.  1.
      99926    2    1    2    0    0  0.71054273576E-14  0.71054273576E-14 -0.11849682652E+04  0.12708774570E+04  0.45932528923E+03 0.  0.
      99925    2    3    3    0    0  0.54529153248E+02  0.56998391998E+02 -0.50284117591E+03  0.57290387641E+03  0.26295885261E+03 0.  0.
         25    1    4    4    0    0  0.13305697455E+02 -0.24298940669E+01 -0.28450765008E+03  0.31108689625E+03  0.12509000000E+03 0.  0.
         25    1    3    3    0    0 -0.54529153248E+02 -0.56998391998E+02 -0.68212708926E+03  0.69797358062E+03  0.12509000000E+03 0.  0.
         25    1    4    4    0    0  0.41223455793E+02  0.59428286065E+02 -0.21833352584E+03  0.26181698015E+03  0.12509000000E+03 0.  0.
<mgrwt>
<rscale>  2 0.45932529E+03</rscale>
<asrwt>0</asrwt>
<pdfrwt beam="1">  1       21 0.63168523E-02 0.45932529E+03</pdfrwt>
<pdfrwt beam="2">  1       21 0.18057689E+00 0.45932529E+03</pdfrwt>
<totfact> 0.28984288E+04</totfact>
</mgrwt>
</event>
<event>
 7    0  0.4784406E-002  0.4426717E+03  0.7546771E-02  0.1029930E+00
         21   -1    0    0  502  501  0.00000000000E+00  0.00000000000E+00  0.37964475230E+03  0.37964475230E+03  0.00000000000E+00 0.  1.
         21   -1    0    0  501  502 -0.00000000000E+00 -0.00000000000E+00 -0.12904054537E+03  0.12904054537E+03  0.00000000000E+00 0.  1.
      99926    2    1    2    0    0 -0.14210854715E-13  0.35527136788E-14  0.25060420693E+03  0.50868529766E+03  0.44267173337E+03 0.  0.
      99925    2    3    3    0    0 -0.69471929748E+02  0.26752651490E+02  0.23828236626E+03  0.36259837408E+03  0.26297726409E+03 0.  0.
         25    1    4    4    0    0 -0.31778038690E+02  0.64591290859E+01  0.65040679509E+02  0.14466983854E+03  0.12509000000E+03 0.  0.
         25    1    3    3    0    0  0.69471929748E+02 -0.26752651490E+02  0.12321840668E+02  0.14608692358E+03  0.12509000000E+03 0.  0.
         25    1    4    4    0    0 -0.37693891058E+02  0.20293522404E+02  0.17324168675E+03  0.21792853554E+03  0.12509000000E+03 0.  0.
<mgrwt>
<rscale>  2 0.44267173E+03</rscale>
<asrwt>0</asrwt>
<pdfrwt beam="1">  1       21 0.55830110E-01 0.44267173E+03</pdfrwt>
<pdfrwt beam="2">  1       21 0.18976551E-01 0.44267173E+03</pdfrwt>
<totfact> 0.71397494E+04</totfact>
</mgrwt>
</event>
<event>
 7    0  0.4784406E-002  0.4531552E+03  0.7546771E-02  0.1026785E+00
         21   -1    0    0  502  501  0.00000000000E+00  0.00000000000E+00  0.23319363638E+03  0.23319363638E+03  0.00000000000E+00 0. -1.
         21   -1    0    0  501  502 -0.00000000000E+00 -0.00000000000E+00 -0.22014931221E+03  0.22014931221E+03  0.00000000000E+00 0. -1.
      99926    2    1    2    0    0  0.00000000000E+00  0.00000000000E+00  0.13044324163E+02  0.45334294859E+03  0.45315524343E+03 0.  0.
      99925    2    3    3    0    0 -0.53183936354E+02  0.95333235901E+02  0.30901938676E+02  0.28635983732E+03  0.26292597754E+03 0.  0.
         25    1    4    4    0    0 -0.46593404389E+02  0.23714238631E+02  0.41208012040E+02  0.14170010163E+03  0.12509000000E+03 0.  0.
         25    1    4    4    0    0 -0.65905319651E+01  0.71618997269E+02 -0.10306073364E+02  0.14465973569E+03  0.12509000000E+03 0.  0.
         25    1    3    3    0    0  0.53183936354E+02 -0.95333235901E+02 -0.17857614514E+02  0.16698311127E+03  0.12509000000E+03 0.  0.
<mgrwt>
<rscale>  2 0.45315524E+03</rscale>
<asrwt>0</asrwt>
<pdfrwt beam="1">  1       21 0.34293182E-01 0.45315524E+03</pdfrwt>
<pdfrwt beam="2">  1       21 0.32374899E-01 0.45315524E+03</pdfrwt>
<totfact> 0.69687474E+04</totfact>
</mgrwt>
</event>
<event>
 7    0  0.4784406E-002  0.4313797E+03  0.7546771E-02  0.1033425E+00
         21   -1    0    0  502  501  0.00000000000E+00  0.00000000000E+00  0.27166526318E+03  0.27166526318E+03  0.00000000000E+00 0. -1.
         21   -1    0    0  501  502 -0.00000000000E+00 -0.00000000000E+00 -0.17124788926E+03  0.17124788926E+03  0.00000000000E+00 0. -1.
      99926    2    1    2    0    0  0.00000000000E+00  0.14210854715E-13  0.10041737392E+03  0.44291315244E+03  0.43137966065E+03 0.  0.
      99925    2    3    3    0    0  0.23689797449E+02  0.80821218390E+02  0.94785125945E+02  0.29200753239E+03  0.26304163744E+03 0.  0.
         25    1    4    4    0    0 -0.22789462459E+02  0.18860951124E+02  0.53201577080E+02  0.13911509976E+03  0.12509000000E+03 0.  0.
         25    1    3    3    0    0 -0.23689797449E+02 -0.80821218390E+02  0.56322479698E+01  0.15090562005E+03  0.12509000000E+03 0.  0.
         25    1    4    4    0    0  0.46479259908E+02  0.61960267266E+02  0.41583548866E+02  0.15289243264E+03  0.12509000000E+03 0.  0.
<mgrwt>
<rscale>  2 0.43137966E+03</rscale>
<asrwt>0</asrwt>
<pdfrwt beam="1">  1       21 0.39950774E-01 0.43137966E+03</pdfrwt>
<pdfrwt beam="2">  1       21 0.25183513E-01 0.43137966E+03</pdfrwt>
<totfact> 0.84208952E+04</totfact>
</mgrwt>
</event>
<event>
 7    0  0.4784406E-002  0.4389500E+03  0.7546771E-02  0.1031069E+00
         21   -1    0    0  502  501  0.00000000000E+00  0.00000000000E+00  0.13699065249E+04  0.13699065249E+04  0.00000000000E+00 0. -1.
         21   -1    0    0  501  502 -0.00000000000E+00 -0.00000000000E+00 -0.35162446749E+02  0.35162446749E+02  0.00000000000E+00 0. -1.
      99926    2    1    2    0    0  0.00000000000E+00  0.00000000000E+00  0.13347440782E+04  0.14050689717E+04  0.43894995265E+03 0.  0.
      99925    2    3    3    0    0 -0.84002454569E+02 -0.22385517374E+02  0.71288539518E+03  0.76482428916E+03  0.26304578095E+03 0.  0.
         25    1    3    3    0    0  0.84002454569E+02  0.22385517374E+02  0.62185868298E+03  0.64024468249E+03  0.12509000000E+03 0.  0.
         25    1    4    4    0    0 -0.73487754827E+01  0.12033012042E+02  0.34664350195E+03  0.36879265642E+03  0.12509000000E+03 0.  0.
         25    1    4    4    0    0 -0.76653679086E+02 -0.34418529416E+02  0.36624189322E+03  0.39603163275E+03  0.12509000000E+03 0.  0.
<mgrwt>
<rscale>  2 0.43894995E+03</rscale>
<asrwt>0</asrwt>
<pdfrwt beam="1">  1       21 0.20145681E+00 0.43894995E+03</pdfrwt>
<pdfrwt beam="2">  1       21 0.51709490E-02 0.43894995E+03</pdfrwt>
<totfact> 0.29736929E+04</totfact>
</mgrwt>
</event>
<event>
 7    0  0.4784406E-002  0.4457402E+03  0.7546771E-02  0.1029000E+00
         21   -1    0    0  502  501  0.00000000000E+00  0.00000000000E+00  0.42889984429E+03  0.42889984429E+03  0.00000000000E+00 0. -1.
         21   -1    0    0  501  502 -0.00000000000E+00 -0.00000000000E+00 -0.11581043903E+03  0.11581043903E+03  0.00000000000E+00 0. -1.
      99926    2    1    2    0    0  0.71054273576E-14  0.00000000000E+00  0.31308940526E+03  0.54471028331E+03  0.44574019009E+03 0.  0.
      99925    2    3    3    0    0 -0.34838688461E+02  0.47992322201E+02  0.30346821692E+03  0.40594042863E+03  0.26301649323E+03 0.  0.
         25    1    3    3    0    0  0.34838688461E+02 -0.47992322201E+02  0.96211883349E+01  0.13876985468E+03  0.12509000000E+03 0.  0.
         25    1    4    4    0    0  0.22779555453E+02  0.30512068807E+02  0.14390180616E+03  0.19443541962E+03  0.12509000000E+03 0.  0.
         25    1    4    4    0    0 -0.57618243914E+02  0.17480253395E+02  0.15956641076E+03  0.21150500901E+03  0.12509000000E+03 0.  0.
<mgrwt>
<rscale>  2 0.44574019E+03</rscale>
<asrwt>0</asrwt>
<pdfrwt beam="1">  1       21 0.63073506E-01 0.44574019E+03</pdfrwt>
<pdfrwt beam="2">  1       21 0.17030947E-01 0.44574019E+03</pdfrwt>
<totfact> 0.66992799E+04</totfact>
</mgrwt>
</event>
<event>
 7    0  0.4784406E-002  0.4530873E+03  0.7546771E-02  0.1026805E+00
         21   -1    0    0  502  501  0.00000000000E+00  0.00000000000E+00  0.66758081596E+03  0.66758081596E+03  0.00000000000E+00 0. -1.
         21   -1    0    0  501  502 -0.00000000000E+00 -0.00000000000E+00 -0.76877607549E+02  0.76877607549E+02  0.00000000000E+00 0. -1.
      99926    2    1    2    0    0  0.00000000000E+00 -0.71054273576E-14  0.59070320841E+03  0.74445842351E+03  0.45308725860E+03 0.  0.
      99925    2    3    3    0    0  0.78317403458E+02  0.52026995907E+02  0.47230435972E+03  0.54822840679E+03  0.26199724010E+03 0.  0.
         25    1    3    3    0    0 -0.78317403458E+02 -0.52026995907E+02  0.11839884869E+03  0.19623001671E+03  0.12509000000E+03 0.  0.
         25    1    4    4    0    0  0.82328197903E+00  0.12172751618E+02  0.20253296048E+03  0.23836099064E+03  0.12509000000E+03 0.  0.
         25    1    4    4    0    0  0.77494121479E+02  0.39854244289E+02  0.26977139923E+03  0.30986741616E+03  0.12509000000E+03 0.  0.
<mgrwt>
<rscale>  2 0.45308726E+03</rscale>
<asrwt>0</asrwt>
<pdfrwt beam="1">  1       21 0.98173647E-01 0.45308726E+03</pdfrwt>
<pdfrwt beam="2">  1       21 0.11305531E-01 0.45308726E+03</pdfrwt>
<totfact> 0.51322021E+04</totfact>
</mgrwt>
</event>
<event>
 7    0  0.4784406E-002  0.4738347E+03  0.7546771E-02  0.1020843E+00
         21   -1    0    0  502  501  0.00000000000E+00  0.00000000000E+00  0.22640019951E+03  0.22640019951E+03  0.00000000000E+00 0.  1.
         21   -1    0    0  501  502 -0.00000000000E+00 -0.00000000000E+00 -0.24792301778E+03  0.24792301778E+03  0.00000000000E+00 0.  1.
      99926    2    1    2    0    0 -0.14210854715E-13  0.00000000000E+00 -0.21522818278E+02  0.47432321729E+03  0.47383465761E+03 0.  0.
      99925    2    3    3    0    0  0.12165441277E+03  0.31170371962E+02  0.20452912928E+02  0.29216708002E+03  0.26300549949E+03 0.  0.
         25    1    3    3    0    0 -0.12165441277E+03 -0.31170371962E+02 -0.41975731207E+02  0.18215613727E+03  0.12509000000E+03 0.  0.
         25    1    4    4    0    0  0.56825174909E+02  0.11374418564E+02  0.50378686461E+02  0.14677873841E+03  0.12509000000E+03 0.  0.
         25    1    4    4    0    0  0.64829237864E+02  0.19795953398E+02 -0.29925773533E+02  0.14538834160E+03  0.12509000000E+03 0.  0.
<mgrwt>
<rscale>  2 0.47383466E+03</rscale>
<asrwt>0</asrwt>
<pdfrwt beam="1">  1       21 0.33294147E-01 0.47383466E+03</pdfrwt>
<pdfrwt beam="2">  1       21 0.36459267E-01 0.47383466E+03</pdfrwt>
<totfact> 0.57943143E+04</totfact>
</mgrwt>
</event>
<event>
 7    0  0.4784406E-002  0.4623053E+03  0.7546771E-02  0.1024115E+00
         21   -1    0    0  502  501  0.00000000000E+00  0.00000000000E+00  0.64312806517E+02  0.64312806517E+02  0.00000000000E+00 0.  1.
         21   -1    0    0  501  502 -0.00000000000E+00 -0.00000000000E+00 -0.83080714079E+03  0.83080714079E+03  0.00000000000E+00 0.  1.
      99926    2    1    2    0    0  0.00000000000E+00  0.00000000000E+00 -0.76649433428E+03  0.89511994731E+03  0.46230526235E+03 0.  0.
      99925    2    3    3    0    0 -0.87997765265E+02  0.36359610747E+02 -0.33868845850E+03  0.43934477967E+03  0.26315078476E+03 0.  0.
         25    1    4    4    0    0 -0.51521094550E+02 -0.21866633889E+02 -0.16039757650E+03  0.21096792057E+03  0.12509000000E+03 0.  0.
         25    1    4    4    0    0 -0.36476670716E+02  0.58226244636E+02 -0.17829088200E+03  0.22837685911E+03  0.12509000000E+03 0.  0.
         25    1    3    3    0    0  0.87997765265E+02 -0.36359610747E+02 -0.42780587578E+03  0.45577516764E+03  0.12509000000E+03 0.  0.
<mgrwt>
<rscale>  2 0.46230526E+03</rscale>
<asrwt>0</asrwt>
<pdfrwt beam="1">  1       21 0.94577663E-02 0.46230526E+03</pdfrwt>
<pdfrwt beam="2">  1       21 0.12217751E+00 0.46230526E+03</pdfrwt>
<totfact> 0.41046593E+04</totfact>
</mgrwt>
</event>
<event>
 7    0  0.4784406E-002  0.4499398E+03  0.7546771E-02  0.1027740E+00
         21   -1    0    0  502  501  0.00000000000E+00  0.00000000000E+00  0.33216662670E+02  0.33216662670E+02  0.00000000000E+00 0.  1.
         21   -1    0    0  501  502 -0.00000000000E+00 -0.00000000000E+00 -0.15236770318E+04  0.15236770318E+04  0.00000000000E+00 0.  1.
      99926    2    1    2    0    0  0.14210854715E-13  0.00000000000E+00 -0.14904603691E+04  0.15568936944E+04  0.44993984479E+03 0.  0.
      99925    2    3    3    0    0  0.87177649673E+02  0.56372922369E+02 -0.83516840331E+03  0.88173969904E+03  0.26302240588E+03 0.  0.
         25    1    3    3    0    0 -0.87177649673E+02 -0.56372922369E+02 -0.65529196578E+03  0.67515399539E+03  0.12509000000E+03 0.  0.
         25    1    4    4    0    0  0.77693161493E+01  0.17183562731E+02 -0.31467629032E+03  0.33915234467E+03  0.12509000000E+03 0.  0.
         25    1    4    4    0    0  0.79408333524E+02  0.39189359638E+02 -0.52049211299E+03  0.54258735437E+03  0.12509000000E+03 0.  0.
<mgrwt>
<rscale>  2 0.44993984E+03</rscale>
<asrwt>0</asrwt>
<pdfrwt beam="1">  1       21 0.48848038E-02 0.44993984E+03</pdfrwt>
<pdfrwt beam="2">  1       21 0.22407013E+00 0.44993984E+03</pdfrwt>
<totfact> 0.23321736E+04</totfact>
</mgrwt>
</event>
<event>
 7    0  0.4784406E-002  0.4544914E+03  0.7546771E-02  0.1026391E+00
         21   -1    0    0  502  501  0.00000000000E+00  0.00000000000E+00  0.15870484970E+03  0.15870484970E+03  0.00000000000E+00 0. -1.
         21   -1    0    0  501  502 -0.00000000000E+00 -0.00000000000E+00 -0.32538765013E+03  0.32538765013E+03  0.00000000000E+00 0. -1.
      99926    2    1    2    0    0  0.00000000000E+00 -0.35527136788E-14 -0.16668280043E+03  0.48409249983E+03  0.45449135573E+03 0.  0.
      99925    2    3    3    0    0  0.11019020981E+03  0.22859109867E+02 -0.97705131663E+02  0.30224132955E+03  0.26294316362E+03 0.  0.
         25    1    4    4    0    0  0.59394347666E+02  0.50783174503E+02 -0.40294721036E+02  0.15289797903E+03  0.12509000000E+03 0.  0.
         25    1    4    4    0    0  0.50795862147E+02 -0.27924064636E+02 -0.57410410626E+02  0.14934335052E+03  0.12509000000E+03 0.  0.
         25    1    3    3    0    0 -0.11019020981E+03 -0.22859109867E+02 -0.68977668767E+02  0.18185117028E+03  0.12509000000E+03 0.  0.
<mgrwt>
<rscale>  2 0.45449136E+03</rscale>
<asrwt>0</asrwt>
<pdfrwt beam="1">  1       21 0.23338949E-01 0.45449136E+03</pdfrwt>
<pdfrwt beam="2">  1       21 0.47851125E-01 0.45449136E+03</pdfrwt>
<totfact> 0.66672185E+04</totfact>
</mgrwt>
</event>
<event>
 7    0  0.4784406E-002  0.4653312E+03  0.7546771E-02  0.1023246E+00
         21   -1    0    0  502  501  0.00000000000E+00  0.00000000000E+00  0.92538736283E+03  0.92538736283E+03  0.00000000000E+00 0. -1.
         21   -1    0    0  501  502 -0.00000000000E+00 -0.00000000000E+00 -0.58497964269E+02  0.58497964269E+02  0.00000000000E+00 0. -1.
      99926    2    1    2    0    0  0.14210854715E-13  0.00000000000E+00  0.86688939856E+03  0.98388532710E+03  0.46533118050E+03 0.  0.
      99925    2    3    3    0    0 -0.11699473185E+03  0.29484864173E+02  0.58674687464E+03  0.65421205505E+03  0.26299124240E+03 0.  0.
         25    1    3    3    0    0  0.11699473185E+03 -0.29484864173E+02  0.28014252392E+03  0.32967327205E+03  0.12509000000E+03 0.  0.
         25    1    4    4    0    0 -0.71390803402E+02 -0.20517553907E+02  0.33144531636E+03  0.36196840009E+03  0.12509000000E+03 0.  0.
         25    1    4    4    0    0 -0.45603928444E+02  0.50002418079E+02  0.25530155828E+03  0.29224365496E+03  0.12509000000E+03 0.  0.
<mgrwt>
<rscale>  2 0.46533118E+03</rscale>
<asrwt>0</asrwt>
<pdfrwt beam="1">  1       21 0.13608637E+00 0.46533118E+03</pdfrwt>
<pdfrwt beam="2">  1       21 0.86026424E-02 0.46533118E+03</pdfrwt>
<totfact> 0.36740110E+04</totfact>
</mgrwt>
</event>
<event>
 7    0  0.4784406E-002  0.4553007E+03  0.7546771E-02  0.1026153E+00
         21   -1    0    0  502  501  0.00000000000E+00  0.00000000000E+00  0.12855058180E+03  0.12855058180E+03  0.00000000000E+00 0. -1.
         21   -1    0    0  501  502 -0.00000000000E+00 -0.00000000000E+00 -0.40314622066E+03  0.40314622066E+03  0.00000000000E+00 0. -1.
      99926    2    1    2    0    0  0.00000000000E+00  0.00000000000E+00 -0.27459563886E+03  0.53169680246E+03  0.45530069720E+03 0.  0.
      99925    2    3    3    0    0 -0.72238688912E+02  0.46586006333E+02 -0.25913053928E+03  0.37913415446E+03  0.26306916681E+03 0.  0.
         25    1    4    4    0    0 -0.77641005528E+02  0.31490549751E+02 -0.13628605813E+03  0.20307924119E+03  0.12509000000E+03 0.  0.
         25    1    3    3    0    0  0.72238688912E+02 -0.46586006333E+02 -0.15465099578E+02  0.15256264801E+03  0.12509000000E+03 0.  0.
         25    1    4    4    0    0  0.54023166160E+01  0.15095456582E+02 -0.12284448115E+03  0.17605491326E+03  0.12509000000E+03 0.  0.
<mgrwt>
<rscale>  2 0.45530070E+03</rscale>
<asrwt>0</asrwt>
<pdfrwt beam="1">  1       21 0.18904497E-01 0.45530070E+03</pdfrwt>
<pdfrwt beam="2">  1       21 0.59286209E-01 0.45530070E+03</pdfrwt>
<totfact> 0.62941653E+04</totfact>
</mgrwt>
</event>
<event>
 7    0  0.4784406E-002  0.4563832E+03  0.7546771E-02  0.1025835E+00
         21   -1    0    0  502  501  0.00000000000E+00  0.00000000000E+00  0.10306447544E+04  0.10306447544E+04  0.00000000000E+00 0.  1.
         21   -1    0    0  501  502 -0.00000000000E+00 -0.00000000000E+00 -0.50523137389E+02  0.50523137389E+02  0.00000000000E+00 0.  1.
      99926    2    1    2    0    0  0.00000000000E+00  0.00000000000E+00  0.98012161699E+03  0.10811678918E+04  0.45638320094E+03 0.  0.
      99925    2    3    3    0    0  0.88630121106E+02 -0.62882998338E+02  0.70157859373E+03  0.75706406002E+03  0.26291424067E+03 0.  0.
         25    1    4    4    0    0  0.10852184627E+02 -0.19991745514E+02  0.38127410888E+03  0.40191403807E+03  0.12509000000E+03 0.  0.
         25    1    3    3    0    0 -0.88630121106E+02  0.62882998338E+02  0.27854302326E+03  0.32410383175E+03  0.12509000000E+03 0.  0.
         25    1    4    4    0    0  0.77777936479E+02 -0.42891252824E+02  0.32030448486E+03  0.35515002195E+03  0.12509000000E+03 0.  0.
<mgrwt>
<rscale>  2 0.45638320E+03</rscale>
<asrwt>0</asrwt>
<pdfrwt beam="1">  1       21 0.15156539E+00 0.45638320E+03</pdfrwt>
<pdfrwt beam="2">  1       21 0.74298738E-02 0.45638320E+03</pdfrwt>
<totfact> 0.35766532E+04</totfact>
</mgrwt>
</event>
<event>
 7    0  0.4784406E-002  0.4532440E+03  0.7546771E-02  0.1026759E+00
         21   -1    0    0  502  501  0.00000000000E+00  0.00000000000E+00  0.81138836082E+02  0.81138836082E+02  0.00000000000E+00 0.  1.
         21   -1    0    0  501  502 -0.00000000000E+00 -0.00000000000E+00 -0.63295874238E+03  0.63295874238E+03  0.00000000000E+00 0.  1.
      99926    2    1    2    0    0 -0.14210854715E-13 -0.71054273576E-14 -0.55181990630E+03  0.71409757846E+03  0.45324402101E+03 0.  0.
      99925    2    3    3    0    0 -0.98914821639E+02 -0.46499365991E+02 -0.31316366938E+03  0.42332165013E+03  0.26302738008E+03 0.  0.
         25    1    4    4    0    0 -0.15611895075E+02 -0.46790007091E+02 -0.14289830369E+03  0.19621536466E+03  0.12509000000E+03 0.  0.
         25    1    3    3    0    0  0.98914821639E+02  0.46499365991E+02 -0.23865623692E+03  0.29077592833E+03  0.12509000000E+03 0.  0.
         25    1    4    4    0    0 -0.83302926563E+02  0.29064109914E+00 -0.17026536569E+03  0.22710628547E+03  0.12509000000E+03 0.  0.
<mgrwt>
<rscale>  2 0.45324402E+03</rscale>
<asrwt>0</asrwt>
<pdfrwt beam="1">  1       21 0.11932182E-01 0.45324402E+03</pdfrwt>
<pdfrwt beam="2">  1       21 0.93082168E-01 0.45324402E+03</pdfrwt>
<totfact> 0.52870825E+04</totfact>
</mgrwt>
</event>
<event>
 7    0  0.4784406E-002  0.4526267E+03  0.7546771E-02  0.1026942E+00
         21   -1    0    0  502  501  0.00000000000E+00  0.00000000000E+00  0.62899694308E+03  0.62899694308E+03  0.00000000000E+00 0. -1.
         21   -1    0    0  501  502 -0.00000000000E+00 -0.00000000000E+00 -0.81427643987E+02  0.81427643987E+02  0.00000000000E+00 0. -1.
      99926    2    1    2    0    0 -0.26645352591E-14  0.00000000000E+00  0.54756929910E+03  0.71042458707E+03  0.45262672988E+03 0.  0.
      99925    2    3    3    0    0 -0.48420628194E+01  0.93073164396E+02  0.43958237345E+03  0.52070177950E+03  0.26308101532E+03 0.  0.
         25    1    4    4    0    0  0.36778954120E+02  0.43183027663E+02  0.23659192737E+03  0.27357030822E+03  0.12509000000E+03 0.  0.
         25    1    4    4    0    0 -0.41621016939E+02  0.49890136734E+02  0.20299044608E+03  0.24713147127E+03  0.12509000000E+03 0.  0.
         25    1    3    3    0    0  0.48420628194E+01 -0.93073164396E+02  0.10798692565E+03  0.18972280757E+03  0.12509000000E+03 0.  0.
<mgrwt>
<rscale>  2 0.45262673E+03</rscale>
<asrwt>0</asrwt>
<pdfrwt beam="1">  1       21 0.92499548E-01 0.45262673E+03</pdfrwt>
<pdfrwt beam="2">  1       21 0.11974654E-01 0.45262673E+03</pdfrwt>
<totfact> 0.53329437E+04</totfact>
</mgrwt>
</event>
<event>
 7    0  0.4784406E-002  0.4554946E+03  0.7546771E-02  0.1026096E+00
         21   -1    0    0  502  501  0.00000000000E+00  0.00000000000E+00  0.60500542254E+03  0.60500542254E+03  0.00000000000E+00 0. -1.
         21   -1    0    0  501  502 -0.00000000000E+00 -0.00000000000E+00 -0.85732834448E+02  0.85732834448E+02  0.00000000000E+00 0. -1.
      99926    2    1    2    0    0  0.00000000000E+00  0.00000000000E+00  0.51927258810E+03  0.69073825699E+03  0.45549458715E+03 0.  0.
      99925    2    3    3    0    0 -0.76440890467E+02 -0.77334658946E+02  0.27434191588E+03  0.39499782773E+03  0.26255654227E+03 0.  0.
         25    1    3    3    0    0  0.76440890467E+02  0.77334658946E+02  0.24493067222E+03  0.29574042927E+03  0.12509000000E+03 0.  0.
         25    1    4    4    0    0 -0.23804483754E+02 -0.43291793336E+02  0.83306065653E+02  0.15820316524E+03  0.12509000000E+03 0.  0.
         25    1    4    4    0    0 -0.52636406713E+02 -0.34042865611E+02  0.19103585023E+03  0.23679466249E+03  0.12509000000E+03 0.  0.
<mgrwt>
<rscale>  2 0.45549459E+03</rscale>
<asrwt>0</asrwt>
<pdfrwt beam="1">  1       21 0.88971384E-01 0.45549459E+03</pdfrwt>
<pdfrwt beam="2">  1       21 0.12607770E-01 0.45549459E+03</pdfrwt>
<totfact> 0.53201360E+04</totfact>
</mgrwt>
</event>
<event>
 7    0  0.4784406E-002  0.4407576E+03  0.7546771E-02  0.1030515E+00
         21   -1    0    0  502  501  0.00000000000E+00  0.00000000000E+00  0.49579407671E+03  0.49579407671E+03  0.00000000000E+00 0. -1.
         21   -1    0    0  501  502 -0.00000000000E+00 -0.00000000000E+00 -0.97957635389E+02  0.97957635389E+02  0.00000000000E+00 0. -1.
      99926    2    1    2    0    0  0.00000000000E+00  0.00000000000E+00  0.39783644132E+03  0.59375171210E+03  0.44075759957E+03 0.  0.
      99925    2    3    3    0    0  0.45258434480E+02 -0.86423252568E+02  0.23128821076E+03  0.36374491724E+03  0.26324669781E+03 0.  0.
         25    1    4    4    0    0  0.53251000678E+02 -0.27127417862E+02  0.14404201566E+03  0.19991792378E+03  0.12509000000E+03 0.  0.
         25    1    4    4    0    0 -0.79925661986E+01 -0.59295834705E+02  0.87246195094E+02  0.16382699346E+03  0.12509000000E+03 0.  0.
         25    1    3    3    0    0 -0.45258434480E+02  0.86423252568E+02  0.16654823056E+03  0.23000679485E+03  0.12509000000E+03 0.  0.
<mgrwt>
<rscale>  2 0.44075760E+03</rscale>
<asrwt>0</asrwt>
<pdfrwt beam="1">  1       21 0.72910892E-01 0.44075760E+03</pdfrwt>
<pdfrwt beam="2">  1       21 0.14405535E-01 0.44075760E+03</pdfrwt>
<totfact> 0.66207146E+04</totfact>
</mgrwt>
</event>
<event>
 7    0  0.4784406E-002  0.4561251E+03  0.7546771E-02  0.1025911E+00
         21   -1    0    0  502  501  0.00000000000E+00  0.00000000000E+00  0.12388057951E+03  0.12388057951E+03  0.00000000000E+00 0.  1.
         21   -1    0    0  501  502 -0.00000000000E+00 -0.00000000000E+00 -0.41986017988E+03  0.41986017988E+03  0.00000000000E+00 0.  1.
      99926    2    1    2    0    0  0.00000000000E+00  0.00000000000E+00 -0.29597960038E+03  0.54374075939E+03  0.45612508107E+03 0.  0.
      99925    2    3    3    0    0 -0.46727209016E+02  0.10354542679E+03 -0.20073833742E+03  0.34977299469E+03  0.26294520386E+03 0.  0.
         25    1    4    4    0    0 -0.61309217867E+02  0.55258414390E+02 -0.12454829654E+03  0.19486430876E+03  0.12509000000E+03 0.  0.
         25    1    3    3    0    0  0.46727209016E+02 -0.10354542679E+03 -0.95241262961E+02  0.19396776470E+03  0.12509000000E+03 0.  0.
         25    1    4    4    0    0  0.14582008852E+02  0.48287012404E+02 -0.76190040873E+02  0.15490868593E+03  0.12509000000E+03 0.  0.
<mgrwt>
<rscale>  2 0.45612508E+03</rscale>
<asrwt>0</asrwt>
<pdfrwt beam="1">  1       21 0.18217732E-01 0.45612508E+03</pdfrwt>
<pdfrwt beam="2">  1       21 0.61744144E-01 0.45612508E+03</pdfrwt>
<totfact> 0.61730608E+04</totfact>
</mgrwt>
</event>
<event>
 7    0  0.4784406E-002  0.4500465E+03  0.7546771E-02  0.1027708E+00
         21   -1    0    0  502  501  0.00000000000E+00  0.00000000000E+00  0.69462235550E+02  0.69462235550E+02  0.00000000000E+00 0.  1.
         21   -1    0    0  501  502 -0.00000000000E+00 -0.00000000000E+00 -0.72896394836E+03  0.72896394836E+03  0.00000000000E+00 0.  1.
      99926    2    1    2    0    0  0.35527136788E-14  0.00000000000E+00 -0.65950171281E+03  0.79842618391E+03  0.45004651088E+03 0.  0.
      99925    2    3    3    0    0  0.27847942673E+02 -0.19239602808E+02 -0.23408567610E+03  0.35371056397E+03  0.26300073970E+03 0.  0.
         25    1    3    3    0    0 -0.27847942673E+02  0.19239602808E+02 -0.42541603671E+03  0.44471561994E+03  0.12509000000E+03 0.  0.
         25    1    4    4    0    0 -0.25378819687E+02 -0.99805512323E+01 -0.12783954923E+03  0.18092582552E+03  0.12509000000E+03 0.  0.
         25    1    4    4    0    0  0.53226762361E+02 -0.92590515760E+01 -0.10624612687E+03  0.17278473845E+03  0.12509000000E+03 0.  0.
<mgrwt>
<rscale>  2 0.45004651E+03</rscale>
<asrwt>0</asrwt>
<pdfrwt beam="1">  1       21 0.10215035E-01 0.45004651E+03</pdfrwt>
<pdfrwt beam="2">  1       21 0.10720058E+00 0.45004651E+03</pdfrwt>
<totfact> 0.49746914E+04</totfact>
</mgrwt>
</event>
<event>
 7    0  0.4784406E-002  0.4550623E+03  0.7546771E-02  0.1026223E+00
         21   -1    0    0  502  501  0.00000000000E+00  0.00000000000E+00  0.51269893869E+03  0.51269893869E+03  0.00000000000E+00 0.  1.
         21   -1    0    0  501  502 -0.00000000000E+00 -0.00000000000E+00 -0.10097627193E+03  0.10097627193E+03  0.00000000000E+00 0.  1.
      99926    2    1    2    0    0  0.00000000000E+00  0.00000000000E+00  0.41172266677E+03  0.61367521062E+03  0.45506231419E+03 0.  0.
      99925    2    3    3    0    0 -0.10502882764E+03 -0.43262143442E+02  0.25230022671E+03  0.38137004455E+03  0.26245959459E+03 0.  0.
         25    1    4    4    0    0 -0.81806392296E+02  0.50947011220E+01  0.12297541324E+03  0.19361999422E+03  0.12509000000E+03 0.  0.
         25    1    3    3    0    0  0.10502882764E+03  0.43262143442E+02  0.15942244006E+03  0.23230516607E+03  0.12509000000E+03 0.  0.
         25    1    4    4    0    0 -0.23222435341E+02 -0.48356844564E+02  0.12932481347E+03  0.18775005033E+03  0.12509000000E+03 0.  0.
<mgrwt>
<rscale>  2 0.45506231E+03</rscale>
<asrwt>0</asrwt>
<pdfrwt beam="1">  1       21 0.75396902E-01 0.45506231E+03</pdfrwt>
<pdfrwt beam="2">  1       21 0.14849452E-01 0.45506231E+03</pdfrwt>
<totfact> 0.57815864E+04</totfact>
</mgrwt>
</event>
<event>
 7    0  0.4784406E-002  0.4581062E+03  0.7546771E-02  0.1025332E+00
         21   -1    0    0  502  501  0.00000000000E+00  0.00000000000E+00  0.18292335324E+03  0.18292335324E+03  0.00000000000E+00 0.  1.
         21   -1    0    0  501  502 -0.00000000000E+00 -0.00000000000E+00 -0.28681585708E+03  0.28681585708E+03  0.00000000000E+00 0.  1.
      99926    2    1    2    0    0  0.00000000000E+00  0.17763568394E-14 -0.10389250384E+03  0.46973921033E+03  0.45810618132E+03 0.  0.
      99925    2    3    3    0    0 -0.66581172165E+01 -0.15721770349E+02 -0.18291842330E+03  0.32079590355E+03  0.26298166774E+03 0.  0.
         25    1    4    4    0    0 -0.42824947744E+02 -0.93512336351E+01 -0.81233297824E+02  0.15545989353E+03  0.12509000000E+03 0.  0.
         25    1    3    3    0    0  0.66581172165E+01  0.15721770349E+02  0.79025919455E+02  0.14894330678E+03  0.12509000000E+03 0.  0.
         25    1    4    4    0    0  0.36166830527E+02 -0.63705367141E+01 -0.10168512547E+03  0.16533601002E+03  0.12509000000E+03 0.  0.
<mgrwt>
<rscale>  2 0.45810618E+03</rscale>
<asrwt>0</asrwt>
<pdfrwt beam="1">  1       21 0.26900494E-01 0.45810618E+03</pdfrwt>
<pdfrwt beam="2">  1       21 0.42178802E-01 0.45810618E+03</pdfrwt>
<totfact> 0.65818647E+04</totfact>
</mgrwt>
</event>
<event>
 7    0  0.4784406E-002  0.4476428E+03  0.7546771E-02  0.1028427E+00
         21   -1    0    0  502  501  0.00000000000E+00  0.00000000000E+00  0.39323398004E+03  0.39323398004E+03  0.00000000000E+00 0.  1.
         21   -1    0    0  501  502 -0.00000000000E+00 -0.00000000000E+00 -0.12739494366E+03  0.12739494366E+03  0.00000000000E+00 0.  1.
      99926    2    1    2    0    0  0.00000000000E+00  0.71054273576E-14  0.26583903638E+03  0.52062892370E+03  0.44764280731E+03 0.  0.
      99925    2    3    3    0    0  0.10292748175E+02 -0.42166577504E+02  0.55835537554E+02  0.27236910307E+03  0.26302729921E+03 0.  0.
         25    1    4    4    0    0 -0.32840960395E+01  0.17632674092E+02  0.15378216092E+02  0.12730158724E+03  0.12509000000E+03 0.  0.
         25    1    3    3    0    0 -0.10292748175E+02  0.42166577504E+02  0.21000349882E+03  0.24825982063E+03  0.12509000000E+03 0.  0.
         25    1    4    4    0    0  0.13576844215E+02 -0.59799251596E+02  0.40457321462E+02  0.14506751583E+03  0.12509000000E+03 0.  0.
<mgrwt>
<rscale>  2 0.44764281E+03</rscale>
<asrwt>0</asrwt>
<pdfrwt beam="1">  1       21 0.57828526E-01 0.44764281E+03</pdfrwt>
<pdfrwt beam="2">  1       21 0.18734551E-01 0.44764281E+03</pdfrwt>
<totfact> 0.67708926E+04</totfact>
</mgrwt>
</event>
<event>
 7    0  0.4784406E-002  0.4545785E+03  0.7546771E-02  0.1026365E+00
         21   -1    0    0  502  501  0.00000000000E+00  0.00000000000E+00  0.68967314338E+02  0.68967314338E+02  0.00000000000E+00 0.  1.
         21   -1    0    0  501  502 -0.00000000000E+00 -0.00000000000E+00 -0.74905649110E+03  0.74905649110E+03  0.00000000000E+00 0.  1.
      99926    2    1    2    0    0 -0.17763568394E-14 -0.35527136788E-14 -0.68008917677E+03  0.81802380544E+03  0.45457854978E+03 0.  0.
      99925    2    3    3    0    0  0.94583560701E+01  0.18173618291E+02 -0.22820151640E+03  0.34869480933E+03  0.26285432670E+03 0.  0.
         25    1    4    4    0    0  0.37612864093E+02 -0.98562587152E+01 -0.13200130576E+03  0.18596700300E+03  0.12509000000E+03 0.  0.
         25    1    3    3    0    0 -0.94583560701E+01 -0.18173618291E+02 -0.45188766036E+03  0.46932899611E+03  0.12509000000E+03 0.  0.
         25    1    4    4    0    0 -0.28154508023E+02  0.28029877006E+02 -0.96200210643E+02  0.16272780634E+03  0.12509000000E+03 0.  0.
<mgrwt>
<rscale>  2 0.45457855E+03</rscale>
<asrwt>0</asrwt>
<pdfrwt beam="1">  1       21 0.10142253E-01 0.45457855E+03</pdfrwt>
<pdfrwt beam="2">  1       21 0.11015536E+00 0.45457855E+03</pdfrwt>
<totfact> 0.47060790E+04</totfact>
</mgrwt>
</event>
<event>
 7    0  0.4784406E-002  0.4544124E+03  0.7546771E-02  0.1026414E+00
         21   -1    0    0  502  501  0.00000000000E+00  0.00000000000E+00  0.58834697344E+03  0.58834697344E+03  0.00000000000E+00 0.  1.
         21   -1    0    0  501  502 -0.00000000000E+00 -0.00000000000E+00 -0.87741858026E+02  0.87741858026E+02  0.00000000000E+00 0.  1.
      99926    2    1    2    0    0  0.00000000000E+00  0.35527136788E-14  0.50060511541E+03  0.67608883147E+03  0.45441239690E+03 0.  0.
      99925    2    3    3    0    0 -0.10907308270E+03  0.25547476050E+02  0.30369815034E+03  0.41730422625E+03  0.26336408226E+03 0.  0.
         25    1    4    4    0    0 -0.65695281462E+02  0.53050740205E+02  0.16416698371E+03  0.22299900825E+03  0.12509000000E+03 0.  0.
         25    1    4    4    0    0 -0.43377801236E+02 -0.27503264155E+02  0.13953116663E+03  0.19430521800E+03  0.12509000000E+03 0.  0.
         25    1    3    3    0    0  0.10907308270E+03 -0.25547476050E+02  0.19690696507E+03  0.25878460521E+03  0.12509000000E+03 0.  0.
<mgrwt>
<rscale>  2 0.45441240E+03</rscale>
<asrwt>0</asrwt>
<pdfrwt beam="1">  1       21 0.86521612E-01 0.45441240E+03</pdfrwt>
<pdfrwt beam="2">  1       21 0.12903215E-01 0.45441240E+03</pdfrwt>
<totfact> 0.54472762E+04</totfact>
</mgrwt>
</event>
<event>
 7    0  0.4784406E-002  0.4593274E+03  0.7546771E-02  0.1024976E+00
         21   -1    0    0  502  501  0.00000000000E+00  0.00000000000E+00  0.24155655341E+03  0.24155655341E+03  0.00000000000E+00 0. -1.
         21   -1    0    0  501  502 -0.00000000000E+00 -0.00000000000E+00 -0.21835634242E+03  0.21835634242E+03  0.00000000000E+00 0. -1.
      99926    2    1    2    0    0  0.00000000000E+00  0.00000000000E+00  0.23200210988E+02  0.45991289584E+03  0.45932735817E+03 0.  0.
      99925    2    3    3    0    0 -0.82557694027E+02  0.80699810684E+02  0.34989174667E+02  0.28928253496E+03  0.26292947800E+03 0.  0.
         25    1    3    3    0    0  0.82557694027E+02 -0.80699810684E+02 -0.11788963679E+02  0.17063036087E+03  0.12509000000E+03 0.  0.
         25    1    4    4    0    0 -0.34069437356E+02  0.79481427261E+02  0.70139210338E+01  0.15223247692E+03  0.12509000000E+03 0.  0.
         25    1    4    4    0    0 -0.48488256670E+02  0.12183834223E+01  0.27975253633E+02  0.13705005804E+03  0.12509000000E+03 0.  0.
<mgrwt>
<rscale>  2 0.45932736E+03</rscale>
<asrwt>0</asrwt>
<pdfrwt beam="1">  1       21 0.35523023E-01 0.45932736E+03</pdfrwt>
<pdfrwt beam="2">  1       21 0.32111227E-01 0.45932736E+03</pdfrwt>
<totfact> 0.65883070E+04</totfact>
</mgrwt>
</event>
<event>
 7    0  0.4784406E-002  0.4486739E+03  0.7546771E-02  0.1028118E+00
         21   -1    0    0  502  501  0.00000000000E+00  0.00000000000E+00  0.23322113250E+03  0.23322113250E+03  0.00000000000E+00 0.  1.
         21   -1    0    0  501  502 -0.00000000000E+00 -0.00000000000E+00 -0.21579120820E+03  0.21579120820E+03  0.00000000000E+00 0.  1.
      99926    2    1    2    0    0  0.00000000000E+00 -0.14210854715E-13  0.17429924298E+02  0.44901234070E+03  0.44867391259E+03 0.  0.
      99925    2    3    3    0    0 -0.36025729347E+02  0.84963815434E+02 -0.43296300214E+02  0.28212349880E+03  0.26306348256E+03 0.  0.
         25    1    4    4    0    0 -0.30611730811E+02  0.91788237877E+01  0.13300137000E+01  0.12911470058E+03  0.12509000000E+03 0.  0.
         25    1    3    3    0    0  0.36025729347E+02 -0.84963815434E+02  0.60726224513E+02  0.16688884190E+03  0.12509000000E+03 0.  0.
         25    1    4    4    0    0 -0.54139985355E+01  0.75784991647E+02 -0.44626313914E+02  0.15300879822E+03  0.12509000000E+03 0.  0.
<mgrwt>
<rscale>  2 0.44867391E+03</rscale>
<asrwt>0</asrwt>
<pdfrwt beam="1">  1       21 0.34297225E-01 0.44867391E+03</pdfrwt>
<pdfrwt beam="2">  1       21 0.31734001E-01 0.44867391E+03</pdfrwt>
<totfact> 0.72581678E+04</totfact>
</mgrwt>
</event>
<event>
 7    0  0.4784406E-002  0.4548213E+03  0.7546771E-02  0.1026294E+00
         21   -1    0    0  502  501  0.00000000000E+00  0.00000000000E+00  0.25083225277E+03  0.25083225277E+03  0.00000000000E+00 0.  1.
         21   -1    0    0  501  502 -0.00000000000E+00 -0.00000000000E+00 -0.20617605715E+03  0.20617605715E+03  0.00000000000E+00 0.  1.
      99926    2    1    2    0    0 -0.71054273576E-14  0.00000000000E+00  0.44656195626E+02  0.45700830992E+03  0.45482130505E+03 0.  0.
      99925    2    3    3    0    0  0.36218152635E+02  0.40359011277E+02 -0.71529464301E+02  0.27787925018E+03  0.26298252612E+03 0.  0.
         25    1    4    4    0    0  0.71711368319E+01  0.34329269598E+02 -0.73579988168E+02  0.14930320396E+03  0.12509000000E+03 0.  0.
         25    1    3    3    0    0 -0.36218152635E+02 -0.40359011277E+02  0.11618565993E+03  0.17912905974E+03  0.12509000000E+03 0.  0.
         25    1    4    4    0    0  0.29047015803E+02  0.60297416791E+01  0.20505238666E+01  0.12857604621E+03  0.12509000000E+03 0.  0.
<mgrwt>
<rscale>  2 0.45482131E+03</rscale>
<asrwt>0</asrwt>
<pdfrwt beam="1">  1       21 0.36887096E-01 0.45482131E+03</pdfrwt>
<pdfrwt beam="2">  1       21 0.30320008E-01 0.45482131E+03</pdfrwt>
<totfact> 0.68496518E+04</totfact>
</mgrwt>
</event>
<event>
 7    0  0.4784406E-002  0.4541825E+03  0.7546771E-02  0.1026482E+00
         21   -1    0    0  502  501  0.00000000000E+00  0.00000000000E+00  0.39401113977E+03  0.39401113977E+03  0.00000000000E+00 0.  1.
         21   -1    0    0  501  502 -0.00000000000E+00 -0.00000000000E+00 -0.13088571083E+03  0.13088571083E+03  0.00000000000E+00 0.  1.
      99926    2    1    2    0    0 -0.14210854715E-13  0.00000000000E+00  0.26312542894E+03  0.52489685060E+03  0.45418246599E+03 0.  0.
      99925    2    3    3    0    0 -0.95888117637E+02  0.53104219499E+02  0.19478251828E+03  0.34508347298E+03  0.26292163217E+03 0.  0.
         25    1    4    4    0    0 -0.21029347753E+02  0.32829120569E+02  0.12899729591E+03  0.18386896170E+03  0.12509000000E+03 0.  0.
         25    1    4    4    0    0 -0.74858769884E+02  0.20275098931E+02  0.65785222367E+02  0.16121451128E+03  0.12509000000E+03 0.  0.
         25    1    3    3    0    0  0.95888117637E+02 -0.53104219499E+02  0.68342910668E+02  0.17981337762E+03  0.12509000000E+03 0.  0.
<mgrwt>
<rscale>  2 0.45418247E+03</rscale>
<asrwt>0</asrwt>
<pdfrwt beam="1">  1       21 0.57942814E-01 0.45418247E+03</pdfrwt>
<pdfrwt beam="2">  1       21 0.19247899E-01 0.45418247E+03</pdfrwt>
<totfact> 0.63966843E+04</totfact>
</mgrwt>
</event>
<event>
 7    0  0.4784406E-002  0.4542431E+03  0.7546771E-02  0.1026464E+00
         21   -1    0    0  502  501  0.00000000000E+00  0.00000000000E+00  0.13008653196E+03  0.13008653196E+03  0.00000000000E+00 0. -1.
         21   -1    0    0  501  502 -0.00000000000E+00 -0.00000000000E+00 -0.39653752365E+03  0.39653752365E+03  0.00000000000E+00 0. -1.
      99926    2    1    2    0    0 -0.35527136788E-14  0.00000000000E+00 -0.26645099169E+03  0.52662405561E+03  0.45424306817E+03 0.  0.
      99925    2    3    3    0    0  0.23240888324E+02 -0.98066470491E+02 -0.22551637240E+03  0.36085215606E+03  0.26305792668E+03 0.  0.
         25    1    4    4    0    0  0.30395273777E+02 -0.15104814510E+02 -0.84125918554E+02  0.15452089296E+03  0.12509000000E+03 0.  0.
         25    1    4    4    0    0 -0.71543854526E+01 -0.82961655981E+02 -0.14139045384E+03  0.20633126310E+03  0.12509000000E+03 0.  0.
         25    1    3    3    0    0 -0.23240888324E+02  0.98066470491E+02 -0.40934619293E+02  0.16577189955E+03  0.12509000000E+03 0.  0.
<mgrwt>
<rscale>  2 0.45424307E+03</rscale>
<asrwt>0</asrwt>
<pdfrwt beam="1">  1       21 0.19130372E-01 0.45424307E+03</pdfrwt>
<pdfrwt beam="2">  1       21 0.58314342E-01 0.45424307E+03</pdfrwt>
<totfact> 0.63817693E+04</totfact>
</mgrwt>
</event>
<event>
 7    0  0.4784406E-002  0.4183483E+03  0.7546771E-02  0.1037605E+00
         21   -1    0    0  502  501  0.00000000000E+00  0.00000000000E+00  0.14111407236E+04  0.14111407236E+04  0.00000000000E+00 0.  1.
         21   -1    0    0  501  502 -0.00000000000E+00 -0.00000000000E+00 -0.31005998535E+02  0.31005998535E+02  0.00000000000E+00 0.  1.
      99926    2    1    2    0    0  0.00000000000E+00  0.00000000000E+00  0.13801347251E+04  0.14421467221E+04  0.41834831042E+03 0.  0.
      99925    2    3    3    0    0 -0.17105348683E+02  0.89190800882E+00  0.11482592197E+04  0.11781256121E+04  0.26303485284E+03 0.  0.
         25    1    4    4    0    0 -0.33866660582E+02  0.26935682513E+02  0.50300477465E+03  0.52012863131E+03  0.12509000000E+03 0.  0.
         25    1    4    4    0    0  0.16761311899E+02 -0.26043774505E+02  0.64525444508E+03  0.65799698082E+03  0.12509000000E+03 0.  0.
         25    1    3    3    0    0  0.17105348683E+02 -0.89190800882E+00  0.23187550532E+03  0.26402110999E+03  0.12509000000E+03 0.  0.
<mgrwt>
<rscale>  2 0.41834831E+03</rscale>
<asrwt>0</asrwt>
<pdfrwt beam="1">  1       21 0.20752065E+00 0.41834831E+03</pdfrwt>
<pdfrwt beam="2">  1       21 0.45597066E-02 0.41834831E+03</pdfrwt>
<totfact> 0.33906937E+04</totfact>
</mgrwt>
</event>
<event>
 7    0  0.4784406E-002  0.4935144E+03  0.7546771E-02  0.1015486E+00
         21   -1    0    0  502  501  0.00000000000E+00  0.00000000000E+00  0.14320454757E+03  0.14320454757E+03  0.00000000000E+00 0.  1.
         21   -1    0    0  501  502 -0.00000000000E+00 -0.00000000000E+00 -0.42518987433E+03  0.42518987433E+03  0.00000000000E+00 0.  1.
      99926    2    1    2    0    0  0.00000000000E+00  0.00000000000E+00 -0.28198532676E+03  0.56839442190E+03  0.49351443175E+03 0.  0.
      99925    2    3    3    0    0  0.67262384393E+02  0.66123738484E+02 -0.30084576351E+03  0.41059771307E+03  0.26303180684E+03 0.  0.
         25    1    3    3    0    0 -0.67262384393E+02 -0.66123738484E+02  0.18860436749E+02  0.15779670884E+03  0.12509000000E+03 0.  0.
         25    1    4    4    0    0  0.23927013262E+02  0.14114341768E+02 -0.91290820658E+02  0.15733161997E+03  0.12509000000E+03 0.  0.
         25    1    4    4    0    0  0.43335371131E+02  0.52009396716E+02 -0.20955494285E+03  0.25326609309E+03  0.12509000000E+03 0.  0.
<mgrwt>
<rscale>  2 0.49351443E+03</rscale>
<asrwt>0</asrwt>
<pdfrwt beam="1">  1       21 0.21059492E-01 0.49351443E+03</pdfrwt>
<pdfrwt beam="2">  1       21 0.62527923E-01 0.49351443E+03</pdfrwt>
<totfact> 0.45222651E+04</totfact>
</mgrwt>
</event>
<event>
 7    0  0.4784406E-002  0.4504434E+03  0.7546771E-02  0.1027590E+00
         21   -1    0    0  502  501  0.00000000000E+00  0.00000000000E+00  0.34419964724E+03  0.34419964724E+03  0.00000000000E+00 0.  1.
         21   -1    0    0  501  502 -0.00000000000E+00 -0.00000000000E+00 -0.14737035123E+03  0.14737035123E+03  0.00000000000E+00 0.  1.
      99926    2    1    2    0    0  0.00000000000E+00  0.00000000000E+00  0.19682929601E+03  0.49156999847E+03  0.45044343888E+03 0.  0.
      99925    2    3    3    0    0  0.47539736634E+02 -0.86388842839E+02  0.17482726085E+03  0.33077616657E+03  0.26291679769E+03 0.  0.
         25    1    4    4    0    0 -0.11119220620E+02 -0.23402584822E+02  0.64643189914E+02  0.14316971798E+03  0.12509000000E+03 0.  0.
         25    1    3    3    0    0 -0.47539736634E+02  0.86388842839E+02  0.22002035161E+02  0.16079383190E+03  0.12509000000E+03 0.  0.
         25    1    4    4    0    0  0.58658957254E+02 -0.62986258017E+02  0.11018407093E+03  0.18760644859E+03  0.12509000000E+03 0.  0.
<mgrwt>
<rscale>  2 0.45044344E+03</rscale>
<asrwt>0</asrwt>
<pdfrwt beam="1">  1       21 0.50617595E-01 0.45044344E+03</pdfrwt>
<pdfrwt beam="2">  1       21 0.21672111E-01 0.45044344E+03</pdfrwt>
<totfact> 0.68304563E+04</totfact>
</mgrwt>
</event>
<event>
 7    0  0.4784406E-002  0.4615158E+03  0.7546771E-02  0.1024343E+00
         21   -1    0    0  502  501  0.00000000000E+00  0.00000000000E+00  0.18869197837E+03  0.18869197837E+03  0.00000000000E+00 0. -1.
         21   -1    0    0  501  502 -0.00000000000E+00 -0.00000000000E+00 -0.28220174796E+03  0.28220174796E+03  0.00000000000E+00 0. -1.
      99926    2    1    2    0    0  0.35527136788E-14  0.00000000000E+00 -0.93509769588E+02  0.47089372632E+03  0.46151579007E+03 0.  0.
      99925    2    3    3    0    0  0.18411052590E+02 -0.11742914739E+03 -0.67582127544E+02  0.29639925009E+03  0.26297642475E+03 0.  0.
         25    1    4    4    0    0 -0.26313367853E+02 -0.37863592137E+02 -0.39285638546E+02  0.13898530294E+03  0.12509000000E+03 0.  0.
         25    1    4    4    0    0  0.44724420443E+02 -0.79565555256E+02 -0.28296488998E+02  0.15741394715E+03  0.12509000000E+03 0.  0.
         25    1    3    3    0    0 -0.18411052590E+02  0.11742914739E+03 -0.25927642043E+02  0.17449447624E+03  0.12509000000E+03 0.  0.
<mgrwt>
<rscale>  2 0.46151579E+03</rscale>
<asrwt>0</asrwt>
<pdfrwt beam="1">  1       21 0.27748821E-01 0.46151579E+03</pdfrwt>
<pdfrwt beam="2">  1       21 0.41500257E-01 0.46151579E+03</pdfrwt>
<totfact> 0.63995544E+04</totfact>
</mgrwt>
</event>
<event>
 7    0  0.4784406E-002  0.4571323E+03  0.7546771E-02  0.1025616E+00
         21   -1    0    0  502  501  0.00000000000E+00  0.00000000000E+00  0.53628910185E+03  0.53628910185E+03  0.00000000000E+00 0.  1.
         21   -1    0    0  501  502 -0.00000000000E+00 -0.00000000000E+00 -0.97414790500E+02  0.97414790500E+02  0.00000000000E+00 0.  1.
      99926    2    1    2    0    0  0.00000000000E+00 -0.71054273576E-14  0.43887431135E+03  0.63370389235E+03  0.45713232441E+03 0.  0.
      99925    2    3    3    0    0 -0.11009227659E+03 -0.18807785672E+02  0.31529855944E+03  0.42539518699E+03  0.26281902779E+03 0.  0.
         25    1    4    4    0    0 -0.33772207360E+02 -0.32244696686E+02  0.18942795445E+03  0.23175577767E+03  0.12509000000E+03 0.  0.
         25    1    4    4    0    0 -0.76320069231E+02  0.13436911015E+02  0.12587060499E+03  0.19363940933E+03  0.12509000000E+03 0.  0.
         25    1    3    3    0    0  0.11009227659E+03  0.18807785672E+02  0.12357575191E+03  0.20830870536E+03  0.12509000000E+03 0.  0.
<mgrwt>
<rscale>  2 0.45713232E+03</rscale>
<asrwt>0</asrwt>
<pdfrwt beam="1">  1       21 0.78866043E-01 0.45713232E+03</pdfrwt>
<pdfrwt beam="2">  1       21 0.14325705E-01 0.45713232E+03</pdfrwt>
<totfact> 0.55706677E+04</totfact>
</mgrwt>
</event>
<event>
 7    0  0.4784406E-002  0.4535076E+03  0.7546771E-02  0.1026681E+00
         21   -1    0    0  502  501  0.00000000000E+00  0.00000000000E+00  0.10120558562E+04  0.10120558562E+04  0.00000000000E+00 0.  1.
         21   -1    0    0  501  502 -0.00000000000E+00 -0.00000000000E+00 -0.50804791769E+02  0.50804791769E+02  0.00000000000E+00 0.  1.
      99926    2    1    2    0    0 -0.14210854715E-13  0.00000000000E+00  0.96125106443E+03  0.10628606480E+04  0.45350760537E+03 0.  0.
      99925    2    3    3    0    0 -0.88480583505E+02 -0.45287710723E+02  0.72530969912E+03  0.77791218532E+03  0.26304641802E+03 0.  0.
         25    1    3    3    0    0  0.88480583505E+02  0.45287710723E+02  0.23594136530E+03  0.28494846264E+03  0.12509000000E+03 0.  0.
         25    1    4    4    0    0 -0.19590903997E+02  0.11697026885E+02  0.34598794769E+03  0.36861333672E+03  0.12509000000E+03 0.  0.
         25    1    4    4    0    0 -0.68889679508E+02 -0.56984737608E+02  0.37932175143E+03  0.40929884861E+03  0.12509000000E+03 0.  0.
<mgrwt>
<rscale>  2 0.45350761E+03</rscale>
<asrwt>0</asrwt>
<pdfrwt beam="1">  1       21 0.14883173E+00 0.45350761E+03</pdfrwt>
<pdfrwt beam="2">  1       21 0.74712936E-02 0.45350761E+03</pdfrwt>
<totfact> 0.37240862E+04</totfact>
</mgrwt>
</event>
<event>
 7    0  0.4784406E-002  0.4429113E+03  0.7546771E-02  0.1029857E+00
         21   -1    0    0  502  501  0.00000000000E+00  0.00000000000E+00  0.10868888323E+03  0.10868888323E+03  0.00000000000E+00 0.  1.
         21   -1    0    0  501  502 -0.00000000000E+00 -0.00000000000E+00 -0.45122006111E+03  0.45122006111E+03  0.00000000000E+00 0.  1.
      99926    2    1    2    0    0  0.00000000000E+00  0.00000000000E+00 -0.34253117788E+03  0.55990894434E+03  0.44291129827E+03 0.  0.
      99925    2    3    3    0    0 -0.21060177032E+02  0.58939735476E+02 -0.31886858839E+03  0.41804686443E+03  0.26299920290E+03 0.  0.
         25    1    4    4    0    0  0.22957519006E+02  0.24964494970E+02 -0.12007877478E+03  0.17668246642E+03  0.12509000000E+03 0.  0.
         25    1    4    4    0    0 -0.44017696038E+02  0.33975240507E+02 -0.19878981361E+03  0.24136439801E+03  0.12509000000E+03 0.  0.
         25    1    3    3    0    0  0.21060177032E+02 -0.58939735476E+02 -0.23662589489E+02  0.14186207991E+03  0.12509000000E+03 0.  0.
<mgrwt>
<rscale>  2 0.44291130E+03</rscale>
<asrwt>0</asrwt>
<pdfrwt beam="1">  1       21 0.15983659E-01 0.44291130E+03</pdfrwt>
<pdfrwt beam="2">  1       21 0.66355891E-01 0.44291130E+03</pdfrwt>
<totfact> 0.67437015E+04</totfact>
</mgrwt>
</event>
<event>
 7    0  0.4784406E-002  0.4595344E+03  0.7546771E-02  0.1024916E+00
         21   -1    0    0  502  501  0.00000000000E+00  0.00000000000E+00  0.76854122242E+02  0.76854122242E+02  0.00000000000E+00 0.  1.
         21   -1    0    0  501  502 -0.00000000000E+00 -0.00000000000E+00 -0.68692420432E+03  0.68692420432E+03  0.00000000000E+00 0.  1.
      99926    2    1    2    0    0  0.00000000000E+00  0.00000000000E+00 -0.61007008207E+03  0.76377832656E+03  0.45953435897E+03 0.  0.
      99925    2    3    3    0    0 -0.17428868223E+02  0.10017949754E+03 -0.28478929721E+03  0.40074279899E+03  0.26296416099E+03 0.  0.
         25    1    4    4    0    0  0.85990908172E+01  0.87108018658E+02 -0.13929639913E+03  0.20667062246E+03  0.12509000000E+03 0.  0.
         25    1    3    3    0    0  0.17428868223E+02 -0.10017949754E+03 -0.32528078487E+03  0.36303552757E+03  0.12509000000E+03 0.  0.
         25    1    4    4    0    0 -0.26027959040E+02  0.13071478877E+02 -0.14549289807E+03  0.19407217653E+03  0.12509000000E+03 0.  0.
<mgrwt>
<rscale>  2 0.45953436E+03</rscale>
<asrwt>0</asrwt>
<pdfrwt beam="1">  1       21 0.11302077E-01 0.45953436E+03</pdfrwt>
<pdfrwt beam="2">  1       21 0.10101826E+00 0.45953436E+03</pdfrwt>
<totfact> 0.47840544E+04</totfact>
</mgrwt>
</event>
<event>
 6    0  0.4784406E-002  0.4606072E+03  0.7546771E-02  0.1024605E+00
         21   -1    0    0  502  501  0.00000000000E+00  0.00000000000E+00  0.11896176917E+03  0.11896176917E+03  0.00000000000E+00 0.  1.
         21   -1    0    0  501  502 -0.00000000000E+00 -0.00000000000E+00 -0.44585543928E+03  0.44585543928E+03  0.00000000000E+00 0.  1.
      99926    2    1    2    0    0  0.00000000000E+00  0.71054273576E-14 -0.32689367011E+03  0.56481720845E+03  0.46060721597E+03 0.  0.
         25    1    3    3    0    0 -0.11628533829E+02  0.97217661507E+00 -0.95820172533E+02  0.15800373885E+03  0.12509000000E+03 0.  0.
         25    1    3    3    0    0 -0.92610906933E+02 -0.44802179949E+02 -0.81041586851E+02  0.18110566615E+03  0.12509000000E+03 0.  0.
         25    1    3    3    0    0  0.10423944076E+03  0.43830003334E+02 -0.15003191073E+03  0.22570780345E+03  0.12509000000E+03 0.  0.
<mgrwt>
<rscale>  2 0.46060722E+03</rscale>
<asrwt>0</asrwt>
<pdfrwt beam="1">  1       21 0.17494378E-01 0.46060722E+03</pdfrwt>
<pdfrwt beam="2">  1       21 0.65566975E-01 0.46060722E+03</pdfrwt>
<totfact> 0.58270402E+04</totfact>
</mgrwt>
</event>
<event>
 7    0  0.4784406E-002  0.4541182E+03  0.7546771E-02  0.1026501E+00
         21   -1    0    0  502  501  0.00000000000E+00  0.00000000000E+00  0.67688609397E+02  0.67688609397E+02  0.00000000000E+00 0.  1.
         21   -1    0    0  501  502 -0.00000000000E+00 -0.00000000000E+00 -0.76166206630E+03  0.76166206630E+03  0.00000000000E+00 0.  1.
      99926    2    1    2    0    0  0.00000000000E+00  0.88817841970E-15 -0.69397345690E+03  0.82935067570E+03  0.45411824935E+03 0.  0.
      99925    2    3    3    0    0 -0.95424116935E+02 -0.57576159484E+01 -0.33064850394E+03  0.43338168477E+03  0.26334832313E+03 0.  0.
         25    1    4    4    0    0 -0.66784288297E+02  0.17858197123E+01 -0.22963056023E+03  0.26989077903E+03  0.12509000000E+03 0.  0.
         25    1    3    3    0    0  0.95424116935E+02  0.57576159484E+01 -0.36332495296E+03  0.39596899093E+03  0.12509000000E+03 0.  0.
         25    1    4    4    0    0 -0.28639828638E+02 -0.75434356606E+01 -0.10101794371E+03  0.16349090574E+03  0.12509000000E+03 0.  0.
<mgrwt>
<rscale>  2 0.45411825E+03</rscale>
<asrwt>0</asrwt>
<pdfrwt beam="1">  1       21 0.99542070E-02 0.45411825E+03</pdfrwt>
<pdfrwt beam="2">  1       21 0.11200913E+00 0.45411825E+03</pdfrwt>
<totfact> 0.46699939E+04</totfact>
</mgrwt>
</event>
<event>
 7    0  0.4784406E-002  0.4415962E+03  0.7546771E-02  0.1030258E+00
         21   -1    0    0  502  501  0.00000000000E+00  0.00000000000E+00  0.58730320346E+03  0.58730320346E+03  0.00000000000E+00 0. -1.
         21   -1    0    0  501  502 -0.00000000000E+00 -0.00000000000E+00 -0.83009583516E+02  0.83009583516E+02  0.00000000000E+00 0. -1.
      99926    2    1    2    0    0 -0.71054273576E-14  0.00000000000E+00  0.50429361995E+03  0.67031278698E+03  0.44159616990E+03 0.  0.
      99925    2    3    3    0    0  0.55959572983E+02  0.74396575156E+02  0.26567258743E+03  0.38526221346E+03  0.26301848833E+03 0.  0.
         25    1    3    3    0    0 -0.55959572983E+02 -0.74396575156E+02  0.23862103251E+03  0.28505057352E+03  0.12509000000E+03 0.  0.
         25    1    4    4    0    0 -0.33917400474E+01  0.30967541748E+02  0.89058867314E+02  0.15668274471E+03  0.12509000000E+03 0.  0.
         25    1    4    4    0    0  0.59351313030E+02  0.43429033409E+02  0.17661372012E+03  0.22857946875E+03  0.12509000000E+03 0.  0.
<mgrwt>
<rscale>  2 0.44159617E+03</rscale>
<asrwt>0</asrwt>
<pdfrwt beam="1">  1       21 0.86368116E-01 0.44159617E+03</pdfrwt>
<pdfrwt beam="2">  1       21 0.12207292E-01 0.44159617E+03</pdfrwt>
<totfact> 0.60704809E+04</totfact>
</mgrwt>
</event>
<event>
 7    0  0.4784406E-002  0.4547910E+03  0.7546771E-02  0.1026303E+00
         21   -1    0    0  502  501  0.00000000000E+00  0.00000000000E+00  0.52863744045E+02  0.52863744045E+02  0.00000000000E+00 0.  1.
         21   -1    0    0  501  502 -0.00000000000E+00 -0.00000000000E+00 -0.97815067026E+03  0.97815067026E+03  0.00000000000E+00 0.  1.
      99926    2    1    2    0    0  0.71054273576E-14  0.00000000000E+00 -0.92528692621E+03  0.10310144143E+04  0.45479097031E+03 0.  0.
      99925    2    3    3    0    0 -0.42221511998E+02 -0.27227506099E+02 -0.81172530467E+03  0.85475397305E+03  0.26302545701E+03 0.  0.
         25    1    3    3    0    0  0.42221511998E+02  0.27227506099E+02 -0.11356162155E+03  0.17626044126E+03  0.12509000000E+03 0.  0.
         25    1    4    4    0    0 -0.20126565481E+02 -0.57878556500E+01 -0.27582891103E+03  0.30359129463E+03  0.12509000000E+03 0.  0.
         25    1    4    4    0    0 -0.22094946517E+02 -0.21439650449E+02 -0.53589639364E+03  0.55116267842E+03  0.12509000000E+03 0.  0.
<mgrwt>
<rscale>  2 0.45479097E+03</rscale>
<asrwt>0</asrwt>
<pdfrwt beam="1">  1       21 0.77740800E-02 0.45479097E+03</pdfrwt>
<pdfrwt beam="2">  1       21 0.14384569E+00 0.45479097E+03</pdfrwt>
<totfact> 0.38043884E+04</totfact>
</mgrwt>
</event>
<event>
 7    0  0.4784406E-002  0.4565397E+03  0.7546771E-02  0.1025790E+00
         21   -1    0    0  502  501  0.00000000000E+00  0.00000000000E+00  0.18610986350E+03  0.18610986350E+03  0.00000000000E+00 0. -1.
         21   -1    0    0  501  502 -0.00000000000E+00 -0.00000000000E+00 -0.27998047701E+03  0.27998047701E+03  0.00000000000E+00 0. -1.
      99926    2    1    2    0    0  0.00000000000E+00  0.00000000000E+00 -0.93870613512E+02  0.46609034050E+03  0.45653971725E+03 0.  0.
      99925    2    3    3    0    0 -0.96049731111E+02 -0.61578859691E+02 -0.69538117606E+02  0.29504331403E+03  0.26305417797E+03 0.  0.
         25    1    4    4    0    0 -0.80900209194E+02 -0.62567193716E+01 -0.37694506311E+02  0.15379328428E+03  0.12509000000E+03 0.  0.
         25    1    4    4    0    0 -0.15149521917E+02 -0.55322140319E+02 -0.31843611295E+02  0.14125002975E+03  0.12509000000E+03 0.  0.
         25    1    3    3    0    0  0.96049731111E+02  0.61578859691E+02 -0.24332495906E+02  0.17104702647E+03  0.12509000000E+03 0.  0.
<mgrwt>
<rscale>  2 0.45653972E+03</rscale>
<asrwt>0</asrwt>
<pdfrwt beam="1">  1       21 0.27369097E-01 0.45653972E+03</pdfrwt>
<pdfrwt beam="2">  1       21 0.41173600E-01 0.45653972E+03</pdfrwt>
<totfact> 0.66906755E+04</totfact>
</mgrwt>
</event>
<event>
 7    0  0.4784406E-002  0.4475661E+03  0.7546771E-02  0.1028450E+00
         21   -1    0    0  502  501  0.00000000000E+00  0.00000000000E+00  0.42452717456E+03  0.42452717456E+03  0.00000000000E+00 0.  1.
         21   -1    0    0  501  502 -0.00000000000E+00 -0.00000000000E+00 -0.11796383983E+03  0.11796383983E+03  0.00000000000E+00 0.  1.
      99926    2    1    2    0    0  0.00000000000E+00  0.00000000000E+00  0.30656333473E+03  0.54249101439E+03  0.44756610963E+03 0.  0.
      99925    2    3    3    0    0 -0.74163187574E+02  0.35485235195E+02  0.11277852994E+03  0.29762484895E+03  0.26287292289E+03 0.  0.
         25    1    3    3    0    0  0.74163187574E+02 -0.35485235195E+02  0.19378480480E+03  0.24486616544E+03  0.12509000000E+03 0.  0.
         25    1    4    4    0    0 -0.12123978560E+02 -0.11216406174E+02  0.34165905616E+02  0.13071960767E+03  0.12509000000E+03 0.  0.
         25    1    4    4    0    0 -0.62039209014E+02  0.46701641370E+02  0.78612624320E+02  0.16690524127E+03  0.12509000000E+03 0.  0.
<mgrwt>
<rscale>  2 0.44756611E+03</rscale>
<asrwt>0</asrwt>
<pdfrwt beam="1">  1       21 0.62430466E-01 0.44756611E+03</pdfrwt>
<pdfrwt beam="2">  1       21 0.17347624E-01 0.44756611E+03</pdfrwt>
<totfact> 0.66173136E+04</totfact>
</mgrwt>
</event>
<event>
 7    0  0.4784406E-002  0.4488383E+03  0.7546771E-02  0.1028069E+00
         21   -1    0    0  502  501  0.00000000000E+00  0.00000000000E+00  0.61083326865E+02  0.61083326865E+02  0.00000000000E+00 0. -1.
         21   -1    0    0  501  502 -0.00000000000E+00 -0.00000000000E+00 -0.82451245477E+03  0.82451245477E+03  0.00000000000E+00 0. -1.
      99926    2    1    2    0    0 -0.88817841970E-15  0.00000000000E+00 -0.76342912790E+03  0.88559578163E+03  0.44883833962E+03 0.  0.
      99925    2    3    3    0    0 -0.78674768196E+01  0.26940019298E+02 -0.68725432196E+03  0.73647244009E+03  0.26322137097E+03 0.  0.
         25    1    4    4    0    0  0.29501172567E+02  0.35279714480E+00 -0.28268541431E+03  0.31053018406E+03  0.12509000000E+03 0.  0.
         25    1    4    4    0    0 -0.37368649387E+02  0.26587222154E+02 -0.40456890765E+03  0.42594225603E+03  0.12509000000E+03 0.  0.
         25    1    3    3    0    0  0.78674768196E+01 -0.26940019298E+02 -0.76174805947E+02  0.14912334154E+03  0.12509000000E+03 0.  0.
<mgrwt>
<rscale>  2 0.44883834E+03</rscale>
<asrwt>0</asrwt>
<pdfrwt beam="1">  1       21 0.89828421E-02 0.44883834E+03</pdfrwt>
<pdfrwt beam="2">  1       21 0.12125183E+00 0.44883834E+03</pdfrwt>
<totfact> 0.46044230E+04</totfact>
</mgrwt>
</event>
<event>
 6    0  0.4784406E-002  0.4421494E+03  0.7546771E-02  0.1030089E+00
         21   -1    0    0  502  501  0.00000000000E+00  0.00000000000E+00  0.20147246632E+03  0.20147246632E+03  0.00000000000E+00 0. -1.
         21   -1    0    0  501  502 -0.00000000000E+00 -0.00000000000E+00 -0.24258413987E+03  0.24258413987E+03  0.00000000000E+00 0. -1.
      99926    2    1    2    0    0  0.00000000000E+00  0.00000000000E+00 -0.41111673552E+02  0.44405660619E+03  0.44214940891E+03 0.  0.
         25    1    3    3    0    0  0.30634781172E+02 -0.80968876008E+02 -0.34111155777E+02  0.15590230193E+03  0.12509000000E+03 0.  0.
         25    1    3    3    0    0 -0.18244263472E+02  0.99331063495E+02  0.22023469113E+01  0.16078517269E+03  0.12509000000E+03 0.  0.
         25    1    3    3    0    0 -0.12390517699E+02 -0.18362187487E+02 -0.92028646870E+01  0.12736913157E+03  0.12509000000E+03 0.  0.
<mgrwt>
<rscale>  2 0.44214941E+03</rscale>
<asrwt>0</asrwt>
<pdfrwt beam="1">  1       21 0.29628304E-01 0.44214941E+03</pdfrwt>
<pdfrwt beam="2">  1       21 0.35674138E-01 0.44214941E+03</pdfrwt>
<totfact> 0.76946911E+04</totfact>
</mgrwt>
</event>
<event>
 7    0  0.4784406E-002  0.4545081E+03  0.7546771E-02  0.1026386E+00
         21   -1    0    0  502  501  0.00000000000E+00  0.00000000000E+00  0.27770865759E+03  0.27770865759E+03  0.00000000000E+00 0.  1.
         21   -1    0    0  501  502 -0.00000000000E+00 -0.00000000000E+00 -0.18596608645E+03  0.18596608645E+03  0.00000000000E+00 0.  1.
      99926    2    1    2    0    0  0.00000000000E+00  0.00000000000E+00  0.91742571140E+02  0.46367474403E+03  0.45450805152E+03 0.  0.
      99925    2    3    3    0    0 -0.10362330283E+03  0.43762106773E+02  0.52392333576E+02  0.29090651728E+03  0.26311353880E+03 0.  0.
         25    1    4    4    0    0 -0.41608620125E+02  0.35367450128E+02  0.63613286311E+02  0.15058649373E+03  0.12509000000E+03 0.  0.
         25    1    3    3    0    0  0.10362330283E+03 -0.43762106773E+02  0.39350237565E+02  0.17276822675E+03  0.12509000000E+03 0.  0.
         25    1    4    4    0    0 -0.62014682703E+02  0.83946566453E+01 -0.11220952735E+02  0.14032002356E+03  0.12509000000E+03 0.  0.
<mgrwt>
<rscale>  2 0.45450805E+03</rscale>
<asrwt>0</asrwt>
<pdfrwt beam="1">  1       21 0.40839509E-01 0.45450805E+03</pdfrwt>
<pdfrwt beam="2">  1       21 0.27347954E-01 0.45450805E+03</pdfrwt>
<totfact> 0.68174952E+04</totfact>
</mgrwt>
</event>
<event>
 7    0  0.4784406E-002  0.4474143E+03  0.7546771E-02  0.1028496E+00
         21   -1    0    0  502  501  0.00000000000E+00  0.00000000000E+00  0.67704074184E+03  0.67704074184E+03  0.00000000000E+00 0.  1.
         21   -1    0    0  501  502 -0.00000000000E+00 -0.00000000000E+00 -0.73917086045E+02  0.73917086045E+02  0.00000000000E+00 0.  1.
      99926    2    1    2    0    0  0.00000000000E+00  0.00000000000E+00  0.60312365579E+03  0.75095782788E+03  0.44741425445E+03 0.  0.
      99925    2    3    3    0    0 -0.27130926968E+02  0.61428321605E+02  0.51956591003E+03  0.58621884989E+03  0.26304805494E+03 0.  0.
         25    1    4    4    0    0 -0.37188012846E+02  0.13293845122E+01  0.28557845270E+03  0.31398610846E+03  0.12509000000E+03 0.  0.
         25    1    3    3    0    0  0.27130926968E+02 -0.61428321605E+02  0.83557745763E+02  0.16473897799E+03  0.12509000000E+03 0.  0.
         25    1    4    4    0    0  0.10057085879E+02  0.60098937093E+02  0.23398745733E+03  0.27223274143E+03  0.12509000000E+03 0.  0.
<mgrwt>
<rscale>  2 0.44741425E+03</rscale>
<asrwt>0</asrwt>
<pdfrwt beam="1">  1       21 0.99564812E-01 0.44741425E+03</pdfrwt>
<pdfrwt beam="2">  1       21 0.10870160E-01 0.44741425E+03</pdfrwt>
<totfact> 0.53331159E+04</totfact>
</mgrwt>
</event>
<event>
 7    0  0.4784406E-002  0.4597692E+03  0.7546771E-02  0.1024848E+00
         21   -1    0    0  502  501  0.00000000000E+00  0.00000000000E+00  0.13718875960E+03  0.13718875960E+03  0.00000000000E+00 0. -1.
         21   -1    0    0  501  502 -0.00000000000E+00 -0.00000000000E+00 -0.38521320849E+03  0.38521320849E+03  0.00000000000E+00 0. -1.
      99926    2    1    2    0    0  0.00000000000E+00  0.00000000000E+00 -0.24802444889E+03  0.52240196808E+03  0.45976916927E+03 0.  0.
      99925    2    3    3    0    0 -0.53345489768E+02  0.33339080739E+02 -0.26820263076E+03  0.38093853568E+03  0.26310507642E+03 0.  0.
         25    1    4    4    0    0 -0.33438034374E+02  0.45057883176E+01 -0.80042215667E+02  0.15229139391E+03  0.12509000000E+03 0.  0.
         25    1    3    3    0    0  0.53345489768E+02 -0.33339080739E+02  0.20178181866E+02  0.14146343240E+03  0.12509000000E+03 0.  0.
         25    1    4    4    0    0 -0.19907455395E+02  0.28833292422E+02 -0.18816041509E+03  0.22864714177E+03  0.12509000000E+03 0.  0.
<mgrwt>
<rscale>  2 0.45976917E+03</rscale>
<asrwt>0</asrwt>
<pdfrwt beam="1">  1       21 0.20174818E-01 0.45976917E+03</pdfrwt>
<pdfrwt beam="2">  1       21 0.56649000E-01 0.45976917E+03</pdfrwt>
<totfact> 0.61368742E+04</totfact>
</mgrwt>
</event>
<event>
 7    0  0.4784406E-002  0.4536038E+03  0.7546771E-02  0.1026653E+00
         21   -1    0    0  502  501  0.00000000000E+00  0.00000000000E+00  0.75449571725E+02  0.75449571725E+02  0.00000000000E+00 0.  1.
         21   -1    0    0  501  502 -0.00000000000E+00 -0.00000000000E+00 -0.68176789132E+03  0.68176789132E+03  0.00000000000E+00 0.  1.
      99926    2    1    2    0    0  0.00000000000E+00  0.00000000000E+00 -0.60631831960E+03  0.75721746305E+03  0.45360377166E+03 0.  0.
      99925    2    3    3    0    0 -0.90739441076E+02 -0.59684099217E+02 -0.33754167179E+03  0.44148936425E+03  0.26302593158E+03 0.  0.
         25    1    4    4    0    0 -0.60020728220E+02 -0.56998055979E+02 -0.13708995611E+03  0.20320538961E+03  0.12509000000E+03 0.  0.
         25    1    3    3    0    0  0.90739441076E+02  0.59684099217E+02 -0.26877664781E+03  0.31572809880E+03  0.12509000000E+03 0.  0.
         25    1    4    4    0    0 -0.30718712856E+02 -0.26860432384E+01 -0.20045171569E+03  0.23828397464E+03  0.12509000000E+03 0.  0.
<mgrwt>
<rscale>  2 0.45360377E+03</rscale>
<asrwt>0</asrwt>
<pdfrwt beam="1">  1       21 0.11095526E-01 0.45360377E+03</pdfrwt>
<pdfrwt beam="2">  1       21 0.10025998E+00 0.45360377E+03</pdfrwt>
<totfact> 0.50453953E+04</totfact>
</mgrwt>
</event>
<event>
 7    0  0.4784406E-002  0.4439956E+03  0.7546771E-02  0.1029528E+00
         21   -1    0    0  502  501  0.00000000000E+00  0.00000000000E+00  0.77113561688E+03  0.77113561688E+03  0.00000000000E+00 0. -1.
         21   -1    0    0  501  502 -0.00000000000E+00 -0.00000000000E+00 -0.63909682015E+02  0.63909682015E+02  0.00000000000E+00 0. -1.
      99926    2    1    2    0    0  0.71054273576E-14  0.00000000000E+00  0.70722593486E+03  0.83504529889E+03  0.44399563991E+03 0.  0.
      99925    2    3    3    0    0  0.61431383267E+02  0.51047226568E+02  0.57029900869E+03  0.63311430721E+03  0.26308388870E+03 0.  0.
         25    1    4    4    0    0  0.64846774641E+02  0.48986018759E+02  0.28890725495E+03  0.32514557398E+03  0.12509000000E+03 0.  0.
         25    1    4    4    0    0 -0.34153913740E+01  0.20612078097E+01  0.28139175375E+03  0.30796873324E+03  0.12509000000E+03 0.  0.
         25    1    3    3    0    0 -0.61431383267E+02 -0.51047226568E+02  0.13692692617E+03  0.20193099168E+03  0.12509000000E+03 0.  0.
<mgrwt>
<rscale>  2 0.44399564E+03</rscale>
<asrwt>0</asrwt>
<pdfrwt beam="1">  1       21 0.11340229E+00 0.44399564E+03</pdfrwt>
<pdfrwt beam="2">  1       21 0.93984831E-02 0.44399564E+03</pdfrwt>
<totfact> 0.50321881E+04</totfact>
</mgrwt>
</event>
<event>
 7    0  0.4784406E-002  0.4493030E+03  0.7546771E-02  0.1027930E+00
         21   -1    0    0  502  501  0.00000000000E+00  0.00000000000E+00  0.29412871602E+02  0.29412871602E+02  0.00000000000E+00 0. -1.
         21   -1    0    0  501  502 -0.00000000000E+00 -0.00000000000E+00 -0.17158575687E+04  0.17158575687E+04  0.00000000000E+00 0. -1.
      99926    2    1    2    0    0  0.71054273576E-14  0.00000000000E+00 -0.16864446971E+04  0.17452704403E+04  0.44930300847E+03 0.  0.
      99925    2    3    3    0    0  0.61372888755E+02  0.57310747603E+02 -0.80564257195E+03  0.85167598809E+03  0.26313662170E+03 0.  0.
         25    1    4    4    0    0 -0.10185092951E+02  0.33820021965E+02 -0.39626637196E+03  0.41703965717E+03  0.12509000000E+03 0.  0.
         25    1    4    4    0    0  0.71557981706E+02  0.23490725638E+02 -0.40937619998E+03  0.43463633091E+03  0.12509000000E+03 0.  0.
         25    1    3    3    0    0 -0.61372888755E+02 -0.57310747603E+02 -0.88080212512E+03  0.89359445219E+03  0.12509000000E+03 0.  0.
<mgrwt>
<rscale>  2 0.44930301E+03</rscale>
<asrwt>0</asrwt>
<pdfrwt beam="1">  1       21 0.43254224E-02 0.44930301E+03</pdfrwt>
<pdfrwt beam="2">  1       21 0.25233199E+00 0.44930301E+03</pdfrwt>
<totfact> 0.19169098E+04</totfact>
</mgrwt>
</event>
<event>
 7    0  0.4784406E-002  0.4527931E+03  0.7546771E-02  0.1026892E+00
         21   -1    0    0  502  501  0.00000000000E+00  0.00000000000E+00  0.24020490699E+02  0.24020490699E+02  0.00000000000E+00 0.  1.
         21   -1    0    0  501  502 -0.00000000000E+00 -0.00000000000E+00 -0.21338195158E+04  0.21338195158E+04  0.00000000000E+00 0.  1.
      99926    2    1    2    0    0  0.00000000000E+00  0.00000000000E+00 -0.21097990251E+04  0.21578400065E+04  0.45279307341E+03 0.  0.
      99925    2    3    3    0    0  0.32943000680E+02 -0.10549592516E+03 -0.12747294269E+04  0.13062512716E+04  0.26294988335E+03 0.  0.
         25    1    3    3    0    0 -0.32943000680E+02  0.10549592516E+03 -0.83506959815E+03  0.85158873488E+03  0.12509000000E+03 0.  0.
         25    1    4    4    0    0 -0.60170638137E+00 -0.19483946745E+02 -0.67006018538E+03  0.68191505803E+03  0.12509000000E+03 0.  0.
         25    1    4    4    0    0  0.33544707061E+02 -0.86011978411E+02 -0.60466924156E+03  0.62433621358E+03  0.12509000000E+03 0.  0.
<mgrwt>
<rscale>  2 0.45279307E+03</rscale>
<asrwt>0</asrwt>
<pdfrwt beam="1">  1       21 0.35324241E-02 0.45279307E+03</pdfrwt>
<pdfrwt beam="2">  1       21 0.31379707E+00 0.45279307E+03</pdfrwt>
<totfact> 0.11495491E+04</totfact>
</mgrwt>
</event>
<event>
 7    0  0.4784406E-002  0.4540940E+03  0.7546771E-02  0.1026508E+00
         21   -1    0    0  502  501  0.00000000000E+00  0.00000000000E+00  0.36694076488E+02  0.36694076488E+02  0.00000000000E+00 0. -1.
         21   -1    0    0  501  502 -0.00000000000E+00 -0.00000000000E+00 -0.14048679747E+04  0.14048679747E+04  0.00000000000E+00 0. -1.
      99926    2    1    2    0    0  0.00000000000E+00  0.00000000000E+00 -0.13681738983E+04  0.14415620512E+04  0.45409396790E+03 0.  0.
      99925    2    3    3    0    0 -0.30559488913E+02 -0.43981988372E+02 -0.54784140256E+03  0.61002058548E+03  0.26291940722E+03 0.  0.
         25    1    4    4    0    0 -0.82250352186E+01  0.16190130824E+02 -0.22930193267E+03  0.26183325985E+03  0.12509000000E+03 0.  0.
         25    1    4    4    0    0 -0.22334453694E+02 -0.60172119196E+02 -0.31853946989E+03  0.34818732563E+03  0.12509000000E+03 0.  0.
         25    1    3    3    0    0  0.30559488913E+02  0.43981988372E+02 -0.82033249570E+03  0.83154146576E+03  0.12509000000E+03 0.  0.
<mgrwt>
<rscale>  2 0.45409397E+03</rscale>
<asrwt>0</asrwt>
<pdfrwt beam="1">  1       21 0.53961876E-02 0.45409397E+03</pdfrwt>
<pdfrwt beam="2">  1       21 0.20659824E+00 0.45409397E+03</pdfrwt>
<totfact> 0.25423705E+04</totfact>
</mgrwt>
</event>
<event>
 7    0  0.4784406E-002  0.4618460E+03  0.7546771E-02  0.1024247E+00
         21   -1    0    0  502  501  0.00000000000E+00  0.00000000000E+00  0.18990507201E+04  0.18990507201E+04  0.00000000000E+00 0. -1.
         21   -1    0    0  501  502 -0.00000000000E+00 -0.00000000000E+00 -0.28080051749E+02  0.28080051749E+02  0.00000000000E+00 0. -1.
      99926    2    1    2    0    0  0.00000000000E+00  0.00000000000E+00  0.18709706683E+04  0.19271307718E+04  0.46184604575E+03 0.  0.
      99925    2    3    3    0    0 -0.64925776060E+02  0.65796462157E+02  0.14866827911E+04  0.15125596543E+04  0.26280497623E+03 0.  0.
         25    1    3    3    0    0  0.64925776060E+02 -0.65796462157E+02  0.38428787723E+03  0.41457111756E+03  0.12509000000E+03 0.  0.
         25    1    4    4    0    0 -0.33453602003E+02 -0.71677928718E+01  0.64030949701E+03  0.65331024851E+03  0.12509000000E+03 0.  0.
         25    1    4    4    0    0 -0.31472174057E+02  0.72964255029E+02  0.84637329411E+03  0.85924940578E+03  0.12509000000E+03 0.  0.
<mgrwt>
<rscale>  2 0.46184605E+03</rscale>
<asrwt>0</asrwt>
<pdfrwt beam="1">  1       21 0.27927208E+00 0.46184605E+03</pdfrwt>
<pdfrwt beam="2">  1       21 0.41294207E-02 0.46184605E+03</pdfrwt>
<totfact> 0.14168346E+04</totfact>
</mgrwt>
</event>
<event>
 7    0  0.4784406E-002  0.4584715E+03  0.7546771E-02  0.1025225E+00
         21   -1    0    0  502  501  0.00000000000E+00  0.00000000000E+00  0.44439873159E+03  0.44439873159E+03  0.00000000000E+00 0.  1.
         21   -1    0    0  501  502 -0.00000000000E+00 -0.00000000000E+00 -0.11824750304E+03  0.11824750304E+03  0.00000000000E+00 0.  1.
      99926    2    1    2    0    0  0.00000000000E+00  0.00000000000E+00  0.32615122855E+03  0.56264623463E+03  0.45847154923E+03 0.  0.
      99925    2    3    3    0    0  0.56676367140E+02 -0.78622977095E+02  0.12536864826E+03  0.30700012030E+03  0.26294104431E+03 0.  0.
         25    1    4    4    0    0  0.23491026698E+01 -0.65230964385E+01  0.45515333515E+02  0.13329374612E+03  0.12509000000E+03 0.  0.
         25    1    4    4    0    0  0.54327264471E+02 -0.72099880656E+02  0.79853314744E+02  0.17370637418E+03  0.12509000000E+03 0.  0.
         25    1    3    3    0    0 -0.56676367140E+02  0.78622977095E+02  0.20078258029E+03  0.25564611432E+03  0.12509000000E+03 0.  0.
<mgrwt>
<rscale>  2 0.45847155E+03</rscale>
<asrwt>0</asrwt>
<pdfrwt beam="1">  1       21 0.65352754E-01 0.45847155E+03</pdfrwt>
<pdfrwt beam="2">  1       21 0.17389339E-01 0.45847155E+03</pdfrwt>
<totfact> 0.59390868E+04</totfact>
</mgrwt>
</event>
<event>
 7    0  0.4784406E-002  0.4443037E+03  0.7546771E-02  0.1029434E+00
         21   -1    0    0  502  501  0.00000000000E+00  0.00000000000E+00  0.39026183983E+03  0.39026183983E+03  0.00000000000E+00 0. -1.
         21   -1    0    0  501  502 -0.00000000000E+00 -0.00000000000E+00 -0.12645726743E+03  0.12645726743E+03  0.00000000000E+00 0. -1.
      99926    2    1    2    0    0  0.00000000000E+00  0.00000000000E+00  0.26380457240E+03  0.51671910726E+03  0.44430370626E+03 0.  0.
      99925    2    3    3    0    0  0.65035243925E+02  0.76401134476E+02  0.14175286618E+03  0.31519778484E+03  0.26303811928E+03 0.  0.
         25    1    4    4    0    0  0.65333999174E+02  0.44453316731E+02  0.47673890995E+02  0.15545075361E+03  0.12509000000E+03 0.  0.
         25    1    3    3    0    0 -0.65035243925E+02 -0.76401134476E+02  0.12205170622E+03  0.20152132243E+03  0.12509000000E+03 0.  0.
         25    1    4    4    0    0 -0.29875524910E+00  0.31947817744E+02  0.94078975183E+02  0.15974703122E+03  0.12509000000E+03 0.  0.
<mgrwt>
<rscale>  2 0.44430371E+03</rscale>
<asrwt>0</asrwt>
<pdfrwt beam="1">  1       21 0.57391447E-01 0.44430371E+03</pdfrwt>
<pdfrwt beam="2">  1       21 0.18596657E-01 0.44430371E+03</pdfrwt>
<totfact> 0.69851745E+04</totfact>
</mgrwt>
</event>
<event>
 7    0  0.4784406E-002  0.4539803E+03  0.7546771E-02  0.1026542E+00
         21   -1    0    0  502  501  0.00000000000E+00  0.00000000000E+00  0.17734807953E+03  0.17734807953E+03  0.00000000000E+00 0.  1.
         21   -1    0    0  501  502 -0.00000000000E+00 -0.00000000000E+00 -0.29052767948E+03  0.29052767948E+03  0.00000000000E+00 0.  1.
      99926    2    1    2    0    0 -0.14210854715E-13  0.14210854715E-13 -0.11317959995E+03  0.46787575902E+03  0.45398029036E+03 0.  0.
      99925    2    3    3    0    0  0.78661996506E+02 -0.78676539693E+02 -0.56286716369E+02  0.29106508091E+03  0.26300756508E+03 0.  0.
         25    1    4    4    0    0  0.10960641710E+02 -0.13433903386E+02 -0.45411592577E+02  0.13420255686E+03  0.12509000000E+03 0.  0.
         25    1    4    4    0    0  0.67701354795E+02 -0.65242636307E+02 -0.10875123792E+02  0.15686252405E+03  0.12509000000E+03 0.  0.
         25    1    3    3    0    0 -0.78661996506E+02  0.78676539693E+02 -0.56892883581E+02  0.17681067811E+03  0.12509000000E+03 0.  0.
<mgrwt>
<rscale>  2 0.45398029E+03</rscale>
<asrwt>0</asrwt>
<pdfrwt beam="1">  1       21 0.26080600E-01 0.45398029E+03</pdfrwt>
<pdfrwt beam="2">  1       21 0.42724658E-01 0.45398029E+03</pdfrwt>
<totfact> 0.68143633E+04</totfact>
</mgrwt>
</event>
<event>
 7    0  0.4784406E-002  0.4556227E+03  0.7546771E-02  0.1026058E+00
         21   -1    0    0  502  501  0.00000000000E+00  0.00000000000E+00  0.41533889333E+03  0.41533889333E+03  0.00000000000E+00 0. -1.
         21   -1    0    0  501  502 -0.00000000000E+00 -0.00000000000E+00 -0.12495341513E+03  0.12495341513E+03  0.00000000000E+00 0. -1.
      99926    2    1    2    0    0  0.14210854715E-13  0.00000000000E+00  0.29038547820E+03  0.54029230846E+03  0.45562270864E+03 0.  0.
      99925    2    3    3    0    0  0.10910986755E+03  0.22159443079E+02  0.21210973756E+03  0.35543938371E+03  0.26258448281E+03 0.  0.
         25    1    4    4    0    0  0.36907362901E+02 -0.12958255913E+01  0.57418559208E+02  0.14250695296E+03  0.12509000000E+03 0.  0.
         25    1    4    4    0    0  0.72202504647E+02  0.23455268671E+02  0.15469117835E+03  0.21293243075E+03  0.12509000000E+03 0.  0.
         25    1    3    3    0    0 -0.10910986755E+03 -0.22159443079E+02  0.78275740643E+02  0.18485292475E+03  0.12509000000E+03 0.  0.
<mgrwt>
<rscale>  2 0.45562271E+03</rscale>
<asrwt>0</asrwt>
<pdfrwt beam="1">  1       21 0.61079248E-01 0.45562271E+03</pdfrwt>
<pdfrwt beam="2">  1       21 0.18375502E-01 0.45562271E+03</pdfrwt>
<totfact> 0.62205481E+04</totfact>
</mgrwt>
</event>
<event>
 7    0  0.4784406E-002  0.4447374E+03  0.7546771E-02  0.1029303E+00
         21   -1    0    0  502  501  0.00000000000E+00  0.00000000000E+00  0.20323822556E+03  0.20323822556E+03  0.00000000000E+00 0.  1.
         21   -1    0    0  501  502 -0.00000000000E+00 -0.00000000000E+00 -0.24329985895E+03  0.24329985895E+03  0.00000000000E+00 0.  1.
      99926    2    1    2    0    0  0.14210854715E-13 -0.17763568394E-14 -0.40061633390E+02  0.44653808451E+03  0.44473736795E+03 0.  0.
      99925    2    3    3    0    0  0.10232505617E+03 -0.81513072008E+01 -0.12700518129E+02  0.28242531945E+03  0.26280391355E+03 0.  0.
         25    1    3    3    0    0 -0.10232505617E+03  0.81513072008E+01 -0.27361115261E+02  0.16411276506E+03  0.12509000000E+03 0.  0.
         25    1    4    4    0    0  0.11304286104E+02 -0.14376079142E+02  0.54624691630E+01  0.12653776197E+03  0.12509000000E+03 0.  0.
         25    1    4    4    0    0  0.91020770064E+02  0.62247719415E+01 -0.18162987292E+02  0.15588755748E+03  0.12509000000E+03 0.  0.
<mgrwt>
<rscale>  2 0.44473737E+03</rscale>
<asrwt>0</asrwt>
<pdfrwt beam="1">  1       21 0.29887975E-01 0.44473737E+03</pdfrwt>
<pdfrwt beam="2">  1       21 0.35779391E-01 0.44473737E+03</pdfrwt>
<totfact> 0.75136620E+04</totfact>
</mgrwt>
</event>
<event>
 7    0  0.4784406E-002  0.4563032E+03  0.7546771E-02  0.1025859E+00
         21   -1    0    0  502  501  0.00000000000E+00  0.00000000000E+00  0.28701696837E+03  0.28701696837E+03  0.00000000000E+00 0. -1.
         21   -1    0    0  501  502 -0.00000000000E+00 -0.00000000000E+00 -0.18135914120E+03  0.18135914120E+03  0.00000000000E+00 0. -1.
      99926    2    1    2    0    0  0.00000000000E+00 -0.71054273576E-14  0.10565782717E+03  0.46837610957E+03  0.45630319260E+03 0.  0.
      99925    2    3    3    0    0  0.35450691222E+02  0.61431082454E+02  0.15862742996E+03  0.31513180684E+03  0.26289706112E+03 0.  0.
         25    1    3    3    0    0 -0.35450691222E+02 -0.61431082454E+02 -0.52969602794E+02  0.15324430273E+03  0.12509000000E+03 0.  0.
         25    1    4    4    0    0  0.23201039068E+02  0.42752466219E+01  0.40966114607E+02  0.13372470450E+03  0.12509000000E+03 0.  0.
         25    1    4    4    0    0  0.12249652154E+02  0.57155835832E+02  0.11766131536E+03  0.18140710234E+03  0.12509000000E+03 0.  0.
<mgrwt>
<rscale>  2 0.45630319E+03</rscale>
<asrwt>0</asrwt>
<pdfrwt beam="1">  1       21 0.42208378E-01 0.45630319E+03</pdfrwt>
<pdfrwt beam="2">  1       21 0.26670462E-01 0.45630319E+03</pdfrwt>
<totfact> 0.66863041E+04</totfact>
</mgrwt>
</event>
<event>
 7    0  0.4784406E-002  0.3974486E+03  0.7546771E-02  0.1044667E+00
         21   -1    0    0  502  501  0.00000000000E+00  0.00000000000E+00  0.44043915845E+02  0.44043915845E+02  0.00000000000E+00 0. -1.
         21   -1    0    0  501  502 -0.00000000000E+00 -0.00000000000E+00 -0.89663555319E+03  0.89663555319E+03  0.00000000000E+00 0. -1.
      99926    2    1    2    0    0  0.00000000000E+00  0.00000000000E+00 -0.85259163734E+03  0.94067946903E+03  0.39744856698E+03 0.  0.
      99925    2    3    3    0    0  0.15571656672E+02  0.16693138679E+02 -0.50329137471E+03  0.56895467978E+03  0.26435975944E+03 0.  0.
         25    1    4    4    0    0  0.41221152188E+02  0.16930045326E+02 -0.20220284965E+03  0.24190764835E+03  0.12509000000E+03 0.  0.
         25    1    3    3    0    0 -0.15571656672E+02 -0.16693138679E+02 -0.34930026263E+03  0.37172478925E+03  0.12509000000E+03 0.  0.
         25    1    4    4    0    0 -0.25649495516E+02 -0.23690664742E+00 -0.30108852506E+03  0.32704703143E+03  0.12509000000E+03 0.  0.
<mgrwt>
<rscale>  2 0.39744857E+03</rscale>
<asrwt>0</asrwt>
<pdfrwt beam="1">  1       21 0.64770459E-02 0.39744857E+03</pdfrwt>
<pdfrwt beam="2">  1       21 0.13185818E+00 0.39744857E+03</pdfrwt>
<totfact> 0.66951425E+04</totfact>
</mgrwt>
</event>
<event>
 7    0  0.4784406E-002  0.4529171E+03  0.7546771E-02  0.1026856E+00
         21   -1    0    0  502  501  0.00000000000E+00  0.00000000000E+00  0.14465585368E+03  0.14465585368E+03  0.00000000000E+00 0.  1.
         21   -1    0    0  501  502 -0.00000000000E+00 -0.00000000000E+00 -0.35452059099E+03  0.35452059099E+03  0.00000000000E+00 0.  1.
      99926    2    1    2    0    0  0.00000000000E+00  0.00000000000E+00 -0.20986473731E+03  0.49917644466E+03  0.45291711707E+03 0.  0.
      99925    2    3    3    0    0  0.85799782606E+02  0.69847210482E+02 -0.14434400518E+03  0.31978661790E+03  0.26303622117E+03 0.  0.
         25    1    3    3    0    0 -0.85799782606E+02 -0.69847210482E+02 -0.65520732128E+02  0.17938982676E+03  0.12509000000E+03 0.  0.
         25    1    4    4    0    0  0.27572920280E+02  0.51993442049E+02 -0.34393223405E+02  0.14245696145E+03  0.12509000000E+03 0.  0.
         25    1    4    4    0    0  0.58226862326E+02  0.17853768433E+02 -0.10995078178E+03  0.17732965645E+03  0.12509000000E+03 0.  0.
<mgrwt>
<rscale>  2 0.45291712E+03</rscale>
<asrwt>0</asrwt>
<pdfrwt beam="1">  1       21 0.21272920E-01 0.45291712E+03</pdfrwt>
<pdfrwt beam="2">  1       21 0.52135380E-01 0.45291712E+03</pdfrwt>
<totfact> 0.66419966E+04</totfact>
</mgrwt>
</event>
<event>
 7    0  0.4784406E-002  0.4493208E+03  0.7546771E-02  0.1027925E+00
         21   -1    0    0  502  501  0.00000000000E+00  0.00000000000E+00  0.66830004872E+03  0.66830004872E+03  0.00000000000E+00 0. -1.
         21   -1    0    0  501  502 -0.00000000000E+00 -0.00000000000E+00 -0.75523419498E+02  0.75523419498E+02  0.00000000000E+00 0. -1.
      99926    2    1    2    0    0  0.00000000000E+00 -0.62172489379E-14  0.59277662923E+03  0.74382346822E+03  0.44932084274E+03 0.  0.
      99925    2    3    3    0    0  0.10362547852E+03 -0.59606737206E+01  0.32704716309E+03  0.43232157946E+03  0.26299872956E+03 0.  0.
         25    1    4    4    0    0  0.51333193851E+02 -0.39474522614E+02  0.13716426040E+03  0.19660843613E+03  0.12509000000E+03 0.  0.
         25    1    4    4    0    0  0.52292284672E+02  0.33513848893E+02  0.18988290270E+03  0.23571314333E+03  0.12509000000E+03 0.  0.
         25    1    3    3    0    0 -0.10362547852E+03  0.59606737206E+01  0.26572946613E+03  0.31150188876E+03  0.12509000000E+03 0.  0.
<mgrwt>
<rscale>  2 0.44932084E+03</rscale>
<asrwt>0</asrwt>
<pdfrwt beam="1">  1       21 0.98279416E-01 0.44932084E+03</pdfrwt>
<pdfrwt beam="2">  1       21 0.11106386E-01 0.44932084E+03</pdfrwt>
<totfact> 0.52910107E+04</totfact>
</mgrwt>
</event>
<event>
 7    0  0.4784406E-002  0.4410964E+03  0.7546771E-02  0.1030411E+00
         21   -1    0    0  502  501  0.00000000000E+00  0.00000000000E+00  0.49013181972E+03  0.49013181972E+03  0.00000000000E+00 0. -1.
         21   -1    0    0  501  502 -0.00000000000E+00 -0.00000000000E+00 -0.99241666289E+02  0.99241666289E+02  0.00000000000E+00 0. -1.
      99926    2    1    2    0    0 -0.44408920985E-15 -0.35527136788E-14  0.39089015344E+03  0.58937348601E+03  0.44109635451E+03 0.  0.
      99925    2    3    3    0    0  0.29031257040E+01 -0.18139189565E+02  0.11841161541E+03  0.28899119605E+03  0.26297745606E+03 0.  0.
         25    1    4    4    0    0  0.10214976392E+02  0.28393764401E+02  0.72284769588E+02  0.14759115019E+03  0.12509000000E+03 0.  0.
         25    1    4    4    0    0 -0.73118506885E+01 -0.46532953966E+02  0.46126845822E+02  0.14140004587E+03  0.12509000000E+03 0.  0.
         25    1    3    3    0    0 -0.29031257040E+01  0.18139189565E+02  0.27247853803E+03  0.30038228996E+03  0.12509000000E+03 0.  0.
<mgrwt>
<rscale>  2 0.44109635E+03</rscale>
<asrwt>0</asrwt>
<pdfrwt beam="1">  1       21 0.72078208E-01 0.44109635E+03</pdfrwt>
<pdfrwt beam="2">  1       21 0.14594363E-01 0.44109635E+03</pdfrwt>
<totfact> 0.66330859E+04</totfact>
</mgrwt>
</event>
<event>
 7    0  0.4784406E-002  0.4471067E+03  0.7546771E-02  0.1028588E+00
         21   -1    0    0  502  501  0.00000000000E+00  0.00000000000E+00  0.13061094385E+04  0.13061094385E+04  0.00000000000E+00 0. -1.
         21   -1    0    0  501  502 -0.00000000000E+00 -0.00000000000E+00 -0.38263329403E+02  0.38263329403E+02  0.00000000000E+00 0. -1.
      99926    2    1    2    0    0  0.00000000000E+00  0.00000000000E+00  0.12678461091E+04  0.13443727679E+04  0.44710667936E+03 0.  0.
      99925    2    3    3    0    0  0.41284581279E+02  0.97418215006E+02  0.83737977904E+03  0.88378239167E+03  0.26205285003E+03 0.  0.
         25    1    3    3    0    0 -0.41284581279E+02 -0.97418215006E+02  0.43046633005E+03  0.46059037622E+03  0.12509000000E+03 0.  0.
         25    1    4    4    0    0  0.97869300133E+01  0.34679854152E+02  0.28922920634E+03  0.31717427100E+03  0.12509000000E+03 0.  0.
         25    1    4    4    0    0  0.31497651266E+02  0.62738360854E+02  0.54815057270E+03  0.56660812067E+03  0.12509000000E+03 0.  0.
<mgrwt>
<rscale>  2 0.44710668E+03</rscale>
<asrwt>0</asrwt>
<pdfrwt beam="1">  1       21 0.19207489E+00 0.44710668E+03</pdfrwt>
<pdfrwt beam="2">  1       21 0.56269611E-02 0.44710668E+03</pdfrwt>
<totfact> 0.29629552E+04</totfact>
</mgrwt>
</event>
<event>
 7    0  0.4784406E-002  0.4532792E+03  0.7546771E-02  0.1026749E+00
         21   -1    0    0  502  501  0.00000000000E+00  0.00000000000E+00  0.10699196205E+04  0.10699196205E+04  0.00000000000E+00 0.  1.
         21   -1    0    0  501  502 -0.00000000000E+00 -0.00000000000E+00 -0.48008759275E+02  0.48008759275E+02  0.00000000000E+00 0.  1.
      99926    2    1    2    0    0  0.71054273576E-14  0.22204460493E-14  0.10219108612E+04  0.11179283797E+04  0.45327922301E+03 0.  0.
      99925    2    3    3    0    0 -0.46543118815E+02  0.35841856897E+01  0.89393094581E+03  0.93298115717E+03  0.26298706329E+03 0.  0.
         25    1    4    4    0    0 -0.33386040127E+02 -0.18553217107E+02  0.33458132572E+03  0.35923672023E+03  0.12509000000E+03 0.  0.
         25    1    4    4    0    0 -0.13157078688E+02  0.22137402797E+02  0.55934962009E+03  0.57374443694E+03  0.12509000000E+03 0.  0.
         25    1    3    3    0    0  0.46543118815E+02 -0.35841856897E+01  0.12797991537E+03  0.18494722256E+03  0.12509000000E+03 0.  0.
<mgrwt>
<rscale>  2 0.45327922E+03</rscale>
<asrwt>0</asrwt>
<pdfrwt beam="1">  1       21 0.15734111E+00 0.45327922E+03</pdfrwt>
<pdfrwt beam="2">  1       21 0.70601123E-02 0.45327922E+03</pdfrwt>
<totfact> 0.35343146E+04</totfact>
</mgrwt>
</event>
<event>
 7    0  0.4784406E-002  0.4566000E+03  0.7546771E-02  0.1025772E+00
         21   -1    0    0  502  501  0.00000000000E+00  0.00000000000E+00  0.38471409325E+04  0.38471409325E+04  0.00000000000E+00 0.  1.
         21   -1    0    0  501  502 -0.00000000000E+00 -0.00000000000E+00 -0.13547955157E+02  0.13547955157E+02  0.00000000000E+00 0.  1.
      99926    2    1    2    0    0 -0.14210854715E-13  0.35527136788E-14  0.38335929773E+04  0.38606888876E+04  0.45660001242E+03 0.  0.
      99925    2    3    3    0    0 -0.10813502480E+03  0.17028428207E+02  0.26999120977E+04  0.27148865505E+04  0.26286973125E+03 0.  0.
         25    1    3    3    0    0  0.10813502480E+03 -0.17028428207E+02  0.11336808796E+04  0.11458023371E+04  0.12509000000E+03 0.  0.
         25    1    4    4    0    0 -0.44751761998E+02 -0.18761718966E+02  0.15745599466E+04  0.15802661978E+04  0.12509000000E+03 0.  0.
         25    1    4    4    0    0 -0.63383262802E+02  0.35790147173E+02  0.11253521512E+04  0.11346203527E+04  0.12509000000E+03 0.  0.
<mgrwt>
<rscale>  2 0.45660001E+03</rscale>
<asrwt>0</asrwt>
<pdfrwt beam="1">  1       21 0.56575526E+00 0.45660001E+03</pdfrwt>
<pdfrwt beam="2">  1       21 0.19923490E-02 0.45660001E+03</pdfrwt>
<totfact> 0.60380631E+02</totfact>
</mgrwt>
</event>
<event>
 7    0  0.4784406E-002  0.4540711E+03  0.7546771E-02  0.1026515E+00
         21   -1    0    0  502  501  0.00000000000E+00  0.00000000000E+00  0.25764231368E+02  0.25764231368E+02  0.00000000000E+00 0.  1.
         21   -1    0    0  501  502 -0.00000000000E+00 -0.00000000000E+00 -0.20006477230E+04  0.20006477230E+04  0.00000000000E+00 0.  1.
      99926    2    1    2    0    0  0.35527136788E-14  0.00000000000E+00 -0.19748834916E+04  0.20264119543E+04  0.45407114341E+03 0.  0.
      99925    2    3    3    0    0 -0.30286225799E+02 -0.10177865193E+03 -0.14010086706E+04  0.14295401359E+04  0.26359733564E+03 0.  0.
         25    1    3    3    0    0  0.30286225799E+02  0.10177865193E+03 -0.57387482097E+03  0.59687181849E+03  0.12509000000E+03 0.  0.
         25    1    4    4    0    0 -0.32501132461E+02 -0.67895933701E+02 -0.56569228334E+03  0.58422722374E+03  0.12509000000E+03 0.  0.
         25    1    4    4    0    0  0.22149066621E+01 -0.33882718231E+02 -0.83531638729E+03  0.84531291211E+03  0.12509000000E+03 0.  0.
<mgrwt>
<rscale>  2 0.45407114E+03</rscale>
<asrwt>0</asrwt>
<pdfrwt beam="1">  1       21 0.37888560E-02 0.45407114E+03</pdfrwt>
<pdfrwt beam="2">  1       21 0.29421302E+00 0.45407114E+03</pdfrwt>
<totfact> 0.13379416E+04</totfact>
</mgrwt>
</event>
<event>
 7    0  0.4784406E-002  0.4562623E+03  0.7546771E-02  0.1025871E+00
         21   -1    0    0  502  501  0.00000000000E+00  0.00000000000E+00  0.25289958355E+03  0.25289958355E+03  0.00000000000E+00 0. -1.
         21   -1    0    0  501  502 -0.00000000000E+00 -0.00000000000E+00 -0.20578848381E+03  0.20578848381E+03  0.00000000000E+00 0. -1.
      99926    2    1    2    0    0  0.00000000000E+00  0.00000000000E+00  0.47111099739E+02  0.45868806735E+03  0.45626230111E+03 0.  0.
      99925    2    3    3    0    0  0.43139312691E+02  0.10231809348E+03  0.56859870940E+02  0.29113944995E+03  0.26305729764E+03 0.  0.
         25    1    3    3    0    0 -0.43139312691E+02 -0.10231809348E+03 -0.97487712010E+01  0.16754861740E+03  0.12509000000E+03 0.  0.
         25    1    4    4    0    0 -0.66529612699E+01  0.44226680436E+02  0.56869963350E+02  0.14450592371E+03  0.12509000000E+03 0.  0.
         25    1    4    4    0    0  0.49792273961E+02  0.58091413046E+02 -0.10092410677E-01  0.14663352624E+03  0.12509000000E+03 0.  0.
<mgrwt>
<rscale>  2 0.45626230E+03</rscale>
<asrwt>0</asrwt>
<pdfrwt beam="1">  1       21 0.37191116E-01 0.45626230E+03</pdfrwt>
<pdfrwt beam="2">  1       21 0.30263012E-01 0.45626230E+03</pdfrwt>
<totfact> 0.67593105E+04</totfact>
</mgrwt>
</event>
<event>
 7    0  0.4784406E-002  0.4580759E+03  0.7546771E-02  0.1025341E+00
         21   -1    0    0  502  501  0.00000000000E+00  0.00000000000E+00  0.69667165620E+03  0.69667165620E+03  0.00000000000E+00 0. -1.
         21   -1    0    0  501  502 -0.00000000000E+00 -0.00000000000E+00 -0.75298570512E+02  0.75298570512E+02  0.00000000000E+00 0. -1.
      99926    2    1    2    0    0  0.35527136788E-14  0.00000000000E+00  0.62137308569E+03  0.77197022671E+03  0.45807588816E+03 0.  0.
      99925    2    3    3    0    0 -0.18277101563E+02  0.80218405254E+02  0.25430581519E+03  0.37554251054E+03  0.26380235897E+03 0.  0.
         25    1    4    4    0    0  0.75622771783E+01  0.54924014102E+02  0.81811249029E+02  0.15941901997E+03  0.12509000000E+03 0.  0.
         25    1    4    4    0    0 -0.25839378742E+02  0.25294391152E+02  0.17249456616E+03  0.21612349056E+03  0.12509000000E+03 0.  0.
         25    1    3    3    0    0  0.18277101563E+02 -0.80218405254E+02  0.36706727049E+03  0.39642771617E+03  0.12509000000E+03 0.  0.
<mgrwt>
<rscale>  2 0.45807589E+03</rscale>
<asrwt>0</asrwt>
<pdfrwt beam="1">  1       21 0.10245171E+00 0.45807589E+03</pdfrwt>
<pdfrwt beam="2">  1       21 0.11073320E-01 0.45807589E+03</pdfrwt>
<totfact> 0.47981378E+04</totfact>
</mgrwt>
</event>
<event>
 7    0  0.4784406E-002  0.4620545E+03  0.7546771E-02  0.1024187E+00
         21   -1    0    0  502  501  0.00000000000E+00  0.00000000000E+00  0.35795823238E+03  0.35795823238E+03  0.00000000000E+00 0.  1.
         21   -1    0    0  501  502 -0.00000000000E+00 -0.00000000000E+00 -0.14910565145E+03  0.14910565145E+03  0.00000000000E+00 0.  1.
      99926    2    1    2    0    0  0.35527136788E-14  0.14210854715E-13  0.20885258093E+03  0.50706388383E+03  0.46205452246E+03 0.  0.
      99925    2    3    3    0    0  0.31576420589E+02  0.97857708259E+02  0.19799095235E+03  0.34477191090E+03  0.26285747455E+03 0.  0.
         25    1    3    3    0    0 -0.31576420589E+02 -0.97857708259E+02  0.10861628581E+02  0.16229197293E+03  0.12509000000E+03 0.  0.
         25    1    4    4    0    0  0.48727364054E+02  0.37330795341E+02  0.74128639131E+02  0.15783062924E+03  0.12509000000E+03 0.  0.
         25    1    4    4    0    0 -0.17150943465E+02  0.60526912918E+02  0.12386231322E+03  0.18694128165E+03  0.12509000000E+03 0.  0.
<mgrwt>
<rscale>  2 0.46205452E+03</rscale>
<asrwt>0</asrwt>
<pdfrwt beam="1">  1       21 0.52640917E-01 0.46205452E+03</pdfrwt>
<pdfrwt beam="2">  1       21 0.21927302E-01 0.46205452E+03</pdfrwt>
<totfact> 0.61273568E+04</totfact>
</mgrwt>
</event>
<event>
 7    0  0.4784406E-002  0.4492941E+03  0.7546771E-02  0.1027933E+00
         21   -1    0    0  502  501  0.00000000000E+00  0.00000000000E+00  0.16691001417E+03  0.16691001417E+03  0.00000000000E+00 0. -1.
         21   -1    0    0  501  502 -0.00000000000E+00 -0.00000000000E+00 -0.30235633508E+03  0.30235633508E+03  0.00000000000E+00 0. -1.
      99926    2    1    2    0    0  0.00000000000E+00  0.00000000000E+00 -0.13544632091E+03  0.46926634925E+03  0.44929411379E+03 0.  0.
      99925    2    3    3    0    0 -0.68584963577E+02 -0.13052723366E+02 -0.17131986442E+03  0.32158869339E+03  0.26304851446E+03 0.  0.
         25    1    4    4    0    0 -0.47557903352E+02  0.14631348566E+02 -0.49148852050E+02  0.14331415942E+03  0.12509000000E+03 0.  0.
         25    1    3    3    0    0  0.68584963577E+02  0.13052723366E+02  0.35873543502E+02  0.14767765586E+03  0.12509000000E+03 0.  0.
         25    1    4    4    0    0 -0.21027060225E+02 -0.27684071932E+02 -0.12217101237E+03  0.17827453397E+03  0.12509000000E+03 0.  0.
<mgrwt>
<rscale>  2 0.44929411E+03</rscale>
<asrwt>0</asrwt>
<pdfrwt beam="1">  1       21 0.24545590E-01 0.44929411E+03</pdfrwt>
<pdfrwt beam="2">  1       21 0.44464167E-01 0.44929411E+03</pdfrwt>
<totfact> 0.70634380E+04</totfact>
</mgrwt>
</event>
<event>
 7    0  0.4784406E-002  0.4322584E+03  0.7546771E-02  0.1033149E+00
         21   -1    0    0  502  501  0.00000000000E+00  0.00000000000E+00  0.41515006195E+02  0.41515006195E+02  0.00000000000E+00 0.  1.
         21   -1    0    0  501  502 -0.00000000000E+00 -0.00000000000E+00 -0.11251793218E+04  0.11251793218E+04  0.00000000000E+00 0.  1.
      99926    2    1    2    0    0  0.00000000000E+00 -0.71054273576E-14 -0.10836643157E+04  0.11666943280E+04  0.43225837883E+03 0.  0.
      99925    2    3    3    0    0 -0.73336657797E+02  0.46919009340E+02 -0.76045357927E+03  0.80935366841E+03  0.26302862112E+03 0.  0.
         25    1    4    4    0    0 -0.40079649953E+02  0.56388405983E+02 -0.32678260639E+03  0.35667970311E+03  0.12509000000E+03 0.  0.
         25    1    4    4    0    0 -0.33257007844E+02 -0.94693966427E+01 -0.43367097288E+03  0.45267396530E+03  0.12509000000E+03 0.  0.
         25    1    3    3    0    0  0.73336657797E+02 -0.46919009340E+02 -0.32321073638E+03  0.35734065963E+03  0.12509000000E+03 0.  0.
<mgrwt>
<rscale>  2 0.43225838E+03</rscale>
<asrwt>0</asrwt>
<pdfrwt beam="1">  1       21 0.61051482E-02 0.43225838E+03</pdfrwt>
<pdfrwt beam="2">  1       21 0.16546754E+00 0.43225838E+03</pdfrwt>
<totfact> 0.39834323E+04</totfact>
</mgrwt>
</event>
<event>
 7    0  0.4784406E-002  0.4526255E+03  0.7546771E-02  0.1026942E+00
         21   -1    0    0  502  501  0.00000000000E+00  0.00000000000E+00  0.92880223533E+02  0.92880223533E+02  0.00000000000E+00 0. -1.
         21   -1    0    0  501  502 -0.00000000000E+00 -0.00000000000E+00 -0.55143567826E+03  0.55143567826E+03  0.00000000000E+00 0. -1.
      99926    2    1    2    0    0  0.00000000000E+00  0.00000000000E+00 -0.45855545473E+03  0.64431590179E+03  0.45262553645E+03 0.  0.
      99925    2    3    3    0    0  0.77303762189E+02  0.79260169756E+02 -0.29848379517E+03  0.41295365239E+03  0.26302109588E+03 0.  0.
         25    1    4    4    0    0  0.31934768939E+02  0.10105500277E+02 -0.18047868363E+03  0.22213062361E+03  0.12509000000E+03 0.  0.
         25    1    3    3    0    0 -0.77303762189E+02 -0.79260169756E+02 -0.16007165955E+03  0.23136224941E+03  0.12509000000E+03 0.  0.
         25    1    4    4    0    0  0.45368993250E+02  0.69154669479E+02 -0.11800511155E+03  0.19082302877E+03  0.12509000000E+03 0.  0.
<mgrwt>
<rscale>  2 0.45262554E+03</rscale>
<asrwt>0</asrwt>
<pdfrwt beam="1">  1       21 0.13658856E-01 0.45262554E+03</pdfrwt>
<pdfrwt beam="2">  1       21 0.81093482E-01 0.45262554E+03</pdfrwt>
<totfact> 0.57092280E+04</totfact>
</mgrwt>
</event>
<event>
 7    0  0.4784406E-002  0.4515649E+03  0.7546771E-02  0.1027256E+00
         21   -1    0    0  502  501  0.00000000000E+00  0.00000000000E+00  0.17002207968E+03  0.17002207968E+03  0.00000000000E+00 0. -1.
         21   -1    0    0  501  502 -0.00000000000E+00 -0.00000000000E+00 -0.29982992349E+03  0.29982992349E+03  0.00000000000E+00 0. -1.
      99926    2    1    2    0    0  0.00000000000E+00  0.00000000000E+00 -0.12980784380E+03  0.46985200317E+03  0.45156486640E+03 0.  0.
      99925    2    3    3    0    0 -0.21819406458E+02  0.10228610304E+03 -0.11762980188E+03  0.30634559297E+03  0.26281613091E+03 0.  0.
         25    1    3    3    0    0  0.21819406458E+02 -0.10228610304E+03 -0.12178041926E+02  0.16350641020E+03  0.12509000000E+03 0.  0.
         25    1    4    4    0    0 -0.47622123608E+02  0.36859382096E+02 -0.67173105343E+02  0.15422780193E+03  0.12509000000E+03 0.  0.
         25    1    4    4    0    0  0.25802717151E+02  0.65426720940E+02 -0.50456696535E+02  0.15211779104E+03  0.12509000000E+03 0.  0.
<mgrwt>
<rscale>  2 0.45156487E+03</rscale>
<asrwt>0</asrwt>
<pdfrwt beam="1">  1       21 0.25003247E-01 0.45156487E+03</pdfrwt>
<pdfrwt beam="2">  1       21 0.44092635E-01 0.45156487E+03</pdfrwt>
<totfact> 0.69316727E+04</totfact>
</mgrwt>
</event>
<event>
 7    0  0.4784406E-002  0.4708123E+03  0.7546771E-02  0.1021691E+00
         21   -1    0    0  502  501  0.00000000000E+00  0.00000000000E+00  0.12576602295E+03  0.12576602295E+03  0.00000000000E+00 0.  1.
         21   -1    0    0  501  502 -0.00000000000E+00 -0.00000000000E+00 -0.44062825187E+03  0.44062825187E+03  0.00000000000E+00 0.  1.
      99926    2    1    2    0    0 -0.14210854715E-13  0.14210854715E-13 -0.31486222892E+03  0.56639427482E+03  0.47081233136E+03 0.  0.
      99925    2    3    3    0    0  0.73514304054E+02 -0.74596984737E+02 -0.28270462819E+03  0.40010933138E+03  0.26305228991E+03 0.  0.
         25    1    4    4    0    0  0.49205596990E+02  0.17469861888E+01 -0.12769796901E+03  0.18541446040E+03  0.12509000000E+03 0.  0.
         25    1    4    4    0    0  0.24308707064E+02 -0.76343970926E+02 -0.15500665917E+03  0.21469487098E+03  0.12509000000E+03 0.  0.
         25    1    3    3    0    0 -0.73514304054E+02  0.74596984737E+02 -0.32157600730E+02  0.16628494345E+03  0.12509000000E+03 0.  0.
<mgrwt>
<rscale>  2 0.47081233E+03</rscale>
<asrwt>0</asrwt>
<pdfrwt beam="1">  1       21 0.18495004E-01 0.47081233E+03</pdfrwt>
<pdfrwt beam="2">  1       21 0.64798271E-01 0.47081233E+03</pdfrwt>
<totfact> 0.53751745E+04</totfact>
</mgrwt>
</event>
<event>
 7    0  0.4784406E-002  0.4336890E+03  0.7546771E-02  0.1032701E+00
         21   -1    0    0  502  501  0.00000000000E+00  0.00000000000E+00  0.85561233872E+03  0.85561233872E+03  0.00000000000E+00 0. -1.
         21   -1    0    0  501  502 -0.00000000000E+00 -0.00000000000E+00 -0.54956599131E+02  0.54956599131E+02  0.00000000000E+00 0. -1.
      99926    2    1    2    0    0  0.00000000000E+00  0.00000000000E+00  0.80065573959E+03  0.91056893785E+03  0.43368903288E+03 0.  0.
      99925    2    3    3    0    0  0.19671872227E+02 -0.70006006667E+02  0.63195960942E+03  0.68832196720E+03  0.26291892111E+03 0.  0.
         25    1    4    4    0    0 -0.26659994023E+02 -0.34527027497E+02  0.35398968516E+03  0.37796703059E+03  0.12509000000E+03 0.  0.
         25    1    4    4    0    0  0.46331866250E+02 -0.35478979170E+02  0.27796992426E+03  0.31035493662E+03  0.12509000000E+03 0.  0.
         25    1    3    3    0    0 -0.19671872227E+02  0.70006006667E+02  0.16869613017E+03  0.22224697065E+03  0.12509000000E+03 0.  0.
<mgrwt>
<rscale>  2 0.43368903E+03</rscale>
<asrwt>0</asrwt>
<pdfrwt beam="1">  1       21 0.12582534E+00 0.43368903E+03</pdfrwt>
<pdfrwt beam="2">  1       21 0.80818533E-02 0.43368903E+03</pdfrwt>
<totfact> 0.50723248E+04</totfact>
</mgrwt>
</event>
<event>
 7    0  0.4784406E-002  0.4460175E+03  0.7546771E-02  0.1028916E+00
         21   -1    0    0  502  501  0.00000000000E+00  0.00000000000E+00  0.87138763251E+02  0.87138763251E+02  0.00000000000E+00 0.  1.
         21   -1    0    0  501  502 -0.00000000000E+00 -0.00000000000E+00 -0.57073216257E+03  0.57073216257E+03  0.00000000000E+00 0.  1.
      99926    2    1    2    0    0  0.00000000000E+00  0.00000000000E+00 -0.48359339932E+03  0.65787092582E+03  0.44601746510E+03 0.  0.
      99925    2    3    3    0    0 -0.83265495026E+02 -0.63020940528E+02 -0.30833728777E+03  0.41856569323E+03  0.26309803291E+03 0.  0.
         25    1    4    4    0    0 -0.71372636838E+02 -0.21354089539E+02 -0.12177545835E+03  0.18980732543E+03  0.12509000000E+03 0.  0.
         25    1    4    4    0    0 -0.11892858188E+02 -0.41666850989E+02 -0.18656182942E+03  0.22875836781E+03  0.12509000000E+03 0.  0.
         25    1    3    3    0    0  0.83265495026E+02  0.63020940528E+02 -0.17525611155E+03  0.23930523259E+03  0.12509000000E+03 0.  0.
<mgrwt>
<rscale>  2 0.44601747E+03</rscale>
<asrwt>0</asrwt>
<pdfrwt beam="1">  1       21 0.12814524E-01 0.44601747E+03</pdfrwt>
<pdfrwt beam="2">  1       21 0.83931198E-01 0.44601747E+03</pdfrwt>
<totfact> 0.59342536E+04</totfact>
</mgrwt>
</event>
<event>
 7    0  0.4784406E-002  0.4583931E+03  0.7546771E-02  0.1025248E+00
         21   -1    0    0  502  501  0.00000000000E+00  0.00000000000E+00  0.66410934385E+02  0.66410934385E+02  0.00000000000E+00 0.  1.
         21   -1    0    0  501  502 -0.00000000000E+00 -0.00000000000E+00 -0.79099999910E+03  0.79099999910E+03  0.00000000000E+00 0.  1.
      99926    2    1    2    0    0  0.00000000000E+00  0.00000000000E+00 -0.72458906472E+03  0.85741093349E+03  0.45839305858E+03 0.  0.
      99925    2    3    3    0    0  0.31519587270E+02  0.40129528272E+02 -0.65007964389E+03  0.70312864250E+03  0.26302562818E+03 0.  0.
         25    1    4    4    0    0 -0.14155259774E+02  0.24386155981E+02 -0.24654895994E+03  0.27790097828E+03  0.12509000000E+03 0.  0.
         25    1    3    3    0    0 -0.31519587270E+02 -0.40129528272E+02 -0.74509420825E+02  0.15428229099E+03  0.12509000000E+03 0.  0.
         25    1    4    4    0    0  0.45674847044E+02  0.15743372291E+02 -0.40353068395E+03  0.42522766422E+03  0.12509000000E+03 0.  0.
<mgrwt>
<rscale>  2 0.45839306E+03</rscale>
<asrwt>0</asrwt>
<pdfrwt beam="1">  1       21 0.97663141E-02 0.45839306E+03</pdfrwt>
<pdfrwt beam="2">  1       21 0.11632353E+00 0.45839306E+03</pdfrwt>
<totfact> 0.43928764E+04</totfact>
</mgrwt>
</event>
<event>
 7    0  0.4784406E-002  0.4623290E+03  0.7546771E-02  0.1024108E+00
         21   -1    0    0  502  501  0.00000000000E+00  0.00000000000E+00  0.28254349254E+02  0.28254349254E+02  0.00000000000E+00 0. -1.
         21   -1    0    0  501  502 -0.00000000000E+00 -0.00000000000E+00 -0.18912848660E+04  0.18912848660E+04  0.00000000000E+00 0. -1.
      99926    2    1    2    0    0  0.00000000000E+00  0.00000000000E+00 -0.18630305168E+04  0.19195392153E+04  0.46232898739E+03 0.  0.
      99925    2    3    3    0    0  0.53591577890E+02 -0.46825290778E+02 -0.15653396733E+04  0.15888853003E+04  0.26306565676E+03 0.  0.
         25    1    4    4    0    0  0.10825766418E+02 -0.48501054904E+02 -0.95120488337E+03  0.96068089800E+03  0.12509000000E+03 0.  0.
         25    1    4    4    0    0  0.42765811472E+02  0.16757641261E+01 -0.61413478989E+03  0.62820440230E+03  0.12509000000E+03 0.  0.
         25    1    3    3    0    0 -0.53591577890E+02  0.46825290778E+02 -0.29769084350E+03  0.33065391497E+03  0.12509000000E+03 0.  0.
<mgrwt>
<rscale>  2 0.46232899E+03</rscale>
<asrwt>0</asrwt>
<pdfrwt beam="1">  1       21 0.41550493E-02 0.46232899E+03</pdfrwt>
<pdfrwt beam="2">  1       21 0.27813026E+00 0.46232899E+03</pdfrwt>
<totfact> 0.14240818E+04</totfact>
</mgrwt>
</event>
<event>
 7    0  0.4784406E-002  0.4583529E+03  0.7546771E-02  0.1025260E+00
         21   -1    0    0  502  501  0.00000000000E+00  0.00000000000E+00  0.63098636551E+03  0.63098636551E+03  0.00000000000E+00 0. -1.
         21   -1    0    0  501  502 -0.00000000000E+00 -0.00000000000E+00 -0.83237696054E+02  0.83237696054E+02  0.00000000000E+00 0. -1.
      99926    2    1    2    0    0  0.71054273576E-14  0.17763568394E-14  0.54774866946E+03  0.71422406157E+03  0.45835292649E+03 0.  0.
      99925    2    3    3    0    0 -0.59421830088E+02 -0.13757456091E+02  0.49799151378E+03  0.56642858082E+03  0.26291741645E+03 0.  0.
         25    1    4    4    0    0 -0.44297540119E+02 -0.41553754232E+02  0.29093401579E+03  0.32245789833E+03  0.12509000000E+03 0.  0.
         25    1    3    3    0    0  0.59421830088E+02  0.13757456091E+02  0.49757155673E+02  0.14779548075E+03  0.12509000000E+03 0.  0.
         25    1    4    4    0    0 -0.15124289969E+02  0.27796298140E+02  0.20705749800E+03  0.24397068249E+03  0.12509000000E+03 0.  0.
<mgrwt>
<rscale>  2 0.45835293E+03</rscale>
<asrwt>0</asrwt>
<pdfrwt beam="1">  1       21 0.92792110E-01 0.45835293E+03</pdfrwt>
<pdfrwt beam="2">  1       21 0.12240838E-01 0.45835293E+03</pdfrwt>
<totfact> 0.50784644E+04</totfact>
</mgrwt>
</event>
<event>
 7    0  0.4784406E-002  0.4581746E+03  0.7546771E-02  0.1025312E+00
         21   -1    0    0  502  501  0.00000000000E+00  0.00000000000E+00  0.23494851700E+02  0.23494851700E+02  0.00000000000E+00 0.  1.
         21   -1    0    0  501  502 -0.00000000000E+00 -0.00000000000E+00 -0.22337233256E+04  0.22337233256E+04  0.00000000000E+00 0.  1.
      99926    2    1    2    0    0  0.00000000000E+00  0.14210854715E-13 -0.22102284739E+04  0.22572181773E+04  0.45817463166E+03 0.  0.
      99925    2    3    3    0    0 -0.80055761864E+02 -0.83645578945E+02 -0.13436343352E+04  0.13740203414E+04  0.26300791654E+03 0.  0.
         25    1    4    4    0    0 -0.49468404073E+02 -0.20811952290E+02 -0.49497629521E+03  0.51335105073E+03  0.12509000000E+03 0.  0.
         25    1    3    3    0    0  0.80055761864E+02  0.83645578945E+02 -0.86659413873E+03  0.88319783586E+03  0.12509000000E+03 0.  0.
         25    1    4    4    0    0 -0.30587357791E+02 -0.62833626655E+02 -0.84865803995E+03  0.86066929071E+03  0.12509000000E+03 0.  0.
<mgrwt>
<rscale>  2 0.45817463E+03</rscale>
<asrwt>0</asrwt>
<pdfrwt beam="1">  1       21 0.34551280E-02 0.45817463E+03</pdfrwt>
<pdfrwt beam="2">  1       21 0.32848846E+00 0.45817463E+03</pdfrwt>
<totfact> 0.97048633E+03</totfact>
</mgrwt>
</event>
<event>
 7    0  0.4784406E-002  0.4500658E+03  0.7546771E-02  0.1027702E+00
         21   -1    0    0  502  501  0.00000000000E+00  0.00000000000E+00  0.12033835368E+04  0.12033835368E+04  0.00000000000E+00 0.  1.
         21   -1    0    0  501  502 -0.00000000000E+00 -0.00000000000E+00 -0.42081193089E+02  0.42081193089E+02  0.00000000000E+00 0.  1.
      99926    2    1    2    0    0 -0.71054273576E-14  0.00000000000E+00  0.11613023438E+04  0.12454647299E+04  0.45006583951E+03 0.  0.
      99925    2    3    3    0    0  0.63476701043E+02 -0.69809074550E+02  0.87961379119E+03  0.92313175425E+03  0.26372185270E+03 0.  0.
         25    1    4    4    0    0  0.65991404011E+02 -0.61922756063E+02  0.50785318439E+03  0.53080284299E+03  0.12509000000E+03 0.  0.
         25    1    3    3    0    0 -0.63476701043E+02  0.69809074550E+02  0.28168855256E+03  0.32233297567E+03  0.12509000000E+03 0.  0.
         25    1    4    4    0    0 -0.25147029681E+01 -0.78863184874E+01  0.37176060680E+03  0.39232891127E+03  0.12509000000E+03 0.  0.
<mgrwt>
<rscale>  2 0.45006584E+03</rscale>
<asrwt>0</asrwt>
<pdfrwt beam="1">  1       21 0.17696814E+00 0.45006584E+03</pdfrwt>
<pdfrwt beam="2">  1       21 0.61884115E-02 0.45006584E+03</pdfrwt>
<totfact> 0.31950253E+04</totfact>
</mgrwt>
</event>
<event>
 7    0  0.4784406E-002  0.4570291E+03  0.7546771E-02  0.1025646E+00
         21   -1    0    0  502  501  0.00000000000E+00  0.00000000000E+00  0.78748137235E+03  0.78748137235E+03  0.00000000000E+00 0.  1.
         21   -1    0    0  501  502 -0.00000000000E+00 -0.00000000000E+00 -0.66311280189E+02  0.66311280189E+02  0.00000000000E+00 0.  1.
      99926    2    1    2    0    0  0.00000000000E+00  0.00000000000E+00  0.72117009216E+03  0.85379265253E+03  0.45702909284E+03 0.  0.
      99925    2    3    3    0    0  0.89138330309E+02 -0.16893950487E+02  0.32087877569E+03  0.42471026694E+03  0.26302960795E+03 0.  0.
         25    1    3    3    0    0 -0.89138330309E+02  0.16893950487E+02  0.40029131646E+03  0.42908238560E+03  0.12509000000E+03 0.  0.
         25    1    4    4    0    0  0.44612063855E+02 -0.13687412119E+02  0.22228433416E+03  0.25929792673E+03  0.12509000000E+03 0.  0.
         25    1    4    4    0    0  0.44526266454E+02 -0.32065383676E+01  0.98594441531E+02  0.16541234021E+03  0.12509000000E+03 0.  0.
<mgrwt>
<rscale>  2 0.45702909E+03</rscale>
<asrwt>0</asrwt>
<pdfrwt beam="1">  1       21 0.11580608E+00 0.45702909E+03</pdfrwt>
<pdfrwt beam="2">  1       21 0.97516593E-02 0.45702909E+03</pdfrwt>
<totfact> 0.44556749E+04</totfact>
</mgrwt>
</event>
<event>
 7    0  0.4784406E-002  0.5082716E+03  0.7546771E-02  0.1011642E+00
         21   -1    0    0  502  501  0.00000000000E+00  0.00000000000E+00  0.43812935242E+03  0.43812935242E+03  0.00000000000E+00 0.  1.
         21   -1    0    0  501  502 -0.00000000000E+00 -0.00000000000E+00 -0.14741079530E+03  0.14741079530E+03  0.00000000000E+00 0.  1.
      99926    2    1    2    0    0  0.00000000000E+00  0.00000000000E+00  0.29071855712E+03  0.58554014772E+03  0.50827156634E+03 0.  0.
      99925    2    3    3    0    0  0.10973162056E+03  0.99121148531E+02  0.11158768045E+03  0.32171935682E+03  0.26303137359E+03 0.  0.
         25    1    4    4    0    0  0.33532089153E+02  0.83842575567E+02  0.63002320558E+02  0.16664566894E+03  0.12509000000E+03 0.  0.
         25    1    4    4    0    0  0.76199531404E+02  0.15278572964E+02  0.48585359889E+02  0.15507368788E+03  0.12509000000E+03 0.  0.
         25    1    3    3    0    0 -0.10973162056E+03 -0.99121148531E+02  0.17913087667E+03  0.26382079090E+03  0.12509000000E+03 0.  0.
<mgrwt>
<rscale>  2 0.50827157E+03</rscale>
<asrwt>0</asrwt>
<pdfrwt beam="1">  1       21 0.64430787E-01 0.50827157E+03</pdfrwt>
<pdfrwt beam="2">  1       21 0.21678058E-01 0.50827157E+03</pdfrwt>
<totfact> 0.39906714E+04</totfact>
</mgrwt>
</event>
<event>
 7    0  0.4784406E-002  0.4553436E+03  0.7546771E-02  0.1026140E+00
         21   -1    0    0  502  501  0.00000000000E+00  0.00000000000E+00  0.33754221351E+03  0.33754221351E+03  0.00000000000E+00 0.  1.
         21   -1    0    0  501  502 -0.00000000000E+00 -0.00000000000E+00 -0.15356434504E+03  0.15356434504E+03  0.00000000000E+00 0.  1.
      99926    2    1    2    0    0 -0.35527136788E-14  0.00000000000E+00  0.18397786847E+03  0.49110655855E+03  0.45534360187E+03 0.  0.
      99925    2    3    3    0    0 -0.28976722665E+02  0.52718364003E+02  0.21947765267E+03  0.34783542001E+03  0.26305923864E+03 0.  0.
         25    1    3    3    0    0  0.28976722665E+02 -0.52718364003E+02 -0.35499784197E+02  0.14327113854E+03  0.12509000000E+03 0.  0.
         25    1    4    4    0    0  0.11846713499E+02  0.37160208320E+02  0.14657698148E+03  0.19660504903E+03  0.12509000000E+03 0.  0.
         25    1    4    4    0    0 -0.40823436164E+02  0.15558155684E+02  0.72900671185E+02  0.15123037098E+03  0.12509000000E+03 0.  0.
<mgrwt>
<rscale>  2 0.45534360E+03</rscale>
<asrwt>0</asrwt>
<pdfrwt beam="1">  1       21 0.49638561E-01 0.45534360E+03</pdfrwt>
<pdfrwt beam="2">  1       21 0.22582992E-01 0.45534360E+03</pdfrwt>
<totfact> 0.65720625E+04</totfact>
</mgrwt>
</event>
<event>
 7    0  0.4784406E-002  0.4336779E+03  0.7546771E-02  0.1032704E+00
         21   -1    0    0  502  501  0.00000000000E+00  0.00000000000E+00  0.10964748344E+03  0.10964748344E+03  0.00000000000E+00 0. -1.
         21   -1    0    0  501  502 -0.00000000000E+00 -0.00000000000E+00 -0.42882083330E+03  0.42882083330E+03  0.00000000000E+00 0. -1.
      99926    2    1    2    0    0  0.00000000000E+00 -0.14210854715E-13 -0.31917334986E+03  0.53846831674E+03  0.43367787685E+03 0.  0.
      99925    2    3    3    0    0 -0.11184437078E+02 -0.64579493578E+02 -0.12524532414E+03  0.29857002604E+03  0.26298681831E+03 0.  0.
         25    1    4    4    0    0  0.28370662653E+01 -0.81593760938E+01 -0.95105669723E+02  0.15737604925E+03  0.12509000000E+03 0.  0.
         25    1    3    3    0    0  0.11184437078E+02  0.64579493578E+02 -0.19392802572E+03  0.23989829070E+03  0.12509000000E+03 0.  0.
         25    1    4    4    0    0 -0.14021503343E+02 -0.56420117484E+02 -0.30139654417E+02  0.14119397679E+03  0.12509000000E+03 0.  0.
<mgrwt>
<rscale>  2 0.43367788E+03</rscale>
<asrwt>0</asrwt>
<pdfrwt beam="1">  1       21 0.16124630E-01 0.43367788E+03</pdfrwt>
<pdfrwt beam="2">  1       21 0.63061885E-01 0.43367788E+03</pdfrwt>
<totfact> 0.74420331E+04</totfact>
</mgrwt>
</event>
<event>
 7    0  0.4784406E-002  0.4550981E+03  0.7546771E-02  0.1026213E+00
         21   -1    0    0  502  501  0.00000000000E+00  0.00000000000E+00  0.19537071777E+03  0.19537071777E+03  0.00000000000E+00 0. -1.
         21   -1    0    0  501  502 -0.00000000000E+00 -0.00000000000E+00 -0.26502724178E+03  0.26502724178E+03  0.00000000000E+00 0. -1.
      99926    2    1    2    0    0  0.00000000000E+00  0.00000000000E+00 -0.69656524003E+02  0.46039795955E+03  0.45509806616E+03 0.  0.
      99925    2    3    3    0    0 -0.33799053331E+02  0.10432039112E+03 -0.15189905420E+02  0.28535727671E+03  0.26300745642E+03 0.  0.
         25    1    3    3    0    0  0.33799053331E+02 -0.10432039112E+03 -0.54466618583E+02  0.17504068284E+03  0.12509000000E+03 0.  0.
         25    1    4    4    0    0  0.33049864504E+01  0.16882635088E+02  0.83236757680E+01  0.12654144768E+03  0.12509000000E+03 0.  0.
         25    1    4    4    0    0 -0.37104039781E+02  0.87437756035E+02 -0.23513581188E+02  0.15881582902E+03  0.12509000000E+03 0.  0.
<mgrwt>
<rscale>  2 0.45509807E+03</rscale>
<asrwt>0</asrwt>
<pdfrwt beam="1">  1       21 0.28730988E-01 0.45509807E+03</pdfrwt>
<pdfrwt beam="2">  1       21 0.38974594E-01 0.45509807E+03</pdfrwt>
<totfact> 0.68098297E+04</totfact>
</mgrwt>
</event>
<event>
 7    0  0.4784406E-002  0.4716848E+03  0.7546771E-02  0.1021446E+00
         21   -1    0    0  502  501  0.00000000000E+00  0.00000000000E+00  0.99144343867E+02  0.99144343867E+02  0.00000000000E+00 0.  1.
         21   -1    0    0  501  502 -0.00000000000E+00 -0.00000000000E+00 -0.56101686508E+03  0.56101686508E+03  0.00000000000E+00 0.  1.
      99926    2    1    2    0    0  0.14210854715E-13  0.14210854715E-13 -0.46187252122E+03  0.66016120895E+03  0.47168484812E+03 0.  0.
      99925    2    3    3    0    0 -0.96757204199E+02 -0.83931647759E+02 -0.27868387022E+03  0.40401268170E+03  0.26297351462E+03 0.  0.
         25    1    4    4    0    0 -0.90067965489E+02 -0.56619248194E+02 -0.15163329190E+03  0.22351317855E+03  0.12509000000E+03 0.  0.
         25    1    3    3    0    0  0.96757204199E+02  0.83931647759E+02 -0.18318865099E+03  0.25614852725E+03  0.12509000000E+03 0.  0.
         25    1    4    4    0    0 -0.66892387098E+01 -0.27312399564E+02 -0.12705057832E+03  0.18049950315E+03  0.12509000000E+03 0.  0.
<mgrwt>
<rscale>  2 0.47168485E+03</rscale>
<asrwt>0</asrwt>
<pdfrwt beam="1">  1       21 0.14580050E-01 0.47168485E+03</pdfrwt>
<pdfrwt beam="2">  1       21 0.82502482E-01 0.47168485E+03</pdfrwt>
<totfact> 0.48425354E+04</totfact>
</mgrwt>
</event>
<event>
 7    0  0.4784406E-002  0.4521579E+03  0.7546771E-02  0.1027080E+00
         21   -1    0    0  502  501  0.00000000000E+00  0.00000000000E+00  0.26875827836E+03  0.26875827836E+03  0.00000000000E+00 0. -1.
         21   -1    0    0  501  502 -0.00000000000E+00 -0.00000000000E+00 -0.19017714860E+03  0.19017714860E+03  0.00000000000E+00 0. -1.
      99926    2    1    2    0    0  0.71054273576E-14 -0.14210854715E-13  0.78581129759E+02  0.45893542697E+03  0.45215786200E+03 0.  0.
      99925    2    3    3    0    0 -0.57477301923E+02  0.77086430456E+02 -0.57899290881E+01  0.28001661390E+03  0.26292550806E+03 0.  0.
         25    1    4    4    0    0 -0.46984606909E+02  0.75599969571E+02  0.79284852538E+01  0.15373118637E+03  0.12509000000E+03 0.  0.
         25    1    3    3    0    0  0.57477301923E+02 -0.77086430456E+02  0.84371058847E+02  0.17891881306E+03  0.12509000000E+03 0.  0.
         25    1    4    4    0    0 -0.10492695014E+02  0.14864608857E+01 -0.13718414342E+02  0.12628542753E+03  0.12509000000E+03 0.  0.
<mgrwt>
<rscale>  2 0.45215786E+03</rscale>
<asrwt>0</asrwt>
<pdfrwt beam="1">  1       21 0.39523276E-01 0.45215786E+03</pdfrwt>
<pdfrwt beam="2">  1       21 0.27967228E-01 0.45215786E+03</pdfrwt>
<totfact> 0.69826990E+04</totfact>
</mgrwt>
</event>
<event>
 7    0  0.4784406E-002  0.4554947E+03  0.7546771E-02  0.1026096E+00
         21   -1    0    0  502  501  0.00000000000E+00  0.00000000000E+00  0.28902429520E+03  0.28902429520E+03  0.00000000000E+00 0.  1.
         21   -1    0    0  501  502 -0.00000000000E+00 -0.00000000000E+00 -0.17946188365E+03  0.17946188365E+03  0.00000000000E+00 0.  1.
      99926    2    1    2    0    0  0.00000000000E+00 -0.71054273576E-14  0.10956241155E+03  0.46848617886E+03  0.45549465173E+03 0.  0.
      99925    2    3    3    0    0  0.89301006331E+02  0.40016357036E+02  0.12789143169E+03  0.30861298022E+03  0.26326749647E+03 0.  0.
         25    1    3    3    0    0 -0.89301006331E+02 -0.40016357036E+02 -0.18329020144E+02  0.15987319863E+03  0.12509000000E+03 0.  0.
         25    1    4    4    0    0  0.35116516993E+02 -0.13868297938E+02  0.35720220346E+02  0.13545826551E+03  0.12509000000E+03 0.  0.
         25    1    4    4    0    0  0.54184489338E+02  0.53884654974E+02  0.92171211348E+02  0.17315471471E+03  0.12509000000E+03 0.  0.
<mgrwt>
<rscale>  2 0.45549465E+03</rscale>
<asrwt>0</asrwt>
<pdfrwt beam="1">  1       21 0.42503573E-01 0.45549465E+03</pdfrwt>
<pdfrwt beam="2">  1       21 0.26391453E-01 0.45549465E+03</pdfrwt>
<totfact> 0.67284188E+04</totfact>
</mgrwt>
</event>
<event>
 7    0  0.4784406E-002  0.4431212E+03  0.7546771E-02  0.1029793E+00
         21   -1    0    0  502  501  0.00000000000E+00  0.00000000000E+00  0.40223130253E+03  0.40223130253E+03  0.00000000000E+00 0. -1.
         21   -1    0    0  501  502 -0.00000000000E+00 -0.00000000000E+00 -0.12204195021E+03  0.12204195021E+03  0.00000000000E+00 0. -1.
      99926    2    1    2    0    0  0.00000000000E+00  0.00000000000E+00  0.28018935232E+03  0.52427325274E+03  0.44312116897E+03 0.  0.
      99925    2    3    3    0    0 -0.31306236295E+02 -0.96723877142E+02  0.17741927674E+03  0.33310634825E+03  0.26295750730E+03 0.  0.
         25    1    3    3    0    0  0.31306236295E+02  0.96723877142E+02  0.10277007557E+03  0.19116690449E+03  0.12509000000E+03 0.  0.
         25    1    4    4    0    0  0.15364450442E+02 -0.74765140611E+02  0.96241583624E+02  0.17531640855E+03  0.12509000000E+03 0.  0.
         25    1    4    4    0    0 -0.46670686737E+02 -0.21958736531E+02  0.81177693118E+02  0.15778993970E+03  0.12509000000E+03 0.  0.
<mgrwt>
<rscale>  2 0.44312117E+03</rscale>
<asrwt>0</asrwt>
<pdfrwt beam="1">  1       21 0.59151662E-01 0.44312117E+03</pdfrwt>
<pdfrwt beam="2">  1       21 0.17947346E-01 0.44312117E+03</pdfrwt>
<totfact> 0.69949078E+04</totfact>
</mgrwt>
</event>
<event>
 7    0  0.4784406E-002  0.4551857E+03  0.7546771E-02  0.1026187E+00
         21   -1    0    0  502  501  0.00000000000E+00  0.00000000000E+00  0.22388268682E+03  0.22388268682E+03  0.00000000000E+00 0.  1.
         21   -1    0    0  501  502 -0.00000000000E+00 -0.00000000000E+00 -0.23136446477E+03  0.23136446477E+03  0.00000000000E+00 0.  1.
      99926    2    1    2    0    0  0.00000000000E+00  0.00000000000E+00 -0.74817779524E+01  0.45524715158E+03  0.45518566764E+03 0.  0.
      99925    2    3    3    0    0  0.96163083154E+02  0.57483108487E+02  0.12931083072E+02  0.28608498289E+03  0.26291777840E+03 0.  0.
         25    1    4    4    0    0  0.32935960328E+02 -0.46142607094E+01 -0.14857502248E+02  0.13028554163E+03  0.12509000000E+03 0.  0.
         25    1    3    3    0    0 -0.96163083154E+02 -0.57483108487E+02 -0.20412861024E+02  0.16916216870E+03  0.12509000000E+03 0.  0.
         25    1    4    4    0    0  0.63227122826E+02  0.62097369197E+02  0.27788585320E+02  0.15579944126E+03  0.12509000000E+03 0.  0.
<mgrwt>
<rscale>  2 0.45518567E+03</rscale>
<asrwt>0</asrwt>
<pdfrwt beam="1">  1       21 0.32923925E-01 0.45518567E+03</pdfrwt>
<pdfrwt beam="2">  1       21 0.34024186E-01 0.45518567E+03</pdfrwt>
<totfact> 0.68426266E+04</totfact>
</mgrwt>
</event>
<event>
 7    0  0.4784406E-002  0.4578406E+03  0.7546771E-02  0.1025409E+00
         21   -1    0    0  502  501  0.00000000000E+00  0.00000000000E+00  0.41064310116E+03  0.41064310116E+03  0.00000000000E+00 0. -1.
         21   -1    0    0  501  502 -0.00000000000E+00 -0.00000000000E+00 -0.12761571746E+03  0.12761571746E+03  0.00000000000E+00 0. -1.
      99926    2    1    2    0    0  0.00000000000E+00  0.00000000000E+00  0.28302738369E+03  0.53825881862E+03  0.45784064466E+03 0.  0.
      99925    2    3    3    0    0 -0.27550612161E+02  0.33897913390E+02  0.30373786882E+03  0.40415237934E+03  0.26301016712E+03 0.  0.
         25    1    3    3    0    0  0.27550612161E+02 -0.33897913390E+02 -0.20710485124E+02  0.13410643928E+03  0.12509000000E+03 0.  0.
         25    1    4    4    0    0 -0.47483354799E+01 -0.21205486666E+02  0.12719784726E+03  0.17971928055E+03  0.12509000000E+03 0.  0.
         25    1    4    4    0    0 -0.22802276681E+02  0.55103400057E+02  0.17654002156E+03  0.22443309879E+03  0.12509000000E+03 0.  0.
<mgrwt>
<rscale>  2 0.45784064E+03</rscale>
<asrwt>0</asrwt>
<pdfrwt beam="1">  1       21 0.60388691E-01 0.45784064E+03</pdfrwt>
<pdfrwt beam="2">  1       21 0.18767017E-01 0.45784064E+03</pdfrwt>
<totfact> 0.61260066E+04</totfact>
</mgrwt>
</event>
<event>
 7    0  0.4784406E-002  0.4690222E+03  0.7546771E-02  0.1022197E+00
         21   -1    0    0  502  501  0.00000000000E+00  0.00000000000E+00  0.89549849288E+03  0.89549849288E+03  0.00000000000E+00 0.  1.
         21   -1    0    0  501  502 -0.00000000000E+00 -0.00000000000E+00 -0.61413218471E+02  0.61413218471E+02  0.00000000000E+00 0.  1.
      99926    2    1    2    0    0 -0.71054273576E-14  0.00000000000E+00  0.83408527440E+03  0.95691171135E+03  0.46902215122E+03 0.  0.
      99925    2    3    3    0    0 -0.57423379167E+02  0.25276747979E+02  0.29603428685E+03  0.40095961649E+03  0.26305124331E+03 0.  0.
         25    1    3    3    0    0  0.57423379167E+02 -0.25276747979E+02  0.53805098756E+03  0.55595209485E+03  0.12509000000E+03 0.  0.
         25    1    4    4    0    0 -0.69232388373E+02  0.11170363209E+02  0.17047152470E+03  0.22276882513E+03  0.12509000000E+03 0.  0.
         25    1    4    4    0    0  0.11809009206E+02  0.14106384770E+02  0.12556276214E+03  0.17819079136E+03  0.12509000000E+03 0.  0.
<mgrwt>
<rscale>  2 0.46902215E+03</rscale>
<asrwt>0</asrwt>
<pdfrwt beam="1">  1       21 0.13169095E+00 0.46902215E+03</pdfrwt>
<pdfrwt beam="2">  1       21 0.90313562E-02 0.46902215E+03</pdfrwt>
<totfact> 0.36672407E+04</totfact>
</mgrwt>
</event>
<event>
 7    0  0.4784406E-002  0.4492208E+03  0.7546771E-02  0.1027955E+00
         21   -1    0    0  502  501  0.00000000000E+00  0.00000000000E+00  0.18266301390E+03  0.18266301390E+03  0.00000000000E+00 0. -1.
         21   -1    0    0  501  502 -0.00000000000E+00 -0.00000000000E+00 -0.27619073470E+03  0.27619073470E+03  0.00000000000E+00 0. -1.
      99926    2    1    2    0    0 -0.11102230246E-15  0.00000000000E+00 -0.93527720803E+02  0.45885374860E+03  0.44922080099E+03 0.  0.
      99925    2    3    3    0    0 -0.63035445959E+00  0.95689866571E+01  0.50408629107E+02  0.26791620966E+03  0.26295646532E+03 0.  0.
         25    1    3    3    0    0  0.63035445959E+00 -0.95689866571E+01 -0.14393634991E+03  0.19093753894E+03  0.12509000000E+03 0.  0.
         25    1    4    4    0    0  0.15110726002E+01 -0.15199719893E+02 -0.10744130705E+02  0.12647631901E+03  0.12509000000E+03 0.  0.
         25    1    4    4    0    0 -0.21414270598E+01  0.24768706551E+02  0.61152759813E+02  0.14143989065E+03  0.12509000000E+03 0.  0.
<mgrwt>
<rscale>  2 0.44922080E+03</rscale>
<asrwt>0</asrwt>
<pdfrwt beam="1">  1       21 0.26862208E-01 0.44922080E+03</pdfrwt>
<pdfrwt beam="2">  1       21 0.40616284E-01 0.44922080E+03</pdfrwt>
<totfact> 0.71496070E+04</totfact>
</mgrwt>
</event>
<event>
 7    0  0.4784406E-002  0.4519664E+03  0.7546771E-02  0.1027137E+00
         21   -1    0    0  502  501  0.00000000000E+00  0.00000000000E+00  0.27823204045E+03  0.27823204045E+03  0.00000000000E+00 0. -1.
         21   -1    0    0  501  502 -0.00000000000E+00 -0.00000000000E+00 -0.18354610180E+03  0.18354610180E+03  0.00000000000E+00 0. -1.
      99926    2    1    2    0    0  0.00000000000E+00  0.35527136788E-14  0.94685938648E+02  0.46177814226E+03  0.45196639885E+03 0.  0.
      99925    2    3    3    0    0  0.85062236907E+02  0.29927397651E+02  0.12433145787E+03  0.30475076188E+03  0.26321755674E+03 0.  0.
         25    1    4    4    0    0  0.75446306703E+02 -0.44854143315E+01  0.83898328960E+02  0.16851914384E+03  0.12509000000E+03 0.  0.
         25    1    3    3    0    0 -0.85062236907E+02 -0.29927397651E+02 -0.29645519222E+02  0.15702738038E+03  0.12509000000E+03 0.  0.
         25    1    4    4    0    0  0.96159302044E+01  0.34412811982E+02  0.40433128910E+02  0.13623161805E+03  0.12509000000E+03 0.  0.
<mgrwt>
<rscale>  2 0.45196640E+03</rscale>
<asrwt>0</asrwt>
<pdfrwt beam="1">  1       21 0.40916477E-01 0.45196640E+03</pdfrwt>
<pdfrwt beam="2">  1       21 0.26992074E-01 0.45196640E+03</pdfrwt>
<totfact> 0.69715332E+04</totfact>
</mgrwt>
</event>
<event>
 7    0  0.4784406E-002  0.4462007E+03  0.7546771E-02  0.1028861E+00
         21   -1    0    0  502  501  0.00000000000E+00  0.00000000000E+00  0.15549097324E+04  0.15549097324E+04  0.00000000000E+00 0. -1.
         21   -1    0    0  501  502 -0.00000000000E+00 -0.00000000000E+00 -0.32010715693E+02  0.32010715693E+02  0.00000000000E+00 0. -1.
      99926    2    1    2    0    0  0.00000000000E+00  0.00000000000E+00  0.15228990167E+04  0.15869204481E+04  0.44620073228E+03 0.  0.
      99925    2    3    3    0    0 -0.27454649804E+02 -0.72538397702E+02  0.12162040889E+04  0.12467368744E+04  0.26303017186E+03 0.  0.
         25    1    4    4    0    0 -0.26433238566E+02  0.33671883824E+01  0.56248260141E+03  0.57683987297E+03  0.12509000000E+03 0.  0.
         25    1    4    4    0    0 -0.10214112382E+01 -0.75905586085E+02  0.65372148748E+03  0.66989700146E+03  0.12509000000E+03 0.  0.
         25    1    3    3    0    0  0.27454649804E+02  0.72538397702E+02  0.30669492781E+03  0.34018357365E+03  0.12509000000E+03 0.  0.
<mgrwt>
<rscale>  2 0.44620073E+03</rscale>
<asrwt>0</asrwt>
<pdfrwt beam="1">  1       21 0.22866315E+00 0.44620073E+03</pdfrwt>
<pdfrwt beam="2">  1       21 0.47074592E-02 0.44620073E+03</pdfrwt>
<totfact> 0.23277297E+04</totfact>
</mgrwt>
</event>
<event>
 7    0  0.4784406E-002  0.4552976E+03  0.7546771E-02  0.1026154E+00
         21   -1    0    0  502  501  0.00000000000E+00  0.00000000000E+00  0.11636957247E+03  0.11636957247E+03  0.00000000000E+00 0. -1.
         21   -1    0    0  501  502 -0.00000000000E+00 -0.00000000000E+00 -0.44533953011E+03  0.44533953011E+03  0.00000000000E+00 0. -1.
      99926    2    1    2    0    0  0.00000000000E+00  0.00000000000E+00 -0.32896995765E+03  0.56170910258E+03  0.45529757619E+03 0.  0.
      99925    2    3    3    0    0 -0.38889531503E+02  0.59101514773E+02 -0.96958987009E+02  0.28879522733E+03  0.26267137921E+03 0.  0.
         25    1    4    4    0    0 -0.42267804124E+02 -0.17968220383E+01 -0.36051279381E+02  0.13688315704E+03  0.12509000000E+03 0.  0.
         25    1    3    3    0    0  0.38889531503E+02 -0.59101514773E+02 -0.23201097064E+03  0.27291387525E+03  0.12509000000E+03 0.  0.
         25    1    4    4    0    0  0.33782726209E+01  0.60898336811E+02 -0.60907707628E+02  0.15191207029E+03  0.12509000000E+03 0.  0.
<mgrwt>
<rscale>  2 0.45529758E+03</rscale>
<asrwt>0</asrwt>
<pdfrwt beam="1">  1       21 0.17113172E-01 0.45529758E+03</pdfrwt>
<pdfrwt beam="2">  1       21 0.65491109E-01 0.45529758E+03</pdfrwt>
<totfact> 0.60955735E+04</totfact>
</mgrwt>
</event>
<event>
 7    0  0.4784406E-002  0.4468079E+03  0.7546771E-02  0.1028678E+00
         21   -1    0    0  502  501  0.00000000000E+00  0.00000000000E+00  0.16855203030E+04  0.16855203030E+04  0.00000000000E+00 0.  1.
         21   -1    0    0  501  502 -0.00000000000E+00 -0.00000000000E+00 -0.29610636788E+02  0.29610636788E+02  0.00000000000E+00 0.  1.
      99926    2    1    2    0    0  0.00000000000E+00 -0.14210854715E-13  0.16559096662E+04  0.17151309398E+04  0.44680792066E+03 0.  0.
      99925    2    3    3    0    0 -0.36555419308E+02 -0.89352484613E+02  0.88564478625E+03  0.92882587266E+03  0.26273684387E+03 0.  0.
         25    1    4    4    0    0  0.20780812004E+02 -0.53251855702E+02  0.44887668849E+03  0.46947352626E+03  0.12509000000E+03 0.  0.
         25    1    3    3    0    0  0.36555419308E+02  0.89352484613E+02  0.77026487999E+03  0.78630506715E+03  0.12509000000E+03 0.  0.
         25    1    4    4    0    0 -0.57336231312E+02 -0.36100628911E+02  0.43676809776E+03  0.45935234640E+03  0.12509000000E+03 0.  0.
<mgrwt>
<rscale>  2 0.44680792E+03</rscale>
<asrwt>0</asrwt>
<pdfrwt beam="1">  1       21 0.24787057E+00 0.44680792E+03</pdfrwt>
<pdfrwt beam="2">  1       21 0.43545066E-02 0.44680792E+03</pdfrwt>
<totfact> 0.20203353E+04</totfact>
</mgrwt>
</event>
<event>
 7    0  0.4784406E-002  0.4453723E+03  0.7546771E-02  0.1029111E+00
         21   -1    0    0  502  501  0.00000000000E+00  0.00000000000E+00  0.58216889980E+03  0.58216889980E+03  0.00000000000E+00 0. -1.
         21   -1    0    0  501  502 -0.00000000000E+00 -0.00000000000E+00 -0.85179950096E+02  0.85179950096E+02  0.00000000000E+00 0. -1.
      99926    2    1    2    0    0  0.00000000000E+00  0.00000000000E+00  0.49698894970E+03  0.66734884990E+03  0.44537228397E+03 0.  0.
      99925    2    3    3    0    0  0.33166824428E+02 -0.83549786307E+02  0.23787413423E+03  0.36590465816E+03  0.26309981013E+03 0.  0.
         25    1    3    3    0    0 -0.33166824428E+02  0.83549786307E+02  0.25911481547E+03  0.30144419174E+03  0.12509000000E+03 0.  0.
         25    1    4    4    0    0  0.39490156607E+02 -0.95879002228E+01  0.97135541418E+02  0.16350602988E+03  0.12509000000E+03 0.  0.
         25    1    4    4    0    0 -0.63233321789E+01 -0.73961886084E+02  0.14073859281E+03  0.20239862828E+03  0.12509000000E+03 0.  0.
<mgrwt>
<rscale>  2 0.44537228E+03</rscale>
<asrwt>0</asrwt>
<pdfrwt beam="1">  1       21 0.85613072E-01 0.44537228E+03</pdfrwt>
<pdfrwt beam="2">  1       21 0.12526464E-01 0.44537228E+03</pdfrwt>
<totfact> 0.59066586E+04</totfact>
</mgrwt>
</event>
<event>
 7    0  0.4784406E-002  0.4578548E+03  0.7546771E-02  0.1025405E+00
         21   -1    0    0  502  501  0.00000000000E+00  0.00000000000E+00  0.33557049970E+02  0.33557049970E+02  0.00000000000E+00 0. -1.
         21   -1    0    0  501  502 -0.00000000000E+00 -0.00000000000E+00 -0.15617509852E+04  0.15617509852E+04  0.00000000000E+00 0. -1.
      99926    2    1    2    0    0  0.14210854715E-13  0.00000000000E+00 -0.15281939353E+04  0.15953080352E+04  0.45785480604E+03 0.  0.
      99925    2    3    3    0    0 -0.92950539521E+02  0.70265787404E+01 -0.11984176151E+04  0.12304942402E+04  0.26310096790E+03 0.  0.
         25    1    4    4    0    0 -0.60671410850E+02 -0.26399343164E+02 -0.72221356546E+03  0.73594693263E+03  0.12509000000E+03 0.  0.
         25    1    3    3    0    0  0.92950539521E+02 -0.70265787404E+01 -0.32977632018E+03  0.36481379505E+03  0.12509000000E+03 0.  0.
         25    1    4    4    0    0 -0.32279128671E+02  0.33425921904E+02 -0.47620404963E+03  0.49454730753E+03  0.12509000000E+03 0.  0.
<mgrwt>
<rscale>  2 0.45785481E+03</rscale>
<asrwt>0</asrwt>
<pdfrwt beam="1">  1       21 0.49348611E-02 0.45785481E+03</pdfrwt>
<pdfrwt beam="2">  1       21 0.22966922E+00 0.45785481E+03</pdfrwt>
<totfact> 0.21065176E+04</totfact>
</mgrwt>
</event>
<event>
 7    0  0.4784406E-002  0.4523054E+03  0.7546771E-02  0.1027037E+00
         21   -1    0    0  502  501  0.00000000000E+00  0.00000000000E+00  0.41893794447E+03  0.41893794447E+03  0.00000000000E+00 0. -1.
         21   -1    0    0  501  502 -0.00000000000E+00 -0.00000000000E+00 -0.12208263201E+03  0.12208263201E+03  0.00000000000E+00 0. -1.
      99926    2    1    2    0    0  0.00000000000E+00 -0.71054273576E-14  0.29685531246E+03  0.54102057648E+03  0.45230541412E+03 0.  0.
      99925    2    3    3    0    0  0.97258819629E+02 -0.52335156328E+02  0.17971913394E+03  0.33714159522E+03  0.26299665690E+03 0.  0.
         25    1    3    3    0    0 -0.97258819629E+02  0.52335156328E+02  0.11713617852E+03  0.20387898126E+03  0.12509000000E+03 0.  0.
         25    1    4    4    0    0  0.40337779109E+02 -0.61826957271E+02  0.71131419141E+02  0.16173093692E+03  0.12509000000E+03 0.  0.
         25    1    4    4    0    0  0.56921040520E+02  0.94918009424E+01  0.10858771480E+03  0.17541065830E+03  0.12509000000E+03 0.  0.
<mgrwt>
<rscale>  2 0.45230541E+03</rscale>
<asrwt>0</asrwt>
<pdfrwt beam="1">  1       21 0.61608521E-01 0.45230541E+03</pdfrwt>
<pdfrwt beam="2">  1       21 0.17953328E-01 0.45230541E+03</pdfrwt>
<totfact> 0.63813729E+04</totfact>
</mgrwt>
</event>
<event>
 7    0  0.4784406E-002  0.4613649E+03  0.7546771E-02  0.1024386E+00
         21   -1    0    0  502  501  0.00000000000E+00  0.00000000000E+00  0.33605923177E+03  0.33605923177E+03  0.00000000000E+00 0.  1.
         21   -1    0    0  501  502 -0.00000000000E+00 -0.00000000000E+00 -0.15834824706E+03  0.15834824706E+03  0.00000000000E+00 0.  1.
      99926    2    1    2    0    0  0.00000000000E+00  0.14210854715E-13  0.17771098471E+03  0.49440747884E+03  0.46136488926E+03 0.  0.
      99925    2    3    3    0    0  0.65156393338E+01 -0.51694384524E+02  0.22593809939E+03  0.35057380532E+03  0.26294334994E+03 0.  0.
         25    1    4    4    0    0  0.35367487734E+02 -0.39902423102E+02  0.14274297902E+03  0.19714494342E+03  0.12509000000E+03 0.  0.
         25    1    4    4    0    0 -0.28851848400E+02 -0.11791961422E+02  0.83195120370E+02  0.15342886190E+03  0.12509000000E+03 0.  0.
         25    1    3    3    0    0 -0.65156393338E+01  0.51694384524E+02 -0.48227114677E+02  0.14383367352E+03  0.12509000000E+03 0.  0.
<mgrwt>
<rscale>  2 0.46136489E+03</rscale>
<asrwt>0</asrwt>
<pdfrwt beam="1">  1       21 0.49420475E-01 0.46136489E+03</pdfrwt>
<pdfrwt beam="2">  1       21 0.23286507E-01 0.46136489E+03</pdfrwt>
<totfact> 0.62449710E+04</totfact>
</mgrwt>
</event>
<event>
 7    0  0.4784406E-002  0.4569902E+03  0.7546771E-02  0.1025658E+00
         21   -1    0    0  502  501  0.00000000000E+00  0.00000000000E+00  0.52526782265E+03  0.52526782265E+03  0.00000000000E+00 0.  1.
         21   -1    0    0  501  502 -0.00000000000E+00 -0.00000000000E+00 -0.99396953688E+02  0.99396953688E+02  0.00000000000E+00 0.  1.
      99926    2    1    2    0    0  0.00000000000E+00  0.00000000000E+00  0.42587086896E+03  0.62466477634E+03  0.45699024691E+03 0.  0.
      99925    2    3    3    0    0 -0.86710786970E+02  0.31323426695E+02  0.17468299064E+03  0.32929589519E+03  0.26348002150E+03 0.  0.
         25    1    3    3    0    0  0.86710786970E+02 -0.31323426695E+02  0.25118787832E+03  0.29536888115E+03  0.12509000000E+03 0.  0.
         25    1    4    4    0    0 -0.50000657749E+02 -0.22459544291E+02  0.68641771248E+02  0.15285188178E+03  0.12509000000E+03 0.  0.
         25    1    4    4    0    0 -0.36710129221E+02  0.53782970986E+02  0.10604121939E+03  0.17644401340E+03  0.12509000000E+03 0.  0.
<mgrwt>
<rscale>  2 0.45699025E+03</rscale>
<asrwt>0</asrwt>
<pdfrwt beam="1">  1       21 0.77245267E-01 0.45699025E+03</pdfrwt>
<pdfrwt beam="2">  1       21 0.14617199E-01 0.45699025E+03</pdfrwt>
<totfact> 0.56295348E+04</totfact>
</mgrwt>
</event>
<event>
 7    0  0.4784406E-002  0.4578918E+03  0.7546771E-02  0.1025394E+00
         21   -1    0    0  502  501  0.00000000000E+00  0.00000000000E+00  0.59806170072E+02  0.59806170072E+02  0.00000000000E+00 0.  1.
         21   -1    0    0  501  502 -0.00000000000E+00 -0.00000000000E+00 -0.87643505916E+03  0.87643505916E+03  0.00000000000E+00 0.  1.
      99926    2    1    2    0    0  0.00000000000E+00  0.00000000000E+00 -0.81662888909E+03  0.93624122923E+03  0.45789179597E+03 0.  0.
      99925    2    3    3    0    0 -0.47907607464E+02  0.98170492874E+02 -0.43363005884E+03  0.51878680466E+03  0.26300596236E+03 0.  0.
         25    1    3    3    0    0  0.47907607464E+02 -0.98170492874E+02 -0.38299883025E+03  0.41745442458E+03  0.12509000000E+03 0.  0.
         25    1    4    4    0    0 -0.53828133939E+02  0.63029911231E+02 -0.18515497972E+03  0.23832774142E+03  0.12509000000E+03 0.  0.
         25    1    4    4    0    0  0.59205264745E+01  0.35140581643E+02 -0.24847507912E+03  0.28045906324E+03  0.12509000000E+03 0.  0.
<mgrwt>
<rscale>  2 0.45789180E+03</rscale>
<asrwt>0</asrwt>
<pdfrwt beam="1">  1       21 0.87950248E-02 0.45789180E+03</pdfrwt>
<pdfrwt beam="2">  1       21 0.12888751E+00 0.45789180E+03</pdfrwt>
<totfact> 0.40773023E+04</totfact>
</mgrwt>
</event>
<event>
 7    0  0.4784406E-002  0.4342605E+03  0.7546771E-02  0.1032522E+00
         21   -1    0    0  502  501  0.00000000000E+00  0.00000000000E+00  0.16660565724E+03  0.16660565724E+03  0.00000000000E+00 0. -1.
         21   -1    0    0  501  502 -0.00000000000E+00 -0.00000000000E+00 -0.28297687793E+03  0.28297687793E+03  0.00000000000E+00 0. -1.
      99926    2    1    2    0    0  0.00000000000E+00 -0.17763568394E-14 -0.11637122069E+03  0.44958253517E+03  0.43426051504E+03 0.  0.
      99925    2    3    3    0    0  0.80376278656E+02  0.15239644112E+02 -0.32232258143E+02  0.27806149844E+03  0.26379288377E+03 0.  0.
         25    1    3    3    0    0 -0.80376278656E+02 -0.15239644112E+02 -0.84138962549E+02  0.17152103673E+03  0.12509000000E+03 0.  0.
         25    1    4    4    0    0  0.50544249522E+02  0.42059936434E+02 -0.38745908291E+02  0.14653502285E+03  0.12509000000E+03 0.  0.
         25    1    4    4    0    0  0.29832029134E+02 -0.26820292322E+02  0.65136501480E+01  0.13152647559E+03  0.12509000000E+03 0.  0.
<mgrwt>
<rscale>  2 0.43426052E+03</rscale>
<asrwt>0</asrwt>
<pdfrwt beam="1">  1       21 0.24500832E-01 0.43426052E+03</pdfrwt>
<pdfrwt beam="2">  1       21 0.41614247E-01 0.43426052E+03</pdfrwt>
<totfact> 0.81605907E+04</totfact>
</mgrwt>
</event>
<event>
 7    0  0.4784406E-002  0.4573141E+03  0.7546771E-02  0.1025563E+00
         21   -1    0    0  502  501  0.00000000000E+00  0.00000000000E+00  0.33799293118E+03  0.33799293118E+03  0.00000000000E+00 0.  1.
         21   -1    0    0  501  502 -0.00000000000E+00 -0.00000000000E+00 -0.15468973286E+03  0.15468973286E+03  0.00000000000E+00 0.  1.
      99926    2    1    2    0    0 -0.14210854715E-13  0.00000000000E+00  0.18330319833E+03  0.49268266404E+03  0.45731405503E+03 0.  0.
      99925    2    3    3    0    0  0.90065939416E+02  0.71391601128E+02  0.12630635583E+03  0.31350458974E+03  0.26291290974E+03 0.  0.
         25    1    4    4    0    0  0.18259972031E+02  0.44444144725E+02  0.28023580938E+02  0.13689973618E+03  0.12509000000E+03 0.  0.
         25    1    3    3    0    0 -0.90065939416E+02 -0.71391601128E+02  0.56996842496E+02  0.17917807430E+03  0.12509000000E+03 0.  0.
         25    1    4    4    0    0  0.71805967385E+02  0.26947456403E+02  0.98282774891E+02  0.17660485355E+03  0.12509000000E+03 0.  0.
<mgrwt>
<rscale>  2 0.45731406E+03</rscale>
<asrwt>0</asrwt>
<pdfrwt beam="1">  1       21 0.49704843E-01 0.45731406E+03</pdfrwt>
<pdfrwt beam="2">  1       21 0.22748490E-01 0.45731406E+03</pdfrwt>
<totfact> 0.64593052E+04</totfact>
</mgrwt>
</event>
<event>
 7    0  0.4784406E-002  0.4567265E+03  0.7546771E-02  0.1025735E+00
         21   -1    0    0  502  501  0.00000000000E+00  0.00000000000E+00  0.12278676654E+04  0.12278676654E+04  0.00000000000E+00 0.  1.
         21   -1    0    0  501  502 -0.00000000000E+00 -0.00000000000E+00 -0.42471819097E+02  0.42471819097E+02  0.00000000000E+00 0.  1.
      99926    2    1    2    0    0  0.00000000000E+00  0.00000000000E+00  0.11853958463E+04  0.12703394845E+04  0.45672649741E+03 0.  0.
      99925    2    3    3    0    0 -0.38146822219E+02 -0.75011161450E+02  0.96186507172E+03  0.10007186958E+04  0.26300501444E+03 0.  0.
         25    1    4    4    0    0  0.80514250327E+01 -0.20278999697E+02  0.35680936205E+03  0.37873010471E+03  0.12509000000E+03 0.  0.
         25    1    3    3    0    0  0.38146822219E+02  0.75011161450E+02  0.22353077455E+03  0.26962078862E+03  0.12509000000E+03 0.  0.
         25    1    4    4    0    0 -0.46198247251E+02 -0.54732161752E+02  0.60505570967E+03  0.62198859112E+03  0.12509000000E+03 0.  0.
<mgrwt>
<rscale>  2 0.45672650E+03</rscale>
<asrwt>0</asrwt>
<pdfrwt beam="1">  1       21 0.18056875E+00 0.45672650E+03</pdfrwt>
<pdfrwt beam="2">  1       21 0.62458566E-02 0.45672650E+03</pdfrwt>
<totfact> 0.29588838E+04</totfact>
</mgrwt>
</event>
<event>
 7    0  0.4784406E-002  0.4503346E+03  0.7546771E-02  0.1027622E+00
         21   -1    0    0  502  501  0.00000000000E+00  0.00000000000E+00  0.21610698944E+04  0.21610698944E+04  0.00000000000E+00 0. -1.
         21   -1    0    0  501  502 -0.00000000000E+00 -0.00000000000E+00 -0.23460748066E+02  0.23460748066E+02  0.00000000000E+00 0. -1.
      99926    2    1    2    0    0 -0.26645352591E-14  0.00000000000E+00  0.21376091464E+04  0.21845306425E+04  0.45033461491E+03 0.  0.
      99925    2    3    3    0    0 -0.65292540631E+01  0.21730621731E+02  0.18667728110E+04  0.18853406030E+04  0.26297074050E+03 0.  0.
         25    1    4    4    0    0 -0.43385100100E+02  0.74798882279E+01  0.97060925434E+03  0.97962648410E+03  0.12509000000E+03 0.  0.
         25    1    4    4    0    0  0.36855846037E+02  0.14250733503E+02  0.89616355667E+03  0.90571411891E+03  0.12509000000E+03 0.  0.
         25    1    3    3    0    0  0.65292540631E+01 -0.21730621731E+02  0.27083633535E+03  0.29919003948E+03  0.12509000000E+03 0.  0.
<mgrwt>
<rscale>  2 0.45033461E+03</rscale>
<asrwt>0</asrwt>
<pdfrwt beam="1">  1       21 0.31780426E+00 0.45033461E+03</pdfrwt>
<pdfrwt beam="2">  1       21 0.34501115E-02 0.45033461E+03</pdfrwt>
<totfact> 0.11329333E+04</totfact>
</mgrwt>
</event>
<event>
 7    0  0.4784406E-002  0.4582572E+03  0.7546771E-02  0.1025288E+00
         21   -1    0    0  502  501  0.00000000000E+00  0.00000000000E+00  0.29918586781E+03  0.29918586781E+03  0.00000000000E+00 0. -1.
         21   -1    0    0  501  502 -0.00000000000E+00 -0.00000000000E+00 -0.17547592912E+03  0.17547592912E+03  0.00000000000E+00 0. -1.
      99926    2    1    2    0    0  0.00000000000E+00  0.14210854715E-13  0.12370993869E+03  0.47466179693E+03  0.45825721220E+03 0.  0.
      99925    2    3    3    0    0 -0.54258552836E+02  0.72262972411E+02  0.21489857385E+01  0.27821714538E+03  0.26312398999E+03 0.  0.
         25    1    3    3    0    0  0.54258552836E+02 -0.72262972411E+02  0.12156095295E+03  0.19644465154E+03  0.12509000000E+03 0.  0.
         25    1    4    4    0    0 -0.50611328661E+02  0.71771760910E+02  0.67382387443E+01  0.15298890226E+03  0.12509000000E+03 0.  0.
         25    1    4    4    0    0 -0.36472241750E+01  0.49121150082E+00 -0.45892530057E+01  0.12522824312E+03  0.12509000000E+03 0.  0.
<mgrwt>
<rscale>  2 0.45825721E+03</rscale>
<asrwt>0</asrwt>
<pdfrwt beam="1">  1       21 0.43997922E-01 0.45825721E+03</pdfrwt>
<pdfrwt beam="2">  1       21 0.25805284E-01 0.45825721E+03</pdfrwt>
<totfact> 0.65384533E+04</totfact>
</mgrwt>
</event>
<event>
 7    0  0.4784406E-002  0.4561151E+03  0.7546771E-02  0.1025914E+00
         21   -1    0    0  502  501  0.00000000000E+00  0.00000000000E+00  0.10612558062E+03  0.10612558062E+03  0.00000000000E+00 0.  1.
         21   -1    0    0  501  502 -0.00000000000E+00 -0.00000000000E+00 -0.49008217203E+03  0.49008217203E+03  0.00000000000E+00 0.  1.
      99926    2    1    2    0    0  0.00000000000E+00 -0.35527136788E-14 -0.38395659141E+03  0.59620775266E+03  0.45611513924E+03 0.  0.
      99925    2    3    3    0    0  0.87640306884E+02  0.18246985486E+02 -0.33435218060E+03  0.43458510096E+03  0.26279089298E+03 0.  0.
         25    1    4    4    0    0  0.39054721445E+02  0.37787508938E+02 -0.21115759408E+03  0.25137264118E+03  0.12509000000E+03 0.  0.
         25    1    3    3    0    0 -0.87640306884E+02 -0.18246985486E+02 -0.49604410809E+02  0.16162265170E+03  0.12509000000E+03 0.  0.
         25    1    4    4    0    0  0.48585585440E+02 -0.19540523452E+02 -0.12319458652E+03  0.18321245978E+03  0.12509000000E+03 0.  0.
<mgrwt>
<rscale>  2 0.45611514E+03</rscale>
<asrwt>0</asrwt>
<pdfrwt beam="1">  1       21 0.15606703E-01 0.45611514E+03</pdfrwt>
<pdfrwt beam="2">  1       21 0.72070907E-01 0.45611514E+03</pdfrwt>
<totfact> 0.58396008E+04</totfact>
</mgrwt>
</event>
<event>
 7    0  0.4784406E-002  0.4525797E+03  0.7546771E-02  0.1026956E+00
         21   -1    0    0  502  501  0.00000000000E+00  0.00000000000E+00  0.36145919088E+03  0.36145919088E+03  0.00000000000E+00 0.  1.
         21   -1    0    0  501  502 -0.00000000000E+00 -0.00000000000E+00 -0.14166768924E+03  0.14166768924E+03  0.00000000000E+00 0.  1.
      99926    2    1    2    0    0  0.00000000000E+00  0.00000000000E+00  0.21979150164E+03  0.50312688012E+03  0.45257966515E+03 0.  0.
      99925    2    3    3    0    0 -0.10199048918E+03 -0.42817621642E+02  0.12998100482E+03  0.31352508149E+03  0.26299716064E+03 0.  0.
         25    1    4    4    0    0 -0.38598477503E+02 -0.48924909398E+01  0.22748514161E+02  0.13296158065E+03  0.12509000000E+03 0.  0.
         25    1    3    3    0    0  0.10199048918E+03  0.42817621642E+02  0.89810496816E+02  0.18960179863E+03  0.12509000000E+03 0.  0.
         25    1    4    4    0    0 -0.63392011673E+02 -0.37925130702E+02  0.10723249066E+03  0.18056350084E+03  0.12509000000E+03 0.  0.
<mgrwt>
<rscale>  2 0.45257967E+03</rscale>
<asrwt>0</asrwt>
<pdfrwt beam="1">  1       21 0.53155763E-01 0.45257967E+03</pdfrwt>
<pdfrwt beam="2">  1       21 0.20833484E-01 0.45257967E+03</pdfrwt>
<totfact> 0.66316427E+04</totfact>
</mgrwt>
</event>
<event>
 7    0  0.4784406E-002  0.4527837E+03  0.7546771E-02  0.1026895E+00
         21   -1    0    0  502  501  0.00000000000E+00  0.00000000000E+00  0.46376601518E+03  0.46376601518E+03  0.00000000000E+00 0.  1.
         21   -1    0    0  501  502 -0.00000000000E+00 -0.00000000000E+00 -0.11051533928E+03  0.11051533928E+03  0.00000000000E+00 0.  1.
      99926    2    1    2    0    0  0.00000000000E+00  0.00000000000E+00  0.35325067590E+03  0.57428135446E+03  0.45278365039E+03 0.  0.
      99925    2    3    3    0    0  0.90707619972E+02  0.26795688987E+02  0.29626024101E+03  0.40742423283E+03  0.26320808085E+03 0.  0.
         25    1    4    4    0    0  0.79854738220E+02  0.53280047809E+00  0.18836787646E+03  0.23980623027E+03  0.12509000000E+03 0.  0.
         25    1    3    3    0    0 -0.90707619972E+02 -0.26795688987E+02  0.56990434886E+02  0.16685712163E+03  0.12509000000E+03 0.  0.
         25    1    4    4    0    0  0.10852881752E+02  0.26262888509E+02  0.10789236455E+03  0.16761800256E+03  0.12509000000E+03 0.  0.
<mgrwt>
<rscale>  2 0.45278365E+03</rscale>
<asrwt>0</asrwt>
<pdfrwt beam="1">  1       21 0.68200884E-01 0.45278365E+03</pdfrwt>
<pdfrwt beam="2">  1       21 0.16252256E-01 0.45278365E+03</pdfrwt>
<totfact> 0.61358134E+04</totfact>
</mgrwt>
</event>
<event>
 7    0  0.4784406E-002  0.4614108E+03  0.7546771E-02  0.1024373E+00
         21   -1    0    0  502  501  0.00000000000E+00  0.00000000000E+00  0.27639152725E+03  0.27639152725E+03  0.00000000000E+00 0.  1.
         21   -1    0    0  501  502 -0.00000000000E+00 -0.00000000000E+00 -0.19257097354E+03  0.19257097354E+03  0.00000000000E+00 0.  1.
      99926    2    1    2    0    0  0.14210854715E-13 -0.71054273576E-14  0.83820553712E+02  0.46896250078E+03  0.46141081686E+03 0.  0.
      99925    2    3    3    0    0 -0.10997628106E+03  0.32313172205E+02  0.85156274143E+02  0.29929159655E+03  0.26303031241E+03 0.  0.
         25    1    4    4    0    0 -0.93147680181E+02  0.31305202088E+02  0.63239879350E+02  0.17118205642E+03  0.12509000000E+03 0.  0.
         25    1    4    4    0    0 -0.16828600879E+02  0.10079701164E+01  0.21916394793E+02  0.12810954013E+03  0.12509000000E+03 0.  0.
         25    1    3    3    0    0  0.10997628106E+03 -0.32313172205E+02 -0.13357204310E+01  0.16967090423E+03  0.12509000000E+03 0.  0.
<mgrwt>
<rscale>  2 0.46141082E+03</rscale>
<asrwt>0</asrwt>
<pdfrwt beam="1">  1       21 0.40645813E-01 0.46141082E+03</pdfrwt>
<pdfrwt beam="2">  1       21 0.28319261E-01 0.46141082E+03</pdfrwt>
<totfact> 0.64183242E+04</totfact>
</mgrwt>
</event>
<event>
 7    0  0.4784406E-002  0.4499356E+03  0.7546771E-02  0.1027741E+00
         21   -1    0    0  502  501  0.00000000000E+00  0.00000000000E+00  0.16570424506E+02  0.16570424506E+02  0.00000000000E+00 0.  1.
         21   -1    0    0  501  502 -0.00000000000E+00 -0.00000000000E+00 -0.30542672641E+04  0.30542672641E+04  0.00000000000E+00 0.  1.
      99926    2    1    2    0    0  0.00000000000E+00 -0.17763568394E-14 -0.30376968396E+04  0.30708376886E+04  0.44993557370E+03 0.  0.
      99925    2    3    3    0    0  0.65589380915E+02 -0.11523200464E+02 -0.13278687918E+04  0.13551470953E+04  0.26220863919E+03 0.  0.
         25    1    4    4    0    0  0.27843396205E+02 -0.44563719349E+02 -0.64960207821E+03  0.66362003278E+03  0.12509000000E+03 0.  0.
         25    1    3    3    0    0 -0.65589380915E+02  0.11523200464E+02 -0.17098280478E+04  0.17156905934E+04  0.12509000000E+03 0.  0.
         25    1    4    4    0    0  0.37745984711E+02  0.33040518885E+02 -0.67826671361E+03  0.69152706248E+03  0.12509000000E+03 0.  0.
<mgrwt>
<rscale>  2 0.44993557E+03</rscale>
<asrwt>0</asrwt>
<pdfrwt beam="1">  1       21 0.24368264E-02 0.44993557E+03</pdfrwt>
<pdfrwt beam="2">  1       21 0.44915708E+00 0.44993557E+03</pdfrwt>
<totfact> 0.29880801E+03</totfact>
</mgrwt>
</event>
<event>
 7    0  0.4784406E-002  0.4289654E+03  0.7546771E-02  0.1034187E+00
         21   -1    0    0  502  501  0.00000000000E+00  0.00000000000E+00  0.88724763637E+02  0.88724763637E+02  0.00000000000E+00 0. -1.
         21   -1    0    0  501  502 -0.00000000000E+00 -0.00000000000E+00 -0.51848915822E+03  0.51848915822E+03  0.00000000000E+00 0. -1.
      99926    2    1    2    0    0 -0.88817841970E-15  0.35527136788E-14 -0.42976439459E+03  0.60721392186E+03  0.42896539726E+03 0.  0.
      99925    2    3    3    0    0  0.72816767618E+01 -0.27848195803E+02 -0.39286872015E+03  0.47365740304E+03  0.26301513143E+03 0.  0.
         25    1    4    4    0    0  0.22160169255E+02 -0.40940001962E+02 -0.15810886921E+03  0.20691321728E+03  0.12509000000E+03 0.  0.
         25    1    4    4    0    0 -0.14878492493E+02  0.13091806159E+02 -0.23475985094E+03  0.26674418576E+03  0.12509000000E+03 0.  0.
         25    1    3    3    0    0 -0.72816767618E+01  0.27848195803E+02 -0.36895674440E+02  0.13355651882E+03  0.12509000000E+03 0.  0.
<mgrwt>
<rscale>  2 0.42896540E+03</rscale>
<asrwt>0</asrwt>
<pdfrwt beam="1">  1       21 0.13047759E-01 0.42896540E+03</pdfrwt>
<pdfrwt beam="2">  1       21 0.76248407E-01 0.42896540E+03</pdfrwt>
<totfact> 0.71924146E+04</totfact>
</mgrwt>
</event>
<event>
 7    0  0.4784406E-002  0.4657011E+03  0.7546771E-02  0.1023141E+00
         21   -1    0    0  502  501  0.00000000000E+00  0.00000000000E+00  0.32079611385E+02  0.32079611385E+02  0.00000000000E+00 0. -1.
         21   -1    0    0  501  502 -0.00000000000E+00 -0.00000000000E+00 -0.16901507905E+04  0.16901507905E+04  0.00000000000E+00 0. -1.
      99926    2    1    2    0    0  0.71054273576E-14  0.00000000000E+00 -0.16580711791E+04  0.17222304018E+04  0.46570110818E+03 0.  0.
      99925    2    3    3    0    0 -0.62603468687E+02 -0.10093113506E+03 -0.11522398872E+04  0.11877969707E+04  0.26286612142E+03 0.  0.
         25    1    3    3    0    0  0.62603468687E+02  0.10093113506E+03 -0.50583129189E+03  0.53443343109E+03  0.12509000000E+03 0.  0.
         25    1    4    4    0    0  0.65833529269E+01 -0.38475559982E+02 -0.46794833757E+03  0.48594944592E+03  0.12509000000E+03 0.  0.
         25    1    4    4    0    0 -0.69186821614E+02 -0.62455575074E+02 -0.68429154961E+03  0.70184752483E+03  0.12509000000E+03 0.  0.
<mgrwt>
<rscale>  2 0.46570111E+03</rscale>
<asrwt>0</asrwt>
<pdfrwt beam="1">  1       21 0.47175889E-02 0.46570111E+03</pdfrwt>
<pdfrwt beam="2">  1       21 0.24855164E+00 0.46570111E+03</pdfrwt>
<totfact> 0.17318673E+04</totfact>
</mgrwt>
</event>
<event>
 7    0  0.4784406E-002  0.4544075E+03  0.7546771E-02  0.1026416E+00
         21   -1    0    0  502  501  0.00000000000E+00  0.00000000000E+00  0.30834948618E+02  0.30834948618E+02  0.00000000000E+00 0. -1.
         21   -1    0    0  501  502 -0.00000000000E+00 -0.00000000000E+00 -0.16741244379E+04  0.16741244379E+04  0.00000000000E+00 0. -1.
      99926    2    1    2    0    0  0.00000000000E+00  0.00000000000E+00 -0.16432894892E+04  0.17049593865E+04  0.45440748683E+03 0.  0.
      99925    2    3    3    0    0 -0.77192560719E+02 -0.82004012125E+01 -0.13407664665E+04  0.13685167831E+04  0.26297819261E+03 0.  0.
         25    1    4    4    0    0 -0.17223082678E+02  0.69263686508E+01 -0.47353270005E+03  0.49012787646E+03  0.12509000000E+03 0.  0.
         25    1    3    3    0    0  0.77192560719E+02  0.82004012125E+01 -0.30252302272E+03  0.33644260340E+03  0.12509000000E+03 0.  0.
         25    1    4    4    0    0 -0.59969478041E+02 -0.15126769863E+02 -0.86723376648E+03  0.87838890662E+03  0.12509000000E+03 0.  0.
<mgrwt>
<rscale>  2 0.45440749E+03</rscale>
<asrwt>0</asrwt>
<pdfrwt beam="1">  1       21 0.45345509E-02 0.45440749E+03</pdfrwt>
<pdfrwt beam="2">  1       21 0.24619479E+00 0.45440749E+03</pdfrwt>
<totfact> 0.19247120E+04</totfact>
</mgrwt>
</event>
<event>
 7    0  0.4784406E-002  0.4450842E+03  0.7546771E-02  0.1029198E+00
         21   -1    0    0  502  501  0.00000000000E+00  0.00000000000E+00  0.40644079299E+03  0.40644079299E+03  0.00000000000E+00 0. -1.
         21   -1    0    0  501  502 -0.00000000000E+00 -0.00000000000E+00 -0.12185043873E+03  0.12185043873E+03  0.00000000000E+00 0. -1.
      99926    2    1    2    0    0  0.00000000000E+00  0.00000000000E+00  0.28459035427E+03  0.52829123172E+03  0.44508421200E+03 0.  0.
      99925    2    3    3    0    0  0.88428888143E+02  0.42469709854E+02  0.22021314809E+03  0.35678240604E+03  0.26301427747E+03 0.  0.
         25    1    4    4    0    0  0.50270180642E+02  0.23793406114E+02  0.16288369057E+03  0.21277176032E+03  0.12509000000E+03 0.  0.
         25    1    3    3    0    0 -0.88428888143E+02 -0.42469709854E+02  0.64377206179E+02  0.17150882569E+03  0.12509000000E+03 0.  0.
         25    1    4    4    0    0  0.38158707502E+02  0.18676303739E+02  0.57329457515E+02  0.14401064571E+03  0.12509000000E+03 0.  0.
<mgrwt>
<rscale>  2 0.44508421E+03</rscale>
<asrwt>0</asrwt>
<pdfrwt beam="1">  1       21 0.59770704E-01 0.44508421E+03</pdfrwt>
<pdfrwt beam="2">  1       21 0.17919182E-01 0.44508421E+03</pdfrwt>
<totfact> 0.68548575E+04</totfact>
</mgrwt>
</event>
<event>
 7    0  0.4784406E-002  0.4560794E+03  0.7546771E-02  0.1025924E+00
         21   -1    0    0  502  501  0.00000000000E+00  0.00000000000E+00  0.47740780772E+03  0.47740780772E+03  0.00000000000E+00 0. -1.
         21   -1    0    0  501  502 -0.00000000000E+00 -0.00000000000E+00 -0.10892596582E+03  0.10892596582E+03  0.00000000000E+00 0. -1.
      99926    2    1    2    0    0  0.00000000000E+00 -0.71054273576E-14  0.36848184190E+03  0.58633377354E+03  0.45607940775E+03 0.  0.
      99925    2    3    3    0    0  0.33964246169E+01  0.62937097297E+02  0.10920492175E+03  0.29163962134E+03  0.26297402891E+03 0.  0.
         25    1    4    4    0    0  0.81911281141E+01 -0.86191244715E+01  0.60372786287E+02  0.13940504048E+03  0.12509000000E+03 0.  0.
         25    1    3    3    0    0 -0.33964246169E+01 -0.62937097297E+02  0.25927692015E+03  0.29469415220E+03  0.12509000000E+03 0.  0.
         25    1    4    4    0    0 -0.47947034972E+01  0.71556221768E+02  0.48832135463E+02  0.15223458086E+03  0.12509000000E+03 0.  0.
<mgrwt>
<rscale>  2 0.45607941E+03</rscale>
<asrwt>0</asrwt>
<pdfrwt beam="1">  1       21 0.70207030E-01 0.45607941E+03</pdfrwt>
<pdfrwt beam="2">  1       21 0.16018525E-01 0.45607941E+03</pdfrwt>
<totfact> 0.59022248E+04</totfact>
</mgrwt>
</event>
<event>
 7    0  0.4784406E-002  0.4484345E+03  0.7546771E-02  0.1028190E+00
         21   -1    0    0  502  501  0.00000000000E+00  0.00000000000E+00  0.99268927945E+03  0.99268927945E+03  0.00000000000E+00 0.  1.
         21   -1    0    0  501  502 -0.00000000000E+00 -0.00000000000E+00 -0.50643617022E+02  0.50643617022E+02  0.00000000000E+00 0.  1.
      99926    2    1    2    0    0  0.00000000000E+00  0.00000000000E+00  0.94204566243E+03  0.10433328965E+04  0.44843450220E+03 0.  0.
      99925    2    3    3    0    0 -0.92037770666E+02  0.53247866771E+02  0.57951215756E+03  0.64535759975E+03  0.26333591524E+03 0.  0.
         25    1    4    4    0    0 -0.89483323044E+02  0.30642590863E+02  0.32449696623E+03  0.36040535883E+03  0.12509000000E+03 0.  0.
         25    1    4    4    0    0 -0.25544476219E+01  0.22605275908E+02  0.25501519133E+03  0.28495224093E+03  0.12509000000E+03 0.  0.
         25    1    3    3    0    0  0.92037770666E+02 -0.53247866771E+02  0.36253350487E+03  0.39797529672E+03  0.12509000000E+03 0.  0.
<mgrwt>
<rscale>  2 0.44843450E+03</rscale>
<asrwt>0</asrwt>
<pdfrwt beam="1">  1       21 0.14598371E+00 0.44843450E+03</pdfrwt>
<pdfrwt beam="2">  1       21 0.74475914E-02 0.44843450E+03</pdfrwt>
<totfact> 0.39509273E+04</totfact>
</mgrwt>
</event>
<event>
 7    0  0.4784406E-002  0.4559586E+03  0.7546771E-02  0.1025960E+00
         21   -1    0    0  502  501  0.00000000000E+00  0.00000000000E+00  0.93988296338E+02  0.93988296338E+02  0.00000000000E+00 0. -1.
         21   -1    0    0  501  502 -0.00000000000E+00 -0.00000000000E+00 -0.55298977098E+03  0.55298977098E+03  0.00000000000E+00 0. -1.
      99926    2    1    2    0    0 -0.17763568394E-14  0.17763568394E-14 -0.45900147464E+03  0.64697806731E+03  0.45595862297E+03 0.  0.
      99925    2    3    3    0    0  0.10715919286E+02 -0.11097556916E+02 -0.44894617664E+03  0.52053992507E+03  0.26300410144E+03 0.  0.
         25    1    4    4    0    0  0.23639225116E+02  0.92940563672E+01 -0.28992987160E+03  0.31678388689E+03  0.12509000000E+03 0.  0.
         25    1    4    4    0    0 -0.12923305830E+02 -0.20391613284E+02 -0.15901630505E+03  0.20375603818E+03  0.12509000000E+03 0.  0.
         25    1    3    3    0    0 -0.10715919286E+02  0.11097556916E+02 -0.10055297995E+02  0.12643814224E+03  0.12509000000E+03 0.  0.
<mgrwt>
<rscale>  2 0.45595862E+03</rscale>
<asrwt>0</asrwt>
<pdfrwt beam="1">  1       21 0.13821808E-01 0.45595862E+03</pdfrwt>
<pdfrwt beam="2">  1       21 0.81322025E-01 0.45595862E+03</pdfrwt>
<totfact> 0.55455299E+04</totfact>
</mgrwt>
</event>
<event>
 7    0  0.4784406E-002  0.4683531E+03  0.7546771E-02  0.1022386E+00
         21   -1    0    0  502  501  0.00000000000E+00  0.00000000000E+00  0.45897743141E+03  0.45897743141E+03  0.00000000000E+00 0. -1.
         21   -1    0    0  501  502 -0.00000000000E+00 -0.00000000000E+00 -0.11948008093E+03  0.11948008093E+03  0.00000000000E+00 0. -1.
      99926    2    1    2    0    0  0.35527136788E-14  0.00000000000E+00  0.33949735048E+03  0.57845751234E+03  0.46835311743E+03 0.  0.
      99925    2    3    3    0    0  0.14996057723E+02 -0.11579925490E+03  0.26725934484E+03  0.39271525344E+03  0.26298928438E+03 0.  0.
         25    1    4    4    0    0 -0.25011527087E+02 -0.32888404628E+02  0.13629986235E+03  0.18955839265E+03  0.12509000000E+03 0.  0.
         25    1    3    3    0    0 -0.14996057723E+02  0.11579925490E+03  0.72238005639E+02  0.18574225890E+03  0.12509000000E+03 0.  0.
         25    1    4    4    0    0  0.40007584810E+02 -0.82910850269E+02  0.13095948249E+03  0.20315686080E+03  0.12509000000E+03 0.  0.
<mgrwt>
<rscale>  2 0.46835312E+03</rscale>
<asrwt>0</asrwt>
<pdfrwt beam="1">  1       21 0.67496680E-01 0.46835312E+03</pdfrwt>
<pdfrwt beam="2">  1       21 0.17570600E-01 0.46835312E+03</pdfrwt>
<totfact> 0.54084104E+04</totfact>
</mgrwt>
</event>
<event>
 7    0  0.4784406E-002  0.4490595E+03  0.7546771E-02  0.1028003E+00
         21   -1    0    0  502  501  0.00000000000E+00  0.00000000000E+00  0.97399191703E+03  0.97399191703E+03  0.00000000000E+00 0.  1.
         21   -1    0    0  501  502 -0.00000000000E+00 -0.00000000000E+00 -0.51759770855E+02  0.51759770855E+02  0.00000000000E+00 0.  1.
      99926    2    1    2    0    0  0.14210854715E-13  0.00000000000E+00  0.92223214617E+03  0.10257516879E+04  0.44905945459E+03 0.  0.
      99925    2    3    3    0    0 -0.67900566557E+02  0.75517114602E+02  0.66368298283E+03  0.72110681348E+03  0.26307149828E+03 0.  0.
         25    1    3    3    0    0  0.67900566557E+02 -0.75517114602E+02  0.25854916334E+03  0.30464487440E+03  0.12509000000E+03 0.  0.
         25    1    4    4    0    0 -0.29999435615E+02  0.44796145908E+02  0.43600139200E+03  0.45678373740E+03  0.12509000000E+03 0.  0.
         25    1    4    4    0    0 -0.37901130943E+02  0.30720968694E+02  0.22768159083E+03  0.26432307608E+03  0.12509000000E+03 0.  0.
<mgrwt>
<rscale>  2 0.44905945E+03</rscale>
<asrwt>0</asrwt>
<pdfrwt beam="1">  1       21 0.14323409E+00 0.44905945E+03</pdfrwt>
<pdfrwt beam="2">  1       21 0.76117316E-02 0.44905945E+03</pdfrwt>
<totfact> 0.40003279E+04</totfact>
</mgrwt>
</event>
<event>
 7    0  0.4784406E-002  0.4348236E+03  0.7546771E-02  0.1032347E+00
         21   -1    0    0  502  501  0.00000000000E+00  0.00000000000E+00  0.35219012618E+03  0.35219012618E+03  0.00000000000E+00 0.  1.
         21   -1    0    0  501  502 -0.00000000000E+00 -0.00000000000E+00 -0.13421131462E+03  0.13421131462E+03  0.00000000000E+00 0.  1.
      99926    2    1    2    0    0  0.00000000000E+00  0.00000000000E+00  0.21797881155E+03  0.48640144080E+03  0.43482364164E+03 0.  0.
      99925    2    3    3    0    0 -0.70958931656E+02  0.53780488008E+02  0.10951289736E+03  0.29841241582E+03  0.26292467430E+03 0.  0.
         25    1    3    3    0    0  0.70958931656E+02 -0.53780488008E+02  0.10846591420E+03  0.18798902498E+03  0.12509000000E+03 0.  0.
         25    1    4    4    0    0 -0.46770874610E+02  0.65263656458E+02  0.71608615445E+02  0.16499139818E+03  0.12509000000E+03 0.  0.
         25    1    4    4    0    0 -0.24188057046E+02 -0.11483168450E+02  0.37904281913E+02  0.13342101764E+03  0.12509000000E+03 0.  0.
<mgrwt>
<rscale>  2 0.43482364E+03</rscale>
<asrwt>0</asrwt>
<pdfrwt beam="1">  1       21 0.51792666E-01 0.43482364E+03</pdfrwt>
<pdfrwt beam="2">  1       21 0.19736958E-01 0.43482364E+03</pdfrwt>
<totfact> 0.78000987E+04</totfact>
</mgrwt>
</event>
<event>
 7    0  0.4784406E-002  0.4666980E+03  0.7546771E-02  0.1022856E+00
         21   -1    0    0  502  501  0.00000000000E+00  0.00000000000E+00  0.60828839749E+02  0.60828839749E+02  0.00000000000E+00 0. -1.
         21   -1    0    0  501  502 -0.00000000000E+00 -0.00000000000E+00 -0.89516346719E+03  0.89516346719E+03  0.00000000000E+00 0. -1.
      99926    2    1    2    0    0  0.26645352591E-14  0.00000000000E+00 -0.83433462744E+03  0.95599230693E+03  0.46669799697E+03 0.  0.
      99925    2    3    3    0    0 -0.53301086987E+01  0.11759247606E+03 -0.44108445672E+03  0.52686574593E+03  0.26301257726E+03 0.  0.
         25    1    3    3    0    0  0.53301086987E+01 -0.11759247606E+03 -0.39325017072E+03  0.42912656100E+03  0.12509000000E+03 0.  0.
         25    1    4    4    0    0  0.24396158393E+02  0.55959129542E+02 -0.27312361377E+03  0.30654626604E+03  0.12509000000E+03 0.  0.
         25    1    4    4    0    0 -0.29726267092E+02  0.61633346516E+02 -0.16796084294E+03  0.22031947989E+03  0.12509000000E+03 0.  0.
<mgrwt>
<rscale>  2 0.46669800E+03</rscale>
<asrwt>0</asrwt>
<pdfrwt beam="1">  1       21 0.89454183E-02 0.46669800E+03</pdfrwt>
<pdfrwt beam="2">  1       21 0.13164168E+00 0.46669800E+03</pdfrwt>
<totfact> 0.37362389E+04</totfact>
</mgrwt>
</event>
<event>
 7    0  0.4784406E-002  0.4546465E+03  0.7546771E-02  0.1026345E+00
         21   -1    0    0  502  501  0.00000000000E+00  0.00000000000E+00  0.18043632516E+03  0.18043632516E+03  0.00000000000E+00 0. -1.
         21   -1    0    0  501  502 -0.00000000000E+00 -0.00000000000E+00 -0.28639382143E+03  0.28639382143E+03  0.00000000000E+00 0. -1.
      99926    2    1    2    0    0  0.00000000000E+00  0.71054273576E-14 -0.10595749627E+03  0.46683014659E+03  0.45464645028E+03 0.  0.
      99925    2    3    3    0    0 -0.73604889308E+02  0.45025117071E+02  0.80896419993E+01  0.27683225517E+03  0.26291769491E+03 0.  0.
         25    1    3    3    0    0  0.73604889308E+02 -0.45025117071E+02 -0.11404713827E+03  0.18999789142E+03  0.12509000000E+03 0.  0.
         25    1    4    4    0    0 -0.13695344034E+02 -0.12715583975E+02  0.39406516571E+01  0.12653965924E+03  0.12509000000E+03 0.  0.
         25    1    4    4    0    0 -0.59909545274E+02  0.57740701045E+02  0.41489903422E+01  0.15029259594E+03  0.12509000000E+03 0.  0.
<mgrwt>
<rscale>  2 0.45464645E+03</rscale>
<asrwt>0</asrwt>
<pdfrwt beam="1">  1       21 0.26534754E-01 0.45464645E+03</pdfrwt>
<pdfrwt beam="2">  1       21 0.42116738E-01 0.45464645E+03</pdfrwt>
<totfact> 0.67862548E+04</totfact>
</mgrwt>
</event>
<event>
 7    0  0.4784406E-002  0.4563710E+03  0.7546771E-02  0.1025839E+00
         21   -1    0    0  502  501  0.00000000000E+00  0.00000000000E+00  0.41840557404E+03  0.41840557404E+03  0.00000000000E+00 0.  1.
         21   -1    0    0  501  502 -0.00000000000E+00 -0.00000000000E+00 -0.12444532215E+03  0.12444532215E+03  0.00000000000E+00 0.  1.
      99926    2    1    2    0    0  0.00000000000E+00 -0.35527136788E-14  0.29396025188E+03  0.54285089619E+03  0.45637097388E+03 0.  0.
      99925    2    3    3    0    0  0.12499466717E+02  0.11305474593E+02  0.31945599625E+03  0.41408136755E+03  0.26292051079E+03 0.  0.
         25    1    3    3    0    0 -0.12499466717E+02 -0.11305474593E+02 -0.25495744366E+02  0.12876952863E+03  0.12509000000E+03 0.  0.
         25    1    4    4    0    0  0.25121160572E+02 -0.29282140380E+02  0.14701802229E+03  0.19685101836E+03  0.12509000000E+03 0.  0.
         25    1    4    4    0    0 -0.12621693855E+02  0.40587614973E+02  0.17243797396E+03  0.21723034919E+03  0.12509000000E+03 0.  0.
<mgrwt>
<rscale>  2 0.45637097E+03</rscale>
<asrwt>0</asrwt>
<pdfrwt beam="1">  1       21 0.61530231E-01 0.45637097E+03</pdfrwt>
<pdfrwt beam="2">  1       21 0.18300783E-01 0.45637097E+03</pdfrwt>
<totfact> 0.61669634E+04</totfact>
</mgrwt>
</event>
<event>
 7    0  0.4784406E-002  0.4591616E+03  0.7546771E-02  0.1025025E+00
         21   -1    0    0  502  501  0.00000000000E+00  0.00000000000E+00  0.19645198120E+03  0.19645198120E+03  0.00000000000E+00 0. -1.
         21   -1    0    0  501  502 -0.00000000000E+00 -0.00000000000E+00 -0.26829629259E+03  0.26829629259E+03  0.00000000000E+00 0. -1.
      99926    2    1    2    0    0  0.00000000000E+00 -0.88817841970E-15 -0.71844311396E+02  0.46474827379E+03  0.45916157604E+03 0.  0.
      99925    2    3    3    0    0  0.67766829126E+02 -0.40543514719E+01  0.51198839072E+02  0.27661027690E+03  0.26321691296E+03 0.  0.
         25    1    4    4    0    0  0.41900704847E+02  0.92760797742E+01  0.65151925796E+02  0.14742454428E+03  0.12509000000E+03 0.  0.
         25    1    3    3    0    0 -0.67766829126E+02  0.40543514719E+01 -0.12304315047E+03  0.18813799689E+03  0.12509000000E+03 0.  0.
         25    1    4    4    0    0  0.25866124280E+02 -0.13330431246E+02 -0.13953086724E+02  0.12918573262E+03  0.12509000000E+03 0.  0.
<mgrwt>
<rscale>  2 0.45916158E+03</rscale>
<asrwt>0</asrwt>
<pdfrwt beam="1">  1       21 0.28889997E-01 0.45916158E+03</pdfrwt>
<pdfrwt beam="2">  1       21 0.39455337E-01 0.45916158E+03</pdfrwt>
<totfact> 0.65630565E+04</totfact>
</mgrwt>
</event>
<event>
 7    0  0.4784406E-002  0.4500173E+03  0.7546771E-02  0.1027717E+00
         21   -1    0    0  502  501  0.00000000000E+00  0.00000000000E+00  0.61881818446E+02  0.61881818446E+02  0.00000000000E+00 0.  1.
         21   -1    0    0  501  502 -0.00000000000E+00 -0.00000000000E+00 -0.81815466864E+03  0.81815466864E+03  0.00000000000E+00 0.  1.
      99926    2    1    2    0    0  0.00000000000E+00 -0.17763568394E-14 -0.75627285020E+03  0.88003648709E+03  0.45001732707E+03 0.  0.
      99925    2    3    3    0    0 -0.75536347325E+02  0.12244261451E+02 -0.32789692071E+03  0.42725717355E+03  0.26301452438E+03 0.  0.
         25    1    3    3    0    0  0.75536347325E+02 -0.12244261451E+02 -0.42837592949E+03  0.45277931354E+03  0.12509000000E+03 0.  0.
         25    1    4    4    0    0 -0.25702773546E+02 -0.32947280048E+02 -0.15886192453E+03  0.20647221362E+03  0.12509000000E+03 0.  0.
         25    1    4    4    0    0 -0.49833573778E+02  0.45191541499E+02 -0.16903499618E+03  0.22078495993E+03  0.12509000000E+03 0.  0.
<mgrwt>
<rscale>  2 0.45001733E+03</rscale>
<asrwt>0</asrwt>
<pdfrwt beam="1">  1       21 0.91002676E-02 0.45001733E+03</pdfrwt>
<pdfrwt beam="2">  1       21 0.12031686E+00 0.45001733E+03</pdfrwt>
<totfact> 0.45872198E+04</totfact>
</mgrwt>
</event>
<event>
 7    0  0.4784406E-002  0.4545041E+03  0.7546771E-02  0.1026387E+00
         21   -1    0    0  502  501  0.00000000000E+00  0.00000000000E+00  0.31256122956E+03  0.31256122956E+03  0.00000000000E+00 0. -1.
         21   -1    0    0  501  502 -0.00000000000E+00 -0.00000000000E+00 -0.16522678869E+03  0.16522678869E+03  0.00000000000E+00 0. -1.
      99926    2    1    2    0    0  0.17763568394E-14  0.26645352591E-14  0.14733444087E+03  0.47778801825E+03  0.45450407360E+03 0.  0.
      99925    2    3    3    0    0 -0.12143778082E+02  0.64093653956E+01 -0.24697862358E+02  0.26464212276E+03  0.26312908889E+03 0.  0.
         25    1    3    3    0    0  0.12143778082E+02 -0.64093653956E+01  0.17203230323E+03  0.21314589549E+03  0.12509000000E+03 0.  0.
         25    1    4    4    0    0 -0.31808349733E+02  0.34245458586E+02 -0.62108962730E+01  0.13368098548E+03  0.12509000000E+03 0.  0.
         25    1    4    4    0    0  0.19664571651E+02 -0.27836093191E+02 -0.18486966085E+02  0.13096113728E+03  0.12509000000E+03 0.  0.
<mgrwt>
<rscale>  2 0.45450407E+03</rscale>
<asrwt>0</asrwt>
<pdfrwt beam="1">  1       21 0.45964887E-01 0.45450407E+03</pdfrwt>
<pdfrwt beam="2">  1       21 0.24298057E-01 0.45450407E+03</pdfrwt>
<totfact> 0.67125290E+04</totfact>
</mgrwt>
</event>
<event>
 7    0  0.4784406E-002  0.4203364E+03  0.7546771E-02  0.1036957E+00
         21   -1    0    0  502  501  0.00000000000E+00  0.00000000000E+00  0.43599899851E+02  0.43599899851E+02  0.00000000000E+00 0.  1.
         21   -1    0    0  501  502 -0.00000000000E+00 -0.00000000000E+00 -0.10130909209E+04  0.10130909209E+04  0.00000000000E+00 0.  1.
      99926    2    1    2    0    0  0.00000000000E+00  0.71054273576E-14 -0.96949102106E+03  0.10566908208E+04  0.42033635432E+03 0.  0.
      99925    2    3    3    0    0 -0.35991766262E+02  0.48375088717E+02 -0.51418152147E+03  0.58067631997E+03  0.26299580815E+03 0.  0.
         25    1    4    4    0    0  0.13465077333E+02  0.20906541407E+02 -0.30353353049E+03  0.32923928079E+03  0.12509000000E+03 0.  0.
         25    1    3    3    0    0  0.35991766262E+02 -0.48375088717E+02 -0.45530949958E+03  0.47601450079E+03  0.12509000000E+03 0.  0.
         25    1    4    4    0    0 -0.49456843595E+02  0.27468547309E+02 -0.21064799098E+03  0.25143703918E+03  0.12509000000E+03 0.  0.
<mgrwt>
<rscale>  2 0.42033635E+03</rscale>
<asrwt>0</asrwt>
<pdfrwt beam="1">  1       21 0.64117499E-02 0.42033635E+03</pdfrwt>
<pdfrwt beam="2">  1       21 0.14898396E+00 0.42033635E+03</pdfrwt>
<totfact> 0.49008738E+04</totfact>
</mgrwt>
</event>
<event>
 7    0  0.4784406E-002  0.4471992E+03  0.7546771E-02  0.1028561E+00
         21   -1    0    0  502  501  0.00000000000E+00  0.00000000000E+00  0.39420153302E+02  0.39420153302E+02  0.00000000000E+00 0.  1.
         21   -1    0    0  501  502 -0.00000000000E+00 -0.00000000000E+00 -0.12683048094E+04  0.12683048094E+04  0.00000000000E+00 0.  1.
      99926    2    1    2    0    0  0.00000000000E+00  0.17763568394E-14 -0.12288846561E+04  0.13077249627E+04  0.44719915036E+03 0.  0.
      99925    2    3    3    0    0 -0.55880185780E+02  0.11190868137E+01 -0.51664941077E+03  0.58243164252E+03  0.26301360618E+03 0.  0.
         25    1    4    4    0    0 -0.77160871359E+01  0.35970571479E+02 -0.25089221013E+03  0.28275047165E+03  0.12509000000E+03 0.  0.
         25    1    3    3    0    0  0.55880185780E+02 -0.11190868137E+01 -0.71223524531E+03  0.72529332017E+03  0.12509000000E+03 0.  0.
         25    1    4    4    0    0 -0.48164098644E+02 -0.34851484665E+02 -0.26575720064E+03  0.29968117087E+03  0.12509000000E+03 0.  0.
<mgrwt>
<rscale>  2 0.44719915E+03</rscale>
<asrwt>0</asrwt>
<pdfrwt beam="1">  1       21 0.57970818E-02 0.44719915E+03</pdfrwt>
<pdfrwt beam="2">  1       21 0.18651540E+00 0.44719915E+03</pdfrwt>
<totfact> 0.30712483E+04</totfact>
</mgrwt>
</event>
<event>
 7    0  0.4784406E-002  0.4558025E+03  0.7546771E-02  0.1026006E+00
         21   -1    0    0  502  501  0.00000000000E+00  0.00000000000E+00  0.37172189630E+02  0.37172189630E+02  0.00000000000E+00 0. -1.
         21   -1    0    0  501  502 -0.00000000000E+00 -0.00000000000E+00 -0.13972539551E+04  0.13972539551E+04  0.00000000000E+00 0. -1.
      99926    2    1    2    0    0  0.14210854715E-13  0.71054273576E-14 -0.13600817654E+04  0.14344261447E+04  0.45580254049E+03 0.  0.
      99925    2    3    3    0    0  0.70823630544E+02  0.56394772176E+02 -0.10731526910E+04  0.11085854493E+04  0.26288522789E+03 0.  0.
         25    1    3    3    0    0 -0.70823630544E+02 -0.56394772176E+02 -0.28692907439E+03  0.32584069544E+03  0.12509000000E+03 0.  0.
         25    1    4    4    0    0  0.38598923761E+02 -0.10715049285E+02 -0.55895904683E+03  0.57418412842E+03  0.12509000000E+03 0.  0.
         25    1    4    4    0    0  0.32224706783E+02  0.67109821461E+02 -0.51419364422E+03  0.53440132084E+03  0.12509000000E+03 0.  0.
<mgrwt>
<rscale>  2 0.45580254E+03</rscale>
<asrwt>0</asrwt>
<pdfrwt beam="1">  1       21 0.54664986E-02 0.45580254E+03</pdfrwt>
<pdfrwt beam="2">  1       21 0.20547852E+00 0.45580254E+03</pdfrwt>
<totfact> 0.25270945E+04</totfact>
</mgrwt>
</event>
<event>
 7    0  0.4784406E-002  0.4554095E+03  0.7546771E-02  0.1026121E+00
         21   -1    0    0  502  501  0.00000000000E+00  0.00000000000E+00  0.71427217204E+03  0.71427217204E+03  0.00000000000E+00 0. -1.
         21   -1    0    0  501  502 -0.00000000000E+00 -0.00000000000E+00 -0.72590621405E+02  0.72590621405E+02  0.00000000000E+00 0. -1.
      99926    2    1    2    0    0  0.00000000000E+00  0.00000000000E+00  0.64168155063E+03  0.78686279344E+03  0.45540953359E+03 0.  0.
      99925    2    3    3    0    0  0.10509592245E+03  0.92320218127E+01  0.33092744425E+03  0.43565629311E+03  0.26296967359E+03 0.  0.
         25    1    4    4    0    0  0.79284418504E+02  0.28029968938E+02  0.21203342885E+03  0.26014876749E+03  0.12509000000E+03 0.  0.
         25    1    3    3    0    0 -0.10509592245E+03 -0.92320218127E+01  0.31075410638E+03  0.35120650033E+03  0.12509000000E+03 0.  0.
         25    1    4    4    0    0  0.25811503943E+02 -0.18797947126E+02  0.11889401540E+03  0.17550752562E+03  0.12509000000E+03 0.  0.
<mgrwt>
<rscale>  2 0.45540953E+03</rscale>
<asrwt>0</asrwt>
<pdfrwt beam="1">  1       21 0.10504002E+00 0.45540953E+03</pdfrwt>
<pdfrwt beam="2">  1       21 0.10675092E-01 0.45540953E+03</pdfrwt>
<totfact> 0.48251554E+04</totfact>
</mgrwt>
</event>
<event>
 7    0  0.4784406E-002  0.4669329E+03  0.7546771E-02  0.1022789E+00
         21   -1    0    0  502  501  0.00000000000E+00  0.00000000000E+00  0.11918811410E+03  0.11918811410E+03  0.00000000000E+00 0. -1.
         21   -1    0    0  501  502 -0.00000000000E+00 -0.00000000000E+00 -0.45731569197E+03  0.45731569197E+03  0.00000000000E+00 0. -1.
      99926    2    1    2    0    0  0.00000000000E+00  0.11102230246E-14 -0.33812757788E+03  0.57650380607E+03  0.46693294967E+03 0.  0.
      99925    2    3    3    0    0  0.12347409817E+03  0.10329366824E+01 -0.19640367427E+03  0.35071608978E+03  0.26302177188E+03 0.  0.
         25    1    4    4    0    0  0.27096302512E+02  0.23858606982E+02 -0.75250526984E+02  0.15037816546E+03  0.12509000000E+03 0.  0.
         25    1    4    4    0    0  0.96377795654E+02 -0.22825670299E+02 -0.12115314729E+03  0.20033792431E+03  0.12509000000E+03 0.  0.
         25    1    3    3    0    0 -0.12347409817E+03 -0.10329366824E+01 -0.14172390360E+03  0.22578771629E+03  0.12509000000E+03 0.  0.
<mgrwt>
<rscale>  2 0.46693295E+03</rscale>
<asrwt>0</asrwt>
<pdfrwt beam="1">  1       21 0.17527664E-01 0.46693295E+03</pdfrwt>
<pdfrwt beam="2">  1       21 0.67252308E-01 0.46693295E+03</pdfrwt>
<totfact> 0.54792671E+04</totfact>
</mgrwt>
</event>
<event>
 7    0  0.4784406E-002  0.4584760E+03  0.7546771E-02  0.1025224E+00
         21   -1    0    0  502  501  0.00000000000E+00  0.00000000000E+00  0.11800848416E+03  0.11800848416E+03  0.00000000000E+00 0. -1.
         21   -1    0    0  501  502 -0.00000000000E+00 -0.00000000000E+00 -0.44530748313E+03  0.44530748313E+03  0.00000000000E+00 0. -1.
      99926    2    1    2    0    0  0.00000000000E+00  0.71054273576E-14 -0.32729899898E+03  0.56331596729E+03  0.45847600186E+03 0.  0.
      99925    2    3    3    0    0  0.74064796423E+02 -0.56134184106E+02 -0.11894049263E+03  0.30312869635E+03  0.26287549348E+03 0.  0.
         25    1    4    4    0    0  0.74779400714E+02 -0.22040591754E+02 -0.80243742221E+02  0.16782226527E+03  0.12509000000E+03 0.  0.
         25    1    4    4    0    0 -0.71460429090E+00 -0.34093592353E+02 -0.38696750412E+02  0.13530643108E+03  0.12509000000E+03 0.  0.
         25    1    3    3    0    0 -0.74064796423E+02  0.56134184106E+02 -0.20835850634E+03  0.26018727094E+03  0.12509000000E+03 0.  0.
<mgrwt>
<rscale>  2 0.45847600E+03</rscale>
<asrwt>0</asrwt>
<pdfrwt beam="1">  1       21 0.17354189E-01 0.45847600E+03</pdfrwt>
<pdfrwt beam="2">  1       21 0.65486396E-01 0.45847600E+03</pdfrwt>
<totfact> 0.59346563E+04</totfact>
</mgrwt>
</event>
<event>
 7    0  0.4784406E-002  0.4413857E+03  0.7546771E-02  0.1030322E+00
         21   -1    0    0  502  501  0.00000000000E+00  0.00000000000E+00  0.12637890404E+03  0.12637890404E+03  0.00000000000E+00 0. -1.
         21   -1    0    0  501  502 -0.00000000000E+00 -0.00000000000E+00 -0.38539139195E+03  0.38539139195E+03  0.00000000000E+00 0. -1.
      99926    2    1    2    0    0  0.00000000000E+00  0.00000000000E+00 -0.25901248790E+03  0.51177029599E+03  0.44138573489E+03 0.  0.
      99925    2    3    3    0    0 -0.91771320553E+02 -0.38376639175E+02 -0.17825798111E+03  0.33270734567E+03  0.26272329231E+03 0.  0.
         25    1    4    4    0    0 -0.62642470976E+02 -0.55564267762E+02 -0.83141784261E+02  0.17196375028E+03  0.12509000000E+03 0.  0.
         25    1    4    4    0    0 -0.29128849577E+02  0.17187628587E+02 -0.95116196851E+02  0.16074359539E+03  0.12509000000E+03 0.  0.
         25    1    3    3    0    0  0.91771320553E+02  0.38376639175E+02 -0.80754506792E+02  0.17906295032E+03  0.12509000000E+03 0.  0.
<mgrwt>
<rscale>  2 0.44138573E+03</rscale>
<asrwt>0</asrwt>
<pdfrwt beam="1">  1       21 0.18585133E-01 0.44138573E+03</pdfrwt>
<pdfrwt beam="2">  1       21 0.56675205E-01 0.44138573E+03</pdfrwt>
<totfact> 0.71909454E+04</totfact>
</mgrwt>
</event>
<event>
 7    0  0.4784406E-002  0.4430226E+03  0.7546771E-02  0.1029823E+00
         21   -1    0    0  502  501  0.00000000000E+00  0.00000000000E+00  0.34808054940E+02  0.34808054940E+02  0.00000000000E+00 0. -1.
         21   -1    0    0  501  502 -0.00000000000E+00 -0.00000000000E+00 -0.14096522521E+04  0.14096522521E+04  0.00000000000E+00 0. -1.
      99926    2    1    2    0    0  0.00000000000E+00  0.14210854715E-13 -0.13748441972E+04  0.14444603070E+04  0.44302258650E+03 0.  0.
      99925    2    3    3    0    0  0.23765225310E+02  0.73682737076E+02 -0.66090444377E+03  0.71552175596E+03  0.26302617319E+03 0.  0.
         25    1    4    4    0    0 -0.17149823058E+02  0.38259413091E+02 -0.25113194791E+03  0.28367703905E+03  0.12509000000E+03 0.  0.
         25    1    4    4    0    0  0.40915048368E+02  0.35423323985E+02 -0.40977249585E+03  0.43184471691E+03  0.12509000000E+03 0.  0.
         25    1    3    3    0    0 -0.23765225310E+02 -0.73682737076E+02 -0.71393975339E+03  0.72893855108E+03  0.12509000000E+03 0.  0.
<mgrwt>
<rscale>  2 0.44302259E+03</rscale>
<asrwt>0</asrwt>
<pdfrwt beam="1">  1       21 0.51188306E-02 0.44302259E+03</pdfrwt>
<pdfrwt beam="2">  1       21 0.20730184E+00 0.44302259E+03</pdfrwt>
<totfact> 0.27656580E+04</totfact>
</mgrwt>
</event>
<event>
 7    0  0.4784406E-002  0.4510026E+03  0.7546771E-02  0.1027423E+00
         21   -1    0    0  502  501  0.00000000000E+00  0.00000000000E+00  0.27291950817E+03  0.27291950817E+03  0.00000000000E+00 0. -1.
         21   -1    0    0  501  502 -0.00000000000E+00 -0.00000000000E+00 -0.18632172094E+03  0.18632172094E+03  0.00000000000E+00 0. -1.
      99926    2    1    2    0    0  0.00000000000E+00 -0.14210854715E-13  0.86597787226E+02  0.45924122911E+03  0.45100258287E+03 0.  0.
      99925    2    3    3    0    0 -0.47859323437E+02 -0.86544424165E+02  0.71841795073E+01  0.28109948390E+03  0.26303014128E+03 0.  0.
         25    1    4    4    0    0 -0.62717382969E+02 -0.55864609506E+02  0.13639287892E+02  0.15128735240E+03  0.12509000000E+03 0.  0.
         25    1    3    3    0    0  0.47859323437E+02  0.86544424165E+02  0.79413607719E+02  0.17814174521E+03  0.12509000000E+03 0.  0.
         25    1    4    4    0    0  0.14858059532E+02 -0.30679814659E+02 -0.64551083847E+01  0.12981213150E+03  0.12509000000E+03 0.  0.
<mgrwt>
<rscale>  2 0.45100258E+03</rscale>
<asrwt>0</asrwt>
<pdfrwt beam="1">  1       21 0.40135222E-01 0.45100258E+03</pdfrwt>
<pdfrwt beam="2">  1       21 0.27400253E-01 0.45100258E+03</pdfrwt>
<totfact> 0.70452071E+04</totfact>
</mgrwt>
</event>
<event>
 7    0  0.4784406E-002  0.4510081E+03  0.7546771E-02  0.1027422E+00
         21   -1    0    0  502  501  0.00000000000E+00  0.00000000000E+00  0.35713433062E+02  0.35713433062E+02  0.00000000000E+00 0. -1.
         21   -1    0    0  501  502 -0.00000000000E+00 -0.00000000000E+00 -0.14238922676E+04  0.14238922676E+04  0.00000000000E+00 0. -1.
      99926    2    1    2    0    0 -0.14210854715E-13  0.00000000000E+00 -0.13881788345E+04  0.14596057006E+04  0.45100812048E+03 0.  0.
      99925    2    3    3    0    0  0.66077656774E+02 -0.45726217626E+01 -0.11586719574E+04  0.11899613416E+04  0.26286902471E+03 0.  0.
         25    1    3    3    0    0 -0.66077656774E+02  0.45726217626E+01 -0.22950687713E+03  0.26964435901E+03  0.12509000000E+03 0.  0.
         25    1    4    4    0    0 -0.67570075904E+01 -0.72365145357E+01 -0.58464422919E+03  0.59795853294E+03  0.12509000000E+03 0.  0.
         25    1    4    4    0    0  0.72834664364E+02  0.26638927732E+01 -0.57402772819E+03  0.59200280868E+03  0.12509000000E+03 0.  0.
<mgrwt>
<rscale>  2 0.45100812E+03</rscale>
<asrwt>0</asrwt>
<pdfrwt beam="1">  1       21 0.52519745E-02 0.45100812E+03</pdfrwt>
<pdfrwt beam="2">  1       21 0.20939596E+00 0.45100812E+03</pdfrwt>
<totfact> 0.25569764E+04</totfact>
</mgrwt>
</event>
<event>
 7    0  0.4784406E-002  0.4534340E+03  0.7546771E-02  0.1026703E+00
         21   -1    0    0  502  501  0.00000000000E+00  0.00000000000E+00  0.84579360591E+03  0.84579360591E+03  0.00000000000E+00 0.  1.
         21   -1    0    0  501  502 -0.00000000000E+00 -0.00000000000E+00 -0.60772031735E+02  0.60772031735E+02  0.00000000000E+00 0.  1.
      99926    2    1    2    0    0 -0.14210854715E-13 -0.35527136788E-14  0.78502157417E+03  0.90656563764E+03  0.45343399017E+03 0.  0.
      99925    2    3    3    0    0 -0.87308815396E+02  0.20546091520E+02  0.62842483805E+03  0.68698645606E+03  0.26265498777E+03 0.  0.
         25    1    3    3    0    0  0.87308815396E+02 -0.20546091520E+02  0.15659673612E+03  0.21957918158E+03  0.12509000000E+03 0.  0.
         25    1    4    4    0    0 -0.19697799730E+02  0.35049236476E+02  0.35346574594E+03  0.37709679652E+03  0.12509000000E+03 0.  0.
         25    1    4    4    0    0 -0.67611015666E+02 -0.14503144956E+02  0.27495909211E+03  0.30988965954E+03  0.12509000000E+03 0.  0.
<mgrwt>
<rscale>  2 0.45343399E+03</rscale>
<asrwt>0</asrwt>
<pdfrwt beam="1">  1       21 0.12438141E+00 0.45343399E+03</pdfrwt>
<pdfrwt beam="2">  1       21 0.89370640E-02 0.45343399E+03</pdfrwt>
<totfact> 0.43481693E+04</totfact>
</mgrwt>
</event>
<event>
 7    0  0.4784406E-002  0.4545443E+03  0.7546771E-02  0.1026375E+00
         21   -1    0    0  502  501  0.00000000000E+00  0.00000000000E+00  0.97545816456E+03  0.97545816456E+03  0.00000000000E+00 0.  1.
         21   -1    0    0  501  502 -0.00000000000E+00 -0.00000000000E+00 -0.52952183151E+02  0.52952183151E+02  0.00000000000E+00 0.  1.
      99926    2    1    2    0    0 -0.71054273576E-14 -0.14210854715E-13  0.92250598141E+03  0.10284103477E+04  0.45454434057E+03 0.  0.
      99925    2    3    3    0    0 -0.48080700483E+02 -0.96489613108E+02  0.65617137680E+03  0.71503576529E+03  0.26285598854E+03 0.  0.
         25    1    4    4    0    0 -0.23961679080E+02 -0.78235118937E+01  0.26251126928E+03  0.29188190078E+03  0.12509000000E+03 0.  0.
         25    1    4    4    0    0 -0.24119021402E+02 -0.88666101214E+02  0.39366010752E+03  0.42315386451E+03  0.12509000000E+03 0.  0.
         25    1    3    3    0    0  0.48080700483E+02  0.96489613108E+02  0.26633460461E+03  0.31337458242E+03  0.12509000000E+03 0.  0.
<mgrwt>
<rscale>  2 0.45454434E+03</rscale>
<asrwt>0</asrwt>
<pdfrwt beam="1">  1       21 0.14344972E+00 0.45454434E+03</pdfrwt>
<pdfrwt beam="2">  1       21 0.77870864E-02 0.45454434E+03</pdfrwt>
<totfact> 0.38215461E+04</totfact>
</mgrwt>
</event>
<event>
 7    0  0.4784406E-002  0.4603807E+03  0.7546771E-02  0.1024671E+00
         21   -1    0    0  502  501  0.00000000000E+00  0.00000000000E+00  0.71656962541E+02  0.71656962541E+02  0.00000000000E+00 0.  1.
         21   -1    0    0  501  502 -0.00000000000E+00 -0.00000000000E+00 -0.73946201579E+03  0.73946201579E+03  0.00000000000E+00 0.  1.
      99926    2    1    2    0    0 -0.17763568394E-14  0.00000000000E+00 -0.66780505325E+03  0.81111897833E+03  0.46038072056E+03 0.  0.
      99925    2    3    3    0    0 -0.12520885060E+02 -0.42599072256E+02 -0.22566430669E+03  0.34948340627E+03  0.26314030179E+03 0.  0.
         25    1    3    3    0    0  0.12520885060E+02  0.42599072256E+02 -0.44214074656E+03  0.46163557206E+03  0.12509000000E+03 0.  0.
         25    1    4    4    0    0 -0.76165858970E+01 -0.33711898316E+02 -0.63646781329E+02  0.14454385266E+03  0.12509000000E+03 0.  0.
         25    1    4    4    0    0 -0.49042991633E+01 -0.88871739395E+01 -0.16201752536E+03  0.20493955361E+03  0.12509000000E+03 0.  0.
<mgrwt>
<rscale>  2 0.46038072E+03</rscale>
<asrwt>0</asrwt>
<pdfrwt beam="1">  1       21 0.10537788E-01 0.46038072E+03</pdfrwt>
<pdfrwt beam="2">  1       21 0.10874442E+00 0.46038072E+03</pdfrwt>
<totfact> 0.45288948E+04</totfact>
</mgrwt>
</event>
<event>
 7    0  0.4784406E-002  0.4537635E+03  0.7546771E-02  0.1026606E+00
         21   -1    0    0  502  501  0.00000000000E+00  0.00000000000E+00  0.35750515824E+03  0.35750515824E+03  0.00000000000E+00 0.  1.
         21   -1    0    0  501  502 -0.00000000000E+00 -0.00000000000E+00 -0.14398486020E+03  0.14398486020E+03  0.00000000000E+00 0.  1.
      99926    2    1    2    0    0  0.00000000000E+00  0.14210854715E-13  0.21352029804E+03  0.50149001844E+03  0.45376350770E+03 0.  0.
      99925    2    3    3    0    0 -0.21342317496E+02 -0.10976527252E+03  0.14086290224E+03  0.31864988381E+03  0.26304273732E+03 0.  0.
         25    1    4    4    0    0  0.13341357744E+02 -0.54802479390E+02  0.10612067854E+03  0.17346587586E+03  0.12509000000E+03 0.  0.
         25    1    4    4    0    0 -0.34683675240E+02 -0.54962793131E+02  0.34742223694E+02  0.14518400795E+03  0.12509000000E+03 0.  0.
         25    1    3    3    0    0  0.21342317496E+02  0.10976527252E+03  0.72657395805E+02  0.18284013463E+03  0.12509000000E+03 0.  0.
<mgrwt>
<rscale>  2 0.45376351E+03</rscale>
<asrwt>0</asrwt>
<pdfrwt beam="1">  1       21 0.52574288E-01 0.45376351E+03</pdfrwt>
<pdfrwt beam="2">  1       21 0.21174244E-01 0.45376351E+03</pdfrwt>
<totfact> 0.65809662E+04</totfact>
</mgrwt>
</event>
<event>
 7    0  0.4784406E-002  0.4579382E+03  0.7546771E-02  0.1025381E+00
         21   -1    0    0  502  501  0.00000000000E+00  0.00000000000E+00  0.19967480697E+03  0.19967480697E+03  0.00000000000E+00 0.  1.
         21   -1    0    0  501  502 -0.00000000000E+00 -0.00000000000E+00 -0.26256117460E+03  0.26256117460E+03  0.00000000000E+00 0.  1.
      99926    2    1    2    0    0  0.00000000000E+00 -0.35527136788E-14 -0.62886367632E+02  0.46223598157E+03  0.45793821355E+03 0.  0.
      99925    2    3    3    0    0  0.78734520855E+02 -0.21379212801E+02  0.43603795373E+02  0.27881335911E+03  0.26301977631E+03 0.  0.
         25    1    4    4    0    0  0.47434338261E+02  0.26271266241E+02  0.36609163744E+02  0.14116633751E+03  0.12509000000E+03 0.  0.
         25    1    3    3    0    0 -0.78734520855E+02  0.21379212801E+02 -0.10649016301E+03  0.18342262246E+03  0.12509000000E+03 0.  0.
         25    1    4    4    0    0  0.31300182594E+02 -0.47650479043E+02  0.69946316295E+01  0.13764702160E+03  0.12509000000E+03 0.  0.
<mgrwt>
<rscale>  2 0.45793821E+03</rscale>
<asrwt>0</asrwt>
<pdfrwt beam="1">  1       21 0.29363942E-01 0.45793821E+03</pdfrwt>
<pdfrwt beam="2">  1       21 0.38611937E-01 0.45793821E+03</pdfrwt>
<totfact> 0.66447256E+04</totfact>
</mgrwt>
</event>
<event>
 7    0  0.4784406E-002  0.4509295E+03  0.7546771E-02  0.1027445E+00
         21   -1    0    0  502  501  0.00000000000E+00  0.00000000000E+00  0.17445761226E+03  0.17445761226E+03  0.00000000000E+00 0.  1.
         21   -1    0    0  501  502 -0.00000000000E+00 -0.00000000000E+00 -0.29138516670E+03  0.29138516670E+03  0.00000000000E+00 0.  1.
      99926    2    1    2    0    0  0.00000000000E+00  0.00000000000E+00 -0.11692755444E+03  0.46584277896E+03  0.45092953077E+03 0.  0.
      99925    2    3    3    0    0  0.46569254178E+02 -0.42934140053E+02  0.18012230185E+02  0.27124501589E+03  0.26312997243E+03 0.  0.
         25    1    4    4    0    0  0.52795797295E+02 -0.36417580717E+01  0.31073171313E+02  0.13933308541E+03  0.12509000000E+03 0.  0.
         25    1    3    3    0    0 -0.46569254178E+02  0.42934140053E+02 -0.13493978463E+03  0.19459776307E+03  0.12509000000E+03 0.  0.
         25    1    4    4    0    0 -0.62265431168E+01 -0.39292381981E+02 -0.13060941127E+02  0.13191193048E+03  0.12509000000E+03 0.  0.
<mgrwt>
<rscale>  2 0.45092953E+03</rscale>
<asrwt>0</asrwt>
<pdfrwt beam="1">  1       21 0.25655531E-01 0.45092953E+03</pdfrwt>
<pdfrwt beam="2">  1       21 0.42850760E-01 0.45092953E+03</pdfrwt>
<totfact> 0.69978635E+04</totfact>
</mgrwt>
</event>
<event>
 7    0  0.4784406E-002  0.4521304E+03  0.7546771E-02  0.1027089E+00
         21   -1    0    0  502  501  0.00000000000E+00  0.00000000000E+00  0.92855808438E+02  0.92855808438E+02  0.00000000000E+00 0. -1.
         21   -1    0    0  501  502 -0.00000000000E+00 -0.00000000000E+00 -0.55037450386E+03  0.55037450386E+03  0.00000000000E+00 0. -1.
      99926    2    1    2    0    0 -0.17763568394E-14  0.00000000000E+00 -0.45751869542E+03  0.64323031230E+03  0.45213037721E+03 0.  0.
      99925    2    3    3    0    0 -0.75148656618E+01 -0.62913184975E+02 -0.16006838781E+03  0.31438576597E+03  0.26306269029E+03 0.  0.
         25    1    3    3    0    0  0.75148656618E+01  0.62913184975E+02 -0.29745030761E+03  0.32884454632E+03  0.12509000000E+03 0.  0.
         25    1    4    4    0    0 -0.20026733841E+02 -0.58944845607E+02 -0.53795076826E+02  0.14972302189E+03  0.12509000000E+03 0.  0.
         25    1    4    4    0    0  0.12511868179E+02 -0.39683393681E+01 -0.10627331098E+03  0.16466274409E+03  0.12509000000E+03 0.  0.
<mgrwt>
<rscale>  2 0.45213038E+03</rscale>
<asrwt>0</asrwt>
<pdfrwt beam="1">  1       21 0.13655266E-01 0.45213038E+03</pdfrwt>
<pdfrwt beam="2">  1       21 0.80937427E-01 0.45213038E+03</pdfrwt>
<totfact> 0.57381466E+04</totfact>
</mgrwt>
</event>
<event>
 7    0  0.4784406E-002  0.4486304E+03  0.7546771E-02  0.1028131E+00
         21   -1    0    0  502  501  0.00000000000E+00  0.00000000000E+00  0.19836733301E+04  0.19836733301E+04  0.00000000000E+00 0.  1.
         21   -1    0    0  501  502 -0.00000000000E+00 -0.00000000000E+00 -0.25365726298E+02  0.25365726298E+02  0.00000000000E+00 0.  1.
      99926    2    1    2    0    0  0.00000000000E+00 -0.71054273576E-14  0.19583076038E+04  0.20090390564E+04  0.44863042587E+03 0.  0.
      99925    2    3    3    0    0 -0.90706734931E+02  0.55628529733E+02  0.11849960592E+04  0.12184819755E+04  0.26298368610E+03 0.  0.
         25    1    3    3    0    0  0.90706734931E+02 -0.55628529733E+02  0.77331154462E+03  0.79055708094E+03  0.12509000000E+03 0.  0.
         25    1    4    4    0    0 -0.73107598920E+02  0.48717930652E+02  0.54116124138E+03  0.56233544709E+03  0.12509000000E+03 0.  0.
         25    1    4    4    0    0 -0.17599136011E+02  0.69105990817E+01  0.64383481781E+03  0.65614652837E+03  0.12509000000E+03 0.  0.
<mgrwt>
<rscale>  2 0.44863043E+03</rscale>
<asrwt>0</asrwt>
<pdfrwt beam="1">  1       21 0.29171656E+00 0.44863043E+03</pdfrwt>
<pdfrwt beam="2">  1       21 0.37302552E-02 0.44863043E+03</pdfrwt>
<totfact> 0.14254507E+04</totfact>
</mgrwt>
</event>
<event>
 7    0  0.4784406E-002  0.4516477E+03  0.7546771E-02  0.1027232E+00
         21   -1    0    0  502  501  0.00000000000E+00  0.00000000000E+00  0.61162083441E+03  0.61162083441E+03  0.00000000000E+00 0. -1.
         21   -1    0    0  501  502 -0.00000000000E+00 -0.00000000000E+00 -0.83379138672E+02  0.83379138672E+02  0.00000000000E+00 0. -1.
      99926    2    1    2    0    0  0.35527136788E-14  0.00000000000E+00  0.52824169574E+03  0.69499997309E+03  0.45164773161E+03 0.  0.
      99925    2    3    3    0    0 -0.29305290073E+02 -0.26892052965E+02  0.17558194037E+03  0.31870435299E+03  0.26298567317E+03 0.  0.
         25    1    3    3    0    0  0.29305290073E+02  0.26892052965E+02  0.35265975538E+03  0.37629562009E+03  0.12509000000E+03 0.  0.
         25    1    4    4    0    0  0.13313401840E+02  0.16110067408E+02  0.89658713255E+02  0.15531572330E+03  0.12509000000E+03 0.  0.
         25    1    4    4    0    0 -0.42618691913E+02 -0.43002120373E+02  0.85923227111E+02  0.16338862970E+03  0.12509000000E+03 0.  0.
<mgrwt>
<rscale>  2 0.45164773E+03</rscale>
<asrwt>0</asrwt>
<pdfrwt beam="1">  1       21 0.89944238E-01 0.45164773E+03</pdfrwt>
<pdfrwt beam="2">  1       21 0.12261638E-01 0.45164773E+03</pdfrwt>
<totfact> 0.54601769E+04</totfact>
</mgrwt>
</event>
<event>
 7    0  0.4784406E-002  0.4456141E+03  0.7546771E-02  0.1029038E+00
         21   -1    0    0  502  501  0.00000000000E+00  0.00000000000E+00  0.55622415440E+03  0.55622415440E+03  0.00000000000E+00 0. -1.
         21   -1    0    0  501  502 -0.00000000000E+00 -0.00000000000E+00 -0.89249970805E+02  0.89249970805E+02  0.00000000000E+00 0. -1.
      99926    2    1    2    0    0  0.00000000000E+00  0.00000000000E+00  0.46697418360E+03  0.64547412521E+03  0.44561413596E+03 0.  0.
      99925    2    3    3    0    0 -0.31666510984E+02 -0.45049049741E+02  0.16854876830E+03  0.31724033445E+03  0.26305998879E+03 0.  0.
         25    1    4    4    0    0  0.19015052055E+01 -0.21123036683E+02  0.12605053790E+03  0.17884642743E+03  0.12509000000E+03 0.  0.
         25    1    4    4    0    0 -0.33568016189E+02 -0.23926013058E+02  0.42498230401E+02  0.13839390702E+03  0.12509000000E+03 0.  0.
         25    1    3    3    0    0  0.31666510984E+02  0.45049049741E+02  0.29842541530E+03  0.32823379076E+03  0.12509000000E+03 0.  0.
<mgrwt>
<rscale>  2 0.44561414E+03</rscale>
<asrwt>0</asrwt>
<pdfrwt beam="1">  1       21 0.81797668E-01 0.44561414E+03</pdfrwt>
<pdfrwt beam="2">  1       21 0.13124996E-01 0.44561414E+03</pdfrwt>
<totfact> 0.60306104E+04</totfact>
</mgrwt>
</event>
<event>
 7    0  0.4784406E-002  0.4555454E+03  0.7546771E-02  0.1026081E+00
         21   -1    0    0  502  501  0.00000000000E+00  0.00000000000E+00  0.21550990115E+03  0.21550990115E+03  0.00000000000E+00 0.  1.
         21   -1    0    0  501  502 -0.00000000000E+00 -0.00000000000E+00 -0.24073327661E+03  0.24073327661E+03  0.00000000000E+00 0.  1.
      99926    2    1    2    0    0  0.71054273576E-14  0.00000000000E+00 -0.25223375457E+02  0.45624317776E+03  0.45554540782E+03 0.  0.
      99925    2    3    3    0    0 -0.59487086164E+02 -0.54004111625E+02  0.64635371194E+02  0.28252714528E+03  0.26303744813E+03 0.  0.
         25    1    4    4    0    0 -0.19904279441E+02 -0.21235872468E+02  0.71735428014E+02  0.14710751970E+03  0.12509000000E+03 0.  0.
         25    1    3    3    0    0  0.59487086164E+02  0.54004111625E+02 -0.89858746651E+02  0.17371603248E+03  0.12509000000E+03 0.  0.
         25    1    4    4    0    0 -0.39582806723E+02 -0.32768239156E+02 -0.71000568205E+01  0.13541962558E+03  0.12509000000E+03 0.  0.
<mgrwt>
<rscale>  2 0.45554541E+03</rscale>
<asrwt>0</asrwt>
<pdfrwt beam="1">  1       21 0.31692633E-01 0.45554541E+03</pdfrwt>
<pdfrwt beam="2">  1       21 0.35401952E-01 0.45554541E+03</pdfrwt>
<totfact> 0.68157759E+04</totfact>
</mgrwt>
</event>
<event>
 7    0  0.4784406E-002  0.4560304E+03  0.7546771E-02  0.1025939E+00
         21   -1    0    0  502  501  0.00000000000E+00  0.00000000000E+00  0.34611523494E+03  0.34611523494E+03  0.00000000000E+00 0. -1.
         21   -1    0    0  501  502 -0.00000000000E+00 -0.00000000000E+00 -0.15021276015E+03  0.15021276015E+03  0.00000000000E+00 0. -1.
      99926    2    1    2    0    0  0.00000000000E+00  0.00000000000E+00  0.19590247478E+03  0.49632799509E+03  0.45603037079E+03 0.  0.
      99925    2    3    3    0    0 -0.63162608361E+02 -0.79142319231E+02  0.65843269884E+02  0.28940789779E+03  0.26299918883E+03 0.  0.
         25    1    4    4    0    0 -0.62482216997E+02 -0.59500352329E+02  0.14077238596E+02  0.15261060289E+03  0.12509000000E+03 0.  0.
         25    1    3    3    0    0  0.63162608361E+02  0.79142319231E+02  0.13005920490E+03  0.20692009730E+03  0.12509000000E+03 0.  0.
         25    1    4    4    0    0 -0.68039136482E+00 -0.19641966902E+02  0.51766031288E+02  0.13679729490E+03  0.12509000000E+03 0.  0.
<mgrwt>
<rscale>  2 0.45603037E+03</rscale>
<asrwt>0</asrwt>
<pdfrwt beam="1">  1       21 0.50899299E-01 0.45603037E+03</pdfrwt>
<pdfrwt beam="2">  1       21 0.22090112E-01 0.45603037E+03</pdfrwt>
<totfact> 0.64996134E+04</totfact>
</mgrwt>
</event>
<event>
 7    0  0.4784406E-002  0.4207805E+03  0.7546771E-02  0.1036813E+00
         21   -1    0    0  502  501  0.00000000000E+00  0.00000000000E+00  0.12772043658E+03  0.12772043658E+03  0.00000000000E+00 0. -1.
         21   -1    0    0  501  502 -0.00000000000E+00 -0.00000000000E+00 -0.34656984128E+03  0.34656984128E+03  0.00000000000E+00 0. -1.
      99926    2    1    2    0    0 -0.22204460493E-15  0.00000000000E+00 -0.21884940471E+03  0.47429027786E+03  0.42078047214E+03 0.  0.
      99925    2    3    3    0    0 -0.64869173232E+00 -0.76056851310E+02 -0.15499833516E+03  0.31457323865E+03  0.26295774022E+03 0.  0.
         25    1    3    3    0    0  0.64869173232E+00  0.76056851310E+02 -0.63851069543E+02  0.15971703921E+03  0.12509000000E+03 0.  0.
         25    1    4    4    0    0 -0.61357381041E+01 -0.16567524925E+02 -0.11361021099E+03  0.16990267304E+03  0.12509000000E+03 0.  0.
         25    1    4    4    0    0  0.54870463718E+01 -0.59489326386E+02 -0.41388124171E+02  0.14467056561E+03  0.12509000000E+03 0.  0.
<mgrwt>
<rscale>  2 0.42078047E+03</rscale>
<asrwt>0</asrwt>
<pdfrwt beam="1">  1       21 0.18782417E-01 0.42078047E+03</pdfrwt>
<pdfrwt beam="2">  1       21 0.50966153E-01 0.42078047E+03</pdfrwt>
<totfact> 0.88928254E+04</totfact>
</mgrwt>
</event>
<event>
 7    0  0.4784406E-002  0.4545605E+03  0.7546771E-02  0.1026371E+00
         21   -1    0    0  502  501  0.00000000000E+00  0.00000000000E+00  0.30766994426E+03  0.30766994426E+03  0.00000000000E+00 0.  1.
         21   -1    0    0  501  502 -0.00000000000E+00 -0.00000000000E+00 -0.16789522961E+03  0.16789522961E+03  0.00000000000E+00 0.  1.
      99926    2    1    2    0    0 -0.17763568394E-14 -0.71054273576E-14  0.13977471465E+03  0.47556517388E+03  0.45456051715E+03 0.  0.
      99925    2    3    3    0    0 -0.12447200274E+02 -0.63130960967E+02  0.18485945885E+03  0.32784722207E+03  0.26300252938E+03 0.  0.
         25    1    4    4    0    0 -0.44763499484E+02 -0.22874796244E+02  0.81139369330E+02  0.15734717203E+03  0.12509000000E+03 0.  0.
         25    1    3    3    0    0  0.12447200274E+02  0.63130960967E+02 -0.45084744204E+02  0.14771795181E+03  0.12509000000E+03 0.  0.
         25    1    4    4    0    0  0.32316299209E+02 -0.40256164723E+02  0.10372008952E+03  0.17050005004E+03  0.12509000000E+03 0.  0.
<mgrwt>
<rscale>  2 0.45456052E+03</rscale>
<asrwt>0</asrwt>
<pdfrwt beam="1">  1       21 0.45245580E-01 0.45456052E+03</pdfrwt>
<pdfrwt beam="2">  1       21 0.24690475E-01 0.45456052E+03</pdfrwt>
<totfact> 0.67258645E+04</totfact>
</mgrwt>
</event>
<event>
 7    0  0.4784406E-002  0.4646489E+03  0.7546771E-02  0.1023441E+00
         21   -1    0    0  502  501  0.00000000000E+00  0.00000000000E+00  0.23153900862E+03  0.23153900862E+03  0.00000000000E+00 0. -1.
         21   -1    0    0  501  502 -0.00000000000E+00 -0.00000000000E+00 -0.23311256959E+03  0.23311256959E+03  0.00000000000E+00 0. -1.
      99926    2    1    2    0    0  0.88817841970E-15  0.00000000000E+00 -0.15735609725E+01  0.46465157821E+03  0.46464891374E+03 0.  0.
      99925    2    3    3    0    0 -0.66183829572E+01  0.34609298345E+02 -0.11915611840E+03  0.28939527323E+03  0.26136150652E+03 0.  0.
         25    1    4    4    0    0  0.83358920409E+01  0.52773067314E+02 -0.53384078103E+02  0.14612272795E+03  0.12509000000E+03 0.  0.
         25    1    3    3    0    0  0.66183829572E+01 -0.34609298345E+02  0.11758255743E+03  0.17525630498E+03  0.12509000000E+03 0.  0.
         25    1    4    4    0    0 -0.14954274998E+02 -0.18163768969E+02 -0.65772040299E+02  0.14327254527E+03  0.12509000000E+03 0.  0.
<mgrwt>
<rscale>  2 0.46464891E+03</rscale>
<asrwt>0</asrwt>
<pdfrwt beam="1">  1       21 0.34049854E-01 0.46464891E+03</pdfrwt>
<pdfrwt beam="2">  1       21 0.34281260E-01 0.46464891E+03</pdfrwt>
<totfact> 0.62863477E+04</totfact>
</mgrwt>
</event>
<event>
 7    0  0.4784406E-002  0.4673124E+03  0.7546771E-02  0.1022682E+00
         21   -1    0    0  502  501  0.00000000000E+00  0.00000000000E+00  0.42999494807E+03  0.42999494807E+03  0.00000000000E+00 0. -1.
         21   -1    0    0  501  502 -0.00000000000E+00 -0.00000000000E+00 -0.12696714396E+03  0.12696714396E+03  0.00000000000E+00 0. -1.
      99926    2    1    2    0    0  0.00000000000E+00  0.00000000000E+00  0.30302780411E+03  0.55696209203E+03  0.46731244569E+03 0.  0.
      99925    2    3    3    0    0 -0.92772392533E+02 -0.76966649017E+02  0.22545128305E+03  0.36670908523E+03  0.26290053306E+03 0.  0.
         25    1    4    4    0    0 -0.46884670864E+02 -0.49970230196E+02  0.65966018669E+02  0.15714394671E+03  0.12509000000E+03 0.  0.
         25    1    3    3    0    0  0.92772392533E+02  0.76966649017E+02  0.77576521064E+02  0.19025300680E+03  0.12509000000E+03 0.  0.
         25    1    4    4    0    0 -0.45887721669E+02 -0.26996418820E+02  0.15948526438E+03  0.20956513852E+03  0.12509000000E+03 0.  0.
<mgrwt>
<rscale>  2 0.46731245E+03</rscale>
<asrwt>0</asrwt>
<pdfrwt beam="1">  1       21 0.63234551E-01 0.46731245E+03</pdfrwt>
<pdfrwt beam="2">  1       21 0.18671639E-01 0.46731245E+03</pdfrwt>
<totfact> 0.55774492E+04</totfact>
</mgrwt>
</event>
<event>
 7    0  0.4784406E-002  0.4402488E+03  0.7546771E-02  0.1030670E+00
         21   -1    0    0  502  501  0.00000000000E+00  0.00000000000E+00  0.48213859015E+02  0.48213859015E+02  0.00000000000E+00 0.  1.
         21   -1    0    0  501  502 -0.00000000000E+00 -0.00000000000E+00 -0.10049965089E+04  0.10049965089E+04  0.00000000000E+00 0.  1.
      99926    2    1    2    0    0  0.00000000000E+00  0.00000000000E+00 -0.95678264988E+03  0.10532103679E+04  0.44024883868E+03 0.  0.
      99925    2    3    3    0    0 -0.87876865840E+02  0.30050946887E+02 -0.52577583722E+03  0.59490939298E+03  0.26239579246E+03 0.  0.
         25    1    3    3    0    0  0.87876865840E+02 -0.30050946887E+02 -0.43100681266E+03  0.45830097493E+03  0.12509000000E+03 0.  0.
         25    1    4    4    0    0 -0.64751303366E+02  0.39228897372E+01 -0.34188820867E+03  0.36978801452E+03  0.12509000000E+03 0.  0.
         25    1    4    4    0    0 -0.23125562474E+02  0.26128057150E+02 -0.18388762855E+03  0.22512137847E+03  0.12509000000E+03 0.  0.
<mgrwt>
<rscale>  2 0.44024884E+03</rscale>
<asrwt>0</asrwt>
<pdfrwt beam="1">  1       21 0.70902740E-02 0.44024884E+03</pdfrwt>
<pdfrwt beam="2">  1       21 0.14779359E+00 0.44024884E+03</pdfrwt>
<totfact> 0.41765039E+04</totfact>
</mgrwt>
</event>
<event>
 7    0  0.4784406E-002  0.4046809E+03  0.7546771E-02  0.1042171E+00
         21   -1    0    0  502  501  0.00000000000E+00  0.00000000000E+00  0.15925123568E+03  0.15925123568E+03  0.00000000000E+00 0.  1.
         21   -1    0    0  501  502 -0.00000000000E+00 -0.00000000000E+00 -0.25708852535E+03  0.25708852535E+03  0.00000000000E+00 0.  1.
      99926    2    1    2    0    0  0.00000000000E+00 -0.35527136788E-14 -0.97837289662E+02  0.41633976103E+03  0.40468093774E+03 0.  0.
      99925    2    3    3    0    0  0.47909847957E+02  0.11390175773E+02 -0.42046734678E+02  0.27078845131E+03  0.26293224951E+03 0.  0.
         25    1    4    4    0    0  0.28653975080E+02 -0.29543205587E+02 -0.13839145992E+01  0.13169386699E+03  0.12509000000E+03 0.  0.
         25    1    3    3    0    0 -0.47909847957E+02 -0.11390175773E+02 -0.55790554983E+02  0.14555130972E+03  0.12509000000E+03 0.  0.
         25    1    4    4    0    0  0.19255872877E+02  0.40933381360E+02 -0.40662820079E+02  0.13909458432E+03  0.12509000000E+03 0.  0.
<mgrwt>
<rscale>  2 0.40468094E+03</rscale>
<asrwt>0</asrwt>
<pdfrwt beam="1">  1       21 0.23419300E-01 0.40468094E+03</pdfrwt>
<pdfrwt beam="2">  1       21 0.37807136E-01 0.40468094E+03</pdfrwt>
<totfact> 0.10910130E+05</totfact>
</mgrwt>
</event>
<event>
 7    0  0.4784406E-002  0.4486908E+03  0.7546771E-02  0.1028113E+00
         21   -1    0    0  502  501  0.00000000000E+00  0.00000000000E+00  0.11930038403E+04  0.11930038403E+04  0.00000000000E+00 0.  1.
         21   -1    0    0  501  502 -0.00000000000E+00 -0.00000000000E+00 -0.42188344905E+02  0.42188344905E+02  0.00000000000E+00 0.  1.
      99926    2    1    2    0    0  0.00000000000E+00  0.17763568394E-14  0.11508154954E+04  0.12351921852E+04  0.44869079549E+03 0.  0.
      99925    2    3    3    0    0 -0.31207129419E+02 -0.63285578661E+01  0.10099511318E+04  0.10441314289E+04  0.26304983676E+03 0.  0.
         25    1    4    4    0    0 -0.48919953422E+02  0.17940197795E+02  0.47713278923E+03  0.49600223709E+03  0.12509000000E+03 0.  0.
         25    1    4    4    0    0  0.17712824003E+02 -0.24268755661E+02  0.53281834257E+03  0.54812919181E+03  0.12509000000E+03 0.  0.
         25    1    3    3    0    0  0.31207129419E+02  0.63285578661E+01  0.14086436362E+03  0.19106075633E+03  0.12509000000E+03 0.  0.
<mgrwt>
<rscale>  2 0.44869080E+03</rscale>
<asrwt>0</asrwt>
<pdfrwt beam="1">  1       21 0.17544172E+00 0.44869080E+03</pdfrwt>
<pdfrwt beam="2">  1       21 0.62041691E-02 0.44869080E+03</pdfrwt>
<totfact> 0.32630021E+04</totfact>
</mgrwt>
</event>
<event>
 7    0  0.4784406E-002  0.4534593E+03  0.7546771E-02  0.1026695E+00
         21   -1    0    0  502  501  0.00000000000E+00  0.00000000000E+00  0.68656426437E+02  0.68656426437E+02  0.00000000000E+00 0. -1.
         21   -1    0    0  501  502 -0.00000000000E+00 -0.00000000000E+00 -0.74874760602E+03  0.74874760602E+03  0.00000000000E+00 0. -1.
      99926    2    1    2    0    0  0.00000000000E+00  0.00000000000E+00 -0.68009117958E+03  0.81740403245E+03  0.45345930328E+03 0.  0.
      99925    2    3    3    0    0 -0.69551491317E+02 -0.81196636738E+02 -0.37020446424E+03  0.46653712292E+03  0.26301185897E+03 0.  0.
         25    1    4    4    0    0 -0.49873751395E+02 -0.74604432335E+02 -0.23715959872E+03  0.28274616844E+03  0.12509000000E+03 0.  0.
         25    1    4    4    0    0 -0.19677739922E+02 -0.65922044023E+01 -0.13304486552E+03  0.18379095448E+03  0.12509000000E+03 0.  0.
         25    1    3    3    0    0  0.69551491317E+02  0.81196636738E+02 -0.30988671534E+03  0.35086690953E+03  0.12509000000E+03 0.  0.
<mgrwt>
<rscale>  2 0.45345930E+03</rscale>
<asrwt>0</asrwt>
<pdfrwt beam="1">  1       21 0.10096534E-01 0.45345930E+03</pdfrwt>
<pdfrwt beam="2">  1       21 0.11010994E+00 0.45345930E+03</pdfrwt>
<totfact> 0.47506228E+04</totfact>
</mgrwt>
</event>
<event>
 7    0  0.4784406E-002  0.4541998E+03  0.7546771E-02  0.1026477E+00
         21   -1    0    0  502  501  0.00000000000E+00  0.00000000000E+00  0.18455023316E+04  0.18455023316E+04  0.00000000000E+00 0.  1.
         21   -1    0    0  501  502 -0.00000000000E+00 -0.00000000000E+00 -0.27945982476E+02  0.27945982476E+02  0.00000000000E+00 0.  1.
      99926    2    1    2    0    0  0.00000000000E+00  0.00000000000E+00  0.18175563491E+04  0.18734483141E+04  0.45419984948E+03 0.  0.
      99925    2    3    3    0    0  0.77670055534E+02  0.78085582573E+02  0.12367407696E+04  0.12691932013E+04  0.26304686928E+03 0.  0.
         25    1    4    4    0    0  0.26066661062E+02  0.36297843552E+02  0.42775970922E+03  0.44790945647E+03  0.12509000000E+03 0.  0.
         25    1    4    4    0    0  0.51603394472E+02  0.41787739021E+02  0.80898106037E+03  0.82128374487E+03  0.12509000000E+03 0.  0.
         25    1    3    3    0    0 -0.77670055534E+02 -0.78085582573E+02  0.58081557952E+03  0.60425511272E+03  0.12509000000E+03 0.  0.
<mgrwt>
<rscale>  2 0.45419985E+03</rscale>
<asrwt>0</asrwt>
<pdfrwt beam="1">  1       21 0.27139732E+00 0.45419985E+03</pdfrwt>
<pdfrwt beam="2">  1       21 0.41097045E-02 0.45419985E+03</pdfrwt>
<totfact> 0.15987078E+04</totfact>
</mgrwt>
</event>
<event>
 7    0  0.4784406E-002  0.4361688E+03  0.7546771E-02  0.1031929E+00
         21   -1    0    0  502  501  0.00000000000E+00  0.00000000000E+00  0.34615432208E+02  0.34615432208E+02  0.00000000000E+00 0.  1.
         21   -1    0    0  501  502 -0.00000000000E+00 -0.00000000000E+00 -0.13739769734E+04  0.13739769734E+04  0.00000000000E+00 0.  1.
      99926    2    1    2    0    0  0.00000000000E+00  0.71054273576E-14 -0.13393615412E+04  0.14085924056E+04  0.43616880575E+03 0.  0.
      99925    2    3    3    0    0  0.68832502798E+02  0.38057862563E+02 -0.10271028042E+04  0.10631371389E+04  0.26293362556E+03 0.  0.
         25    1    4    4    0    0  0.22045485320E+02  0.95326235478E+01 -0.35143163732E+03  0.37380286000E+03  0.12509000000E+03 0.  0.
         25    1    3    3    0    0 -0.68832502798E+02 -0.38057862563E+02 -0.31225873703E+03  0.34545526671E+03  0.12509000000E+03 0.  0.
         25    1    4    4    0    0  0.46787017479E+02  0.28525239015E+02 -0.67567116684E+03  0.68933427890E+03  0.12509000000E+03 0.  0.
<mgrwt>
<rscale>  2 0.43616881E+03</rscale>
<asrwt>0</asrwt>
<pdfrwt beam="1">  1       21 0.50905039E-02 0.43616881E+03</pdfrwt>
<pdfrwt beam="2">  1       21 0.20205547E+00 0.43616881E+03</pdfrwt>
<totfact> 0.30301565E+04</totfact>
</mgrwt>
</event>
<event>
 7    0  0.4784406E-002  0.4592201E+03  0.7546771E-02  0.1025008E+00
         21   -1    0    0  502  501  0.00000000000E+00  0.00000000000E+00  0.72425999304E+03  0.72425999304E+03  0.00000000000E+00 0. -1.
         21   -1    0    0  501  502 -0.00000000000E+00 -0.00000000000E+00 -0.72792601341E+02  0.72792601341E+02  0.00000000000E+00 0. -1.
      99926    2    1    2    0    0  0.00000000000E+00  0.00000000000E+00  0.65146739170E+03  0.79705259438E+03  0.45922007334E+03 0.  0.
      99925    2    3    3    0    0 -0.74770278462E+02  0.90069932969E+02  0.39806912377E+03  0.49117455062E+03  0.26285019404E+03 0.  0.
         25    1    3    3    0    0  0.74770278462E+02 -0.90069932969E+02  0.25339826793E+03  0.30587804376E+03  0.12509000000E+03 0.  0.
         25    1    4    4    0    0 -0.30182712913E+02  0.66563939265E+02  0.26323624188E+03  0.30047059974E+03  0.12509000000E+03 0.  0.
         25    1    4    4    0    0 -0.44587565549E+02  0.23505993704E+02  0.13483288189E+03  0.19070395088E+03  0.12509000000E+03 0.  0.
<mgrwt>
<rscale>  2 0.45922007E+03</rscale>
<asrwt>0</asrwt>
<pdfrwt beam="1">  1       21 0.10650882E+00 0.45922007E+03</pdfrwt>
<pdfrwt beam="2">  1       21 0.10704795E-01 0.45922007E+03</pdfrwt>
<totfact> 0.46353359E+04</totfact>
</mgrwt>
</event>
<event>
 7    0  0.4784406E-002  0.4516134E+03  0.7546771E-02  0.1027242E+00
         21   -1    0    0  502  501  0.00000000000E+00  0.00000000000E+00  0.15882622515E+03  0.15882622515E+03  0.00000000000E+00 0. -1.
         21   -1    0    0  501  502 -0.00000000000E+00 -0.00000000000E+00 -0.32103423294E+03  0.32103423294E+03  0.00000000000E+00 0. -1.
      99926    2    1    2    0    0  0.00000000000E+00  0.00000000000E+00 -0.16220800779E+03  0.47986045810E+03  0.45161335394E+03 0.  0.
      99925    2    3    3    0    0  0.44228288755E+02 -0.61322619896E+02 -0.17273773864E+02  0.27402060408E+03  0.26281610103E+03 0.  0.
         25    1    4    4    0    0  0.38566434031E+02  0.60762618281E+01 -0.13894358700E+02  0.13177576445E+03  0.12509000000E+03 0.  0.
         25    1    3    3    0    0 -0.44228288755E+02  0.61322619896E+02 -0.14493423393E+03  0.20583985402E+03  0.12509000000E+03 0.  0.
         25    1    4    4    0    0  0.56618547244E+01 -0.67398881724E+02 -0.33794151643E+01  0.14224483964E+03  0.12509000000E+03 0.  0.
<mgrwt>
<rscale>  2 0.45161335E+03</rscale>
<asrwt>0</asrwt>
<pdfrwt beam="1">  1       21 0.23356798E-01 0.45161335E+03</pdfrwt>
<pdfrwt beam="2">  1       21 0.47210915E-01 0.45161335E+03</pdfrwt>
<totfact> 0.68534193E+04</totfact>
</mgrwt>
</event>
<event>
 7    0  0.4784406E-002  0.4559050E+03  0.7546771E-02  0.1025976E+00
         21   -1    0    0  502  501  0.00000000000E+00  0.00000000000E+00  0.28195321845E+03  0.28195321845E+03  0.00000000000E+00 0.  1.
         21   -1    0    0  501  502 -0.00000000000E+00 -0.00000000000E+00 -0.18429421618E+03  0.18429421618E+03  0.00000000000E+00 0.  1.
      99926    2    1    2    0    0  0.00000000000E+00  0.00000000000E+00  0.97659002272E+02  0.46624743463E+03  0.45590502254E+03 0.  0.
      99925    2    3    3    0    0 -0.87469081399E+02 -0.40691357645E+02  0.12340392704E+03  0.30619451826E+03  0.26309680161E+03 0.  0.
         25    1    4    4    0    0 -0.38457478459E+02  0.13702007328E+02  0.83567714145E+02  0.15587749549E+03  0.12509000000E+03 0.  0.
         25    1    3    3    0    0  0.87469081399E+02  0.40691357645E+02 -0.25744924770E+02  0.16005291637E+03  0.12509000000E+03 0.  0.
         25    1    4    4    0    0 -0.49011602939E+02 -0.54393364972E+02  0.39836212897E+02  0.15031702277E+03  0.12509000000E+03 0.  0.
<mgrwt>
<rscale>  2 0.45590502E+03</rscale>
<asrwt>0</asrwt>
<pdfrwt beam="1">  1       21 0.41463709E-01 0.45590502E+03</pdfrwt>
<pdfrwt beam="2">  1       21 0.27102090E-01 0.45590502E+03</pdfrwt>
<totfact> 0.67232492E+04</totfact>
</mgrwt>
</event>
<event>
 7    0  0.4784406E-002  0.4554493E+03  0.7546771E-02  0.1026109E+00
         21   -1    0    0  502  501  0.00000000000E+00  0.00000000000E+00  0.41323772092E+02  0.41323772092E+02  0.00000000000E+00 0. -1.
         21   -1    0    0  501  502 -0.00000000000E+00 -0.00000000000E+00 -0.12549317149E+04  0.12549317149E+04  0.00000000000E+00 0. -1.
      99926    2    1    2    0    0 -0.14210854715E-13  0.00000000000E+00 -0.12136079428E+04  0.12962554870E+04  0.45544928226E+03 0.  0.
      99925    2    3    3    0    0 -0.10694929595E+03 -0.98675761089E+01 -0.65935407544E+03  0.71799916099E+03  0.26313395340E+03 0.  0.
         25    1    3    3    0    0  0.10694929595E+03  0.98675761089E+01 -0.55425386738E+03  0.57825632601E+03  0.12509000000E+03 0.  0.
         25    1    4    4    0    0 -0.75727078035E+02  0.77973768983E+01 -0.26551716899E+03  0.30321982878E+03  0.12509000000E+03 0.  0.
         25    1    4    4    0    0 -0.31222217912E+02 -0.17664953007E+02 -0.39383690644E+03  0.41477933221E+03  0.12509000000E+03 0.  0.
<mgrwt>
<rscale>  2 0.45544928E+03</rscale>
<asrwt>0</asrwt>
<pdfrwt beam="1">  1       21 0.60770246E-02 0.45544928E+03</pdfrwt>
<pdfrwt beam="2">  1       21 0.18454880E+00 0.45544928E+03</pdfrwt>
<totfact> 0.29121747E+04</totfact>
</mgrwt>
</event>
<event>
 7    0  0.4784406E-002  0.4561779E+03  0.7546771E-02  0.1025896E+00
         21   -1    0    0  502  501  0.00000000000E+00  0.00000000000E+00  0.11246692288E+04  0.11246692288E+04  0.00000000000E+00 0. -1.
         21   -1    0    0  501  502 -0.00000000000E+00 -0.00000000000E+00 -0.46257655317E+02  0.46257655317E+02  0.00000000000E+00 0. -1.
      99926    2    1    2    0    0  0.14210854715E-13  0.00000000000E+00  0.10784115735E+04  0.11709268842E+04  0.45617786678E+03 0.  0.
      99925    2    3    3    0    0  0.10342493277E+03  0.24390791747E+02  0.78640531307E+03  0.83595406185E+03  0.26285785068E+03 0.  0.
         25    1    3    3    0    0 -0.10342493277E+03 -0.24390791747E+02  0.29200626046E+03  0.33497282232E+03  0.12509000000E+03 0.  0.
         25    1    4    4    0    0  0.17710557574E+02  0.21991187728E+02  0.42756646785E+03  0.44638309636E+03  0.12509000000E+03 0.  0.
         25    1    4    4    0    0  0.85714375195E+02  0.23996040195E+01  0.35883884521E+03  0.38957096548E+03  0.12509000000E+03 0.  0.
<mgrwt>
<rscale>  2 0.45617787E+03</rscale>
<asrwt>0</asrwt>
<pdfrwt beam="1">  1       21 0.16539252E+00 0.45617787E+03</pdfrwt>
<pdfrwt beam="2">  1       21 0.68025971E-02 0.45617787E+03</pdfrwt>
<totfact> 0.32789322E+04</totfact>
</mgrwt>
</event>
<event>
 7    0  0.4784406E-002  0.4562178E+03  0.7546771E-02  0.1025884E+00
         21   -1    0    0  502  501  0.00000000000E+00  0.00000000000E+00  0.98428190211E+02  0.98428190211E+02  0.00000000000E+00 0. -1.
         21   -1    0    0  501  502 -0.00000000000E+00 -0.00000000000E+00 -0.52864598861E+03  0.52864598861E+03  0.00000000000E+00 0. -1.
      99926    2    1    2    0    0 -0.71054273576E-14  0.14210854715E-13 -0.43021779840E+03  0.62707417882E+03  0.45621778975E+03 0.  0.
      99925    2    3    3    0    0  0.46723547890E+02 -0.92989463151E+02 -0.33531026355E+03  0.43869934384E+03  0.26304754562E+03 0.  0.
         25    1    4    4    0    0  0.26640059121E+02 -0.88796595872E+02 -0.19674271651E+03  0.25089785329E+03  0.12509000000E+03 0.  0.
         25    1    3    3    0    0 -0.46723547890E+02  0.92989463151E+02 -0.94907534852E+02  0.18837483499E+03  0.12509000000E+03 0.  0.
         25    1    4    4    0    0  0.20083488770E+02 -0.41928672792E+01 -0.13856754705E+03  0.18780149055E+03  0.12509000000E+03 0.  0.
<mgrwt>
<rscale>  2 0.45621779E+03</rscale>
<asrwt>0</asrwt>
<pdfrwt beam="1">  1       21 0.14474734E-01 0.45621779E+03</pdfrwt>
<pdfrwt beam="2">  1       21 0.77742056E-01 0.45621779E+03</pdfrwt>
<totfact> 0.56496837E+04</totfact>
</mgrwt>
</event>
<event>
 7    0  0.4784406E-002  0.4600269E+03  0.7546771E-02  0.1024773E+00
         21   -1    0    0  502  501  0.00000000000E+00  0.00000000000E+00  0.14037098025E+04  0.14037098025E+04  0.00000000000E+00 0.  1.
         21   -1    0    0  501  502 -0.00000000000E+00 -0.00000000000E+00 -0.37690262403E+02  0.37690262403E+02  0.00000000000E+00 0.  1.
      99926    2    1    2    0    0  0.00000000000E+00  0.00000000000E+00  0.13660195401E+04  0.14414000649E+04  0.46002691571E+03 0.  0.
      99925    2    3    3    0    0 -0.41766980274E+02 -0.67180244573E+02  0.11294412904E+04  0.11623401391E+04  0.26294353846E+03 0.  0.
         25    1    4    4    0    0  0.17908571546E+02 -0.21849964333E+02  0.49280900834E+03  0.50922133172E+03  0.12509000000E+03 0.  0.
         25    1    3    3    0    0  0.41766980274E+02  0.67180244573E+02  0.23657824968E+03  0.27905992587E+03  0.12509000000E+03 0.  0.
         25    1    4    4    0    0 -0.59675551821E+02 -0.45330280241E+02  0.63663228211E+03  0.65311880735E+03  0.12509000000E+03 0.  0.
<mgrwt>
<rscale>  2 0.46002692E+03</rscale>
<asrwt>0</asrwt>
<pdfrwt beam="1">  1       21 0.20642788E+00 0.46002692E+03</pdfrwt>
<pdfrwt beam="2">  1       21 0.55426866E-02 0.46002692E+03</pdfrwt>
<totfact> 0.24286829E+04</totfact>
</mgrwt>
</event>
<event>
 7    0  0.4784406E-002  0.4568798E+03  0.7546771E-02  0.1025690E+00
         21   -1    0    0  502  501  0.00000000000E+00  0.00000000000E+00  0.88045402843E+03  0.88045402843E+03  0.00000000000E+00 0. -1.
         21   -1    0    0  501  502 -0.00000000000E+00 -0.00000000000E+00 -0.59270324198E+02  0.59270324198E+02  0.00000000000E+00 0. -1.
      99926    2    1    2    0    0 -0.14210854715E-13 -0.88817841970E-15  0.82118370423E+03  0.93972435263E+03  0.45687983412E+03 0.  0.
      99925    2    3    3    0    0  0.11446890988E+03  0.20134711643E+01  0.53795883303E+03  0.60961676235E+03  0.26291767818E+03 0.  0.
         25    1    4    4    0    0  0.90613565424E+02  0.87998611658E+01  0.24038086886E+03  0.28586487369E+03  0.12509000000E+03 0.  0.
         25    1    4    4    0    0  0.23855344456E+02 -0.67863900015E+01  0.29757796417E+03  0.32375188865E+03  0.12509000000E+03 0.  0.
         25    1    3    3    0    0 -0.11446890988E+03 -0.20134711643E+01  0.28322487120E+03  0.33010759028E+03  0.12509000000E+03 0.  0.
<mgrwt>
<rscale>  2 0.45687983E+03</rscale>
<asrwt>0</asrwt>
<pdfrwt beam="1">  1       21 0.12947853E+00 0.45687983E+03</pdfrwt>
<pdfrwt beam="2">  1       21 0.87162247E-02 0.45687983E+03</pdfrwt>
<totfact> 0.40954300E+04</totfact>
</mgrwt>
</event>
<event>
 7    0  0.4784406E-002  0.4511952E+03  0.7546771E-02  0.1027366E+00
         21   -1    0    0  502  501  0.00000000000E+00  0.00000000000E+00  0.10532733504E+03  0.10532733504E+03  0.00000000000E+00 0.  1.
         21   -1    0    0  501  502 -0.00000000000E+00 -0.00000000000E+00 -0.48320106724E+03  0.48320106724E+03  0.00000000000E+00 0.  1.
      99926    2    1    2    0    0  0.35527136788E-14  0.14210854715E-13 -0.37787373220E+03  0.58852840228E+03  0.45119521585E+03 0.  0.
      99925    2    3    3    0    0 -0.19958064063E+02  0.10776766315E+03 -0.23896905917E+03  0.37183920128E+03  0.26295624507E+03 0.  0.
         25    1    3    3    0    0  0.19958064063E+02 -0.10776766315E+03 -0.13890467303E+03  0.21668920101E+03  0.12509000000E+03 0.  0.
         25    1    4    4    0    0  0.25185568506E+02  0.74622075344E+02 -0.12249615447E+03  0.19197807935E+03  0.12509000000E+03 0.  0.
         25    1    4    4    0    0 -0.45143632570E+02  0.33145587811E+02 -0.11647290470E+03  0.17986112193E+03  0.12509000000E+03 0.  0.
<mgrwt>
<rscale>  2 0.45119522E+03</rscale>
<asrwt>0</asrwt>
<pdfrwt beam="1">  1       21 0.15489314E-01 0.45119522E+03</pdfrwt>
<pdfrwt beam="2">  1       21 0.71058979E-01 0.45119522E+03</pdfrwt>
<totfact> 0.61210031E+04</totfact>
</mgrwt>
</event>
<event>
 7    0  0.4784406E-002  0.4599328E+03  0.7546771E-02  0.1024801E+00
         21   -1    0    0  502  501  0.00000000000E+00  0.00000000000E+00  0.33926537419E+03  0.33926537419E+03  0.00000000000E+00 0.  1.
         21   -1    0    0  501  502 -0.00000000000E+00 -0.00000000000E+00 -0.15587958744E+03  0.15587958744E+03  0.00000000000E+00 0.  1.
      99926    2    1    2    0    0  0.00000000000E+00  0.00000000000E+00  0.18338578675E+03  0.49514496163E+03  0.45993280623E+03 0.  0.
      99925    2    3    3    0    0 -0.10541036317E+02 -0.48908838079E+02  0.22959477989E+03  0.35271614771E+03  0.26304320940E+03 0.  0.
         25    1    4    4    0    0  0.18822925325E+01 -0.32074197914E+02  0.64014395851E+02  0.14414453917E+03  0.12509000000E+03 0.  0.
         25    1    4    4    0    0 -0.12423328850E+02 -0.16834640166E+02  0.16558038404E+03  0.20857160854E+03  0.12509000000E+03 0.  0.
         25    1    3    3    0    0  0.10541036317E+02  0.48908838079E+02 -0.46208993139E+02  0.14242881392E+03  0.12509000000E+03 0.  0.
<mgrwt>
<rscale>  2 0.45993281E+03</rscale>
<asrwt>0</asrwt>
<pdfrwt beam="1">  1       21 0.49891967E-01 0.45993281E+03</pdfrwt>
<pdfrwt beam="2">  1       21 0.22923469E-01 0.45993281E+03</pdfrwt>
<totfact> 0.63105465E+04</totfact>
</mgrwt>
</event>
<event>
 7    0  0.4784406E-002  0.4504805E+03  0.7546771E-02  0.1027579E+00
         21   -1    0    0  502  501  0.00000000000E+00  0.00000000000E+00  0.18319792275E+02  0.18319792275E+02  0.00000000000E+00 0. -1.
         21   -1    0    0  501  502 -0.00000000000E+00 -0.00000000000E+00 -0.27693094513E+04  0.27693094513E+04  0.00000000000E+00 0. -1.
      99926    2    1    2    0    0  0.00000000000E+00  0.00000000000E+00 -0.27509896590E+04  0.27876292436E+04  0.45048051630E+03 0.  0.
      99925    2    3    3    0    0 -0.79187924686E+02 -0.39895291178E+02 -0.13500280616E+04  0.13783020043E+04  0.26320768681E+03 0.  0.
         25    1    4    4    0    0 -0.31631027370E+02  0.12947461748E+02 -0.52196186195E+03  0.53782883159E+03  0.12509000000E+03 0.  0.
         25    1    3    3    0    0  0.79187924686E+02  0.39895291178E+02 -0.14009615974E+04  0.14093272392E+04  0.12509000000E+03 0.  0.
         25    1    4    4    0    0 -0.47556897316E+02 -0.52842752926E+02 -0.82806619961E+03  0.84047317271E+03  0.12509000000E+03 0.  0.
<mgrwt>
<rscale>  2 0.45048052E+03</rscale>
<asrwt>0</asrwt>
<pdfrwt beam="1">  1       21 0.26940891E-02 0.45048052E+03</pdfrwt>
<pdfrwt beam="2">  1       21 0.40725109E+00 0.45048052E+03</pdfrwt>
<totfact> 0.47798585E+03</totfact>
</mgrwt>
</event>
<event>
 7    0  0.4784406E-002  0.4578295E+03  0.7546771E-02  0.1025413E+00
         21   -1    0    0  502  501  0.00000000000E+00  0.00000000000E+00  0.47134416345E+03  0.47134416345E+03  0.00000000000E+00 0.  1.
         21   -1    0    0  501  502 -0.00000000000E+00 -0.00000000000E+00 -0.11117557267E+03  0.11117557267E+03  0.00000000000E+00 0.  1.
      99926    2    1    2    0    0  0.00000000000E+00  0.00000000000E+00  0.36016859077E+03  0.58251973612E+03  0.45782947610E+03 0.  0.
      99925    2    3    3    0    0  0.84815543317E+02  0.74793388710E+02  0.19384299667E+03  0.34566653531E+03  0.26291161802E+03 0.  0.
         25    1    4    4    0    0  0.47975788182E+02  0.55959408363E+01  0.61970593235E+02  0.14771883201E+03  0.12509000000E+03 0.  0.
         25    1    3    3    0    0 -0.84815543317E+02 -0.74793388710E+02  0.16632559410E+03  0.23685320081E+03  0.12509000000E+03 0.  0.
         25    1    4    4    0    0  0.36839755135E+02  0.69197447874E+02  0.13187240344E+03  0.19794770329E+03  0.12509000000E+03 0.  0.
<mgrwt>
<rscale>  2 0.45782948E+03</rscale>
<asrwt>0</asrwt>
<pdfrwt beam="1">  1       21 0.69315318E-01 0.45782948E+03</pdfrwt>
<pdfrwt beam="2">  1       21 0.16349349E-01 0.45782948E+03</pdfrwt>
<totfact> 0.58448952E+04</totfact>
</mgrwt>
</event>
<event>
 7    0  0.4784406E-002  0.4565578E+03  0.7546771E-02  0.1025784E+00
         21   -1    0    0  502  501  0.00000000000E+00  0.00000000000E+00  0.83796662601E+02  0.83796662601E+02  0.00000000000E+00 0.  1.
         21   -1    0    0  501  502 -0.00000000000E+00 -0.00000000000E+00 -0.62187744681E+03  0.62187744681E+03  0.00000000000E+00 0.  1.
      99926    2    1    2    0    0  0.00000000000E+00  0.00000000000E+00 -0.53808078421E+03  0.70567410942E+03  0.45655779301E+03 0.  0.
      99925    2    3    3    0    0 -0.85061445169E+01 -0.11428070815E+03 -0.33416963868E+03  0.44042008377E+03  0.26299822817E+03 0.  0.
         25    1    4    4    0    0 -0.10563842993E+02 -0.25758883064E+02 -0.19538326361E+03  0.23366052862E+03  0.12509000000E+03 0.  0.
         25    1    3    3    0    0  0.85061445169E+01  0.11428070815E+03 -0.20391114553E+03  0.26525402565E+03  0.12509000000E+03 0.  0.
         25    1    4    4    0    0  0.20576984763E+01 -0.88521825089E+02 -0.13878637507E+03  0.20675955515E+03  0.12509000000E+03 0.  0.
<mgrwt>
<rscale>  2 0.45655779E+03</rscale>
<asrwt>0</asrwt>
<pdfrwt beam="1">  1       21 0.12323039E-01 0.45655779E+03</pdfrwt>
<pdfrwt beam="2">  1       21 0.91452564E-01 0.45655779E+03</pdfrwt>
<totfact> 0.51956174E+04</totfact>
</mgrwt>
</event>
<event>
 7    0  0.4784406E-002  0.4400279E+03  0.7546771E-02  0.1030738E+00
         21   -1    0    0  502  501  0.00000000000E+00  0.00000000000E+00  0.92755711691E+02  0.92755711691E+02  0.00000000000E+00 0. -1.
         21   -1    0    0  501  502 -0.00000000000E+00 -0.00000000000E+00 -0.52186689728E+03  0.52186689728E+03  0.00000000000E+00 0. -1.
      99926    2    1    2    0    0  0.00000000000E+00  0.14210854715E-13 -0.42911118559E+03  0.61462260897E+03  0.44002788759E+03 0.  0.
      99925    2    3    3    0    0  0.39586541076E+02  0.87914648621E+02 -0.30178843982E+03  0.41175647240E+03  0.26300389822E+03 0.  0.
         25    1    3    3    0    0 -0.39586541076E+02 -0.87914648621E+02 -0.12732274577E+03  0.20286613657E+03  0.12509000000E+03 0.  0.
         25    1    4    4    0    0  0.13143458373E+02  0.79908328292E+02 -0.13207328626E+03  0.19912044715E+03  0.12509000000E+03 0.  0.
         25    1    4    4    0    0  0.26443082703E+02  0.80063203293E+01 -0.16971515356E+03  0.21263602525E+03  0.12509000000E+03 0.  0.
<mgrwt>
<rscale>  2 0.44002789E+03</rscale>
<asrwt>0</asrwt>
<pdfrwt beam="1">  1       21 0.13640546E-01 0.44002789E+03</pdfrwt>
<pdfrwt beam="2">  1       21 0.76745134E-01 0.44002789E+03</pdfrwt>
<totfact> 0.65155894E+04</totfact>
</mgrwt>
</event>
<event>
 7    0  0.4784406E-002  0.4555556E+03  0.7546771E-02  0.1026078E+00
         21   -1    0    0  502  501  0.00000000000E+00  0.00000000000E+00  0.67945669042E+02  0.67945669042E+02  0.00000000000E+00 0. -1.
         21   -1    0    0  501  502 -0.00000000000E+00 -0.00000000000E+00 -0.76359140845E+03  0.76359140845E+03  0.00000000000E+00 0. -1.
      99926    2    1    2    0    0  0.35527136788E-14  0.00000000000E+00 -0.69564573941E+03  0.83153707749E+03  0.45555561295E+03 0.  0.
      99925    2    3    3    0    0  0.36444016865E+01 -0.83672236686E+02 -0.57771422824E+03  0.64030508675E+03  0.26310178592E+03 0.  0.
         25    1    4    4    0    0  0.19982797645E+02 -0.75535071495E+02 -0.27042930865E+03  0.30803307988E+03  0.12509000000E+03 0.  0.
         25    1    3    3    0    0 -0.36444016865E+01  0.83672236686E+02 -0.11793151117E+03  0.19123199074E+03  0.12509000000E+03 0.  0.
         25    1    4    4    0    0 -0.16338395958E+02 -0.81371651908E+01 -0.30728491959E+03  0.33227200687E+03  0.12509000000E+03 0.  0.
<mgrwt>
<rscale>  2 0.45555561E+03</rscale>
<asrwt>0</asrwt>
<pdfrwt beam="1">  1       21 0.99920101E-02 0.45555561E+03</pdfrwt>
<pdfrwt beam="2">  1       21 0.11229286E+00 0.45555561E+03</pdfrwt>
<totfact> 0.46075733E+04</totfact>
</mgrwt>
</event>
<event>
 7    0  0.4784406E-002  0.4559790E+03  0.7546771E-02  0.1025954E+00
         21   -1    0    0  502  501  0.00000000000E+00  0.00000000000E+00  0.62699225754E+02  0.62699225754E+02  0.00000000000E+00 0. -1.
         21   -1    0    0  501  502 -0.00000000000E+00 -0.00000000000E+00 -0.82902470408E+03  0.82902470408E+03  0.00000000000E+00 0. -1.
      99926    2    1    2    0    0 -0.14210854715E-13  0.00000000000E+00 -0.76632547833E+03  0.89172392984E+03  0.45597897792E+03 0.  0.
      99925    2    3    3    0    0  0.10490455535E+03 -0.36303880548E+02 -0.53471199484E+03  0.60604009881E+03  0.26276367036E+03 0.  0.
         25    1    4    4    0    0  0.16795634317E+02 -0.35247063127E+02 -0.27452746811E+03  0.30419942084E+03  0.12509000000E+03 0.  0.
         25    1    4    4    0    0  0.88108921035E+02 -0.10568174206E+01 -0.26018452673E+03  0.30184067797E+03  0.12509000000E+03 0.  0.
         25    1    3    3    0    0 -0.10490455535E+03  0.36303880548E+02 -0.23161348349E+03  0.28568383103E+03  0.12509000000E+03 0.  0.
<mgrwt>
<rscale>  2 0.45597898E+03</rscale>
<asrwt>0</asrwt>
<pdfrwt beam="1">  1       21 0.92204746E-02 0.45597898E+03</pdfrwt>
<pdfrwt beam="2">  1       21 0.12191540E+00 0.45597898E+03</pdfrwt>
<totfact> 0.43260865E+04</totfact>
</mgrwt>
</event>
<event>
 7    0  0.4784406E-002  0.4515034E+03  0.7546771E-02  0.1027275E+00
         21   -1    0    0  502  501  0.00000000000E+00  0.00000000000E+00  0.40129144256E+03  0.40129144256E+03  0.00000000000E+00 0. -1.
         21   -1    0    0  501  502 -0.00000000000E+00 -0.00000000000E+00 -0.12699953568E+03  0.12699953568E+03  0.00000000000E+00 0. -1.
      99926    2    1    2    0    0 -0.14210854715E-13  0.71054273576E-14  0.27429190687E+03  0.52829097824E+03  0.45150338594E+03 0.  0.
      99925    2    3    3    0    0  0.75774066870E+02 -0.54400714946E+02  0.10519308329E+03  0.29819737287E+03  0.26297327130E+03 0.  0.
         25    1    4    4    0    0  0.62948901887E+02 -0.56526039142E+02  0.38502276753E+02  0.15584508579E+03  0.12509000000E+03 0.  0.
         25    1    4    4    0    0  0.12825164983E+02  0.21253241962E+01  0.66690806535E+02  0.14235228708E+03  0.12509000000E+03 0.  0.
         25    1    3    3    0    0 -0.75774066870E+02  0.54400714946E+02  0.16909882359E+03  0.23009360538E+03  0.12509000000E+03 0.  0.
<mgrwt>
<rscale>  2 0.45150339E+03</rscale>
<asrwt>0</asrwt>
<pdfrwt beam="1">  1       21 0.59013447E-01 0.45150339E+03</pdfrwt>
<pdfrwt beam="2">  1       21 0.18676402E-01 0.45150339E+03</pdfrwt>
<totfact> 0.65107811E+04</totfact>
</mgrwt>
</event>
<event>
 7    0  0.4784406E-002  0.4614542E+03  0.7546771E-02  0.1024360E+00
         21   -1    0    0  502  501  0.00000000000E+00  0.00000000000E+00  0.16724961445E+03  0.16724961445E+03  0.00000000000E+00 0.  1.
         21   -1    0    0  501  502 -0.00000000000E+00 -0.00000000000E+00 -0.31829662976E+03  0.31829662976E+03  0.00000000000E+00 0.  1.
      99926    2    1    2    0    0  0.14210854715E-13  0.00000000000E+00 -0.15104701531E+03  0.48554624421E+03  0.46145417371E+03 0.  0.
      99925    2    3    3    0    0  0.79731644611E+02 -0.25183893901E+02 -0.18381298018E+03  0.33155767250E+03  0.26296751671E+03 0.  0.
         25    1    4    4    0    0  0.51315737409E+02 -0.46557725605E+02 -0.72241640857E+02  0.16021014167E+03  0.12509000000E+03 0.  0.
         25    1    3    3    0    0 -0.79731644611E+02  0.25183893901E+02  0.32765964876E+02  0.15398857171E+03  0.12509000000E+03 0.  0.
         25    1    4    4    0    0  0.28415907202E+02  0.21373831704E+02 -0.11157133932E+03  0.17134753083E+03  0.12509000000E+03 0.  0.
<mgrwt>
<rscale>  2 0.46145417E+03</rscale>
<asrwt>0</asrwt>
<pdfrwt beam="1">  1       21 0.24595532E-01 0.46145417E+03</pdfrwt>
<pdfrwt beam="2">  1       21 0.46808327E-01 0.46145417E+03</pdfrwt>
<totfact> 0.63008100E+04</totfact>
</mgrwt>
</event>
<event>
 7    0  0.4784406E-002  0.4353779E+03  0.7546771E-02  0.1032174E+00
         21   -1    0    0  502  501  0.00000000000E+00  0.00000000000E+00  0.42700019783E+03  0.42700019783E+03  0.00000000000E+00 0. -1.
         21   -1    0    0  501  502 -0.00000000000E+00 -0.00000000000E+00 -0.11097997642E+03  0.11097997642E+03  0.00000000000E+00 0. -1.
      99926    2    1    2    0    0 -0.11102230246E-14 -0.14210854715E-13  0.31602022141E+03  0.53798017424E+03  0.43537786753E+03 0.  0.
      99925    2    3    3    0    0  0.16921688388E+01 -0.84538702002E+02  0.15367735886E+03  0.31627683937E+03  0.26318178684E+03 0.  0.
         25    1    4    4    0    0  0.12546489106E+02 -0.78871770737E+02  0.62668760936E+02  0.16109951057E+03  0.12509000000E+03 0.  0.
         25    1    4    4    0    0 -0.10854320267E+02 -0.56669312651E+01  0.91008597927E+02  0.15517732881E+03  0.12509000000E+03 0.  0.
         25    1    3    3    0    0 -0.16921688388E+01  0.84538702002E+02  0.16234286255E+03  0.22170333487E+03  0.12509000000E+03 0.  0.
<mgrwt>
<rscale>  2 0.43537787E+03</rscale>
<asrwt>0</asrwt>
<pdfrwt beam="1">  1       21 0.62794146E-01 0.43537787E+03</pdfrwt>
<pdfrwt beam="2">  1       21 0.16320585E-01 0.43537787E+03</pdfrwt>
<totfact> 0.73422730E+04</totfact>
</mgrwt>
</event>
<event>
 7    0  0.4784406E-002  0.4525936E+03  0.7546771E-02  0.1026951E+00
         21   -1    0    0  502  501  0.00000000000E+00  0.00000000000E+00  0.61421612181E+02  0.61421612181E+02  0.00000000000E+00 0. -1.
         21   -1    0    0  501  502 -0.00000000000E+00 -0.00000000000E+00 -0.83374943930E+03  0.83374943930E+03  0.00000000000E+00 0. -1.
      99926    2    1    2    0    0  0.00000000000E+00  0.00000000000E+00 -0.77232782712E+03  0.89517105149E+03  0.45259356919E+03 0.  0.
      99925    2    3    3    0    0 -0.29030677286E+02  0.10503610624E+03 -0.44616682178E+03  0.52924226970E+03  0.26297753390E+03 0.  0.
         25    1    3    3    0    0  0.29030677286E+02 -0.10503610624E+03 -0.32616100534E+03  0.36592878179E+03  0.12509000000E+03 0.  0.
         25    1    4    4    0    0  0.10929782736E+02  0.40198552727E+02 -0.26746711796E+03  0.29819716813E+03  0.12509000000E+03 0.  0.
         25    1    4    4    0    0 -0.39960460022E+02  0.64837553512E+02 -0.17869970382E+03  0.23104510157E+03  0.12509000000E+03 0.  0.
<mgrwt>
<rscale>  2 0.45259357E+03</rscale>
<asrwt>0</asrwt>
<pdfrwt beam="1">  1       21 0.90325901E-02 0.45259357E+03</pdfrwt>
<pdfrwt beam="2">  1       21 0.12261021E+00 0.45259357E+03</pdfrwt>
<totfact> 0.44271430E+04</totfact>
</mgrwt>
</event>
<event>
 7    0  0.4784406E-002  0.4554294E+03  0.7546771E-02  0.1026115E+00
         21   -1    0    0  502  501  0.00000000000E+00  0.00000000000E+00  0.31644765812E+03  0.31644765812E+03  0.00000000000E+00 0. -1.
         21   -1    0    0  501  502 -0.00000000000E+00 -0.00000000000E+00 -0.16386276776E+03  0.16386276776E+03  0.00000000000E+00 0. -1.
      99926    2    1    2    0    0  0.00000000000E+00  0.00000000000E+00  0.15258489036E+03  0.48031042587E+03  0.45542941982E+03 0.  0.
      99925    2    3    3    0    0  0.17054086003E+02  0.80594293404E+02  0.17853517224E+03  0.32829987621E+03  0.26290629322E+03 0.  0.
         25    1    4    4    0    0 -0.11376925189E+02  0.75604395944E+02  0.10530086300E+03  0.18050273949E+03  0.12509000000E+03 0.  0.
         25    1    3    3    0    0 -0.17054086003E+02 -0.80594293404E+02 -0.25950281882E+02  0.15201054966E+03  0.12509000000E+03 0.  0.
         25    1    4    4    0    0  0.28431011192E+02  0.49898974603E+01  0.73234309239E+02  0.14779713672E+03  0.12509000000E+03 0.  0.
<mgrwt>
<rscale>  2 0.45542942E+03</rscale>
<asrwt>0</asrwt>
<pdfrwt beam="1">  1       21 0.46536420E-01 0.45542942E+03</pdfrwt>
<pdfrwt beam="2">  1       21 0.24097466E-01 0.45542942E+03</pdfrwt>
<totfact> 0.66450721E+04</totfact>
</mgrwt>
</event>
<event>
 7    0  0.4784406E-002  0.4524542E+03  0.7546771E-02  0.1026993E+00
         21   -1    0    0  502  501  0.00000000000E+00  0.00000000000E+00  0.10672355749E+04  0.10672355749E+04  0.00000000000E+00 0.  1.
         21   -1    0    0  501  502 -0.00000000000E+00 -0.00000000000E+00 -0.47954461752E+02  0.47954461752E+02  0.00000000000E+00 0.  1.
      99926    2    1    2    0    0  0.71054273576E-14  0.00000000000E+00  0.10192811131E+04  0.11151900366E+04  0.45245422998E+03 0.  0.
      99925    2    3    3    0    0  0.41557739170E+02 -0.52529247957E+02  0.86020272649E+03  0.90202388366E+03  0.26308171442E+03 0.  0.
         25    1    4    4    0    0  0.17678678114E+02 -0.23938603901E+02  0.29255874345E+03  0.31956801919E+03  0.12509000000E+03 0.  0.
         25    1    3    3    0    0 -0.41557739170E+02  0.52529247957E+02  0.15907838664E+03  0.21316615297E+03  0.12509000000E+03 0.  0.
         25    1    4    4    0    0  0.23879061056E+02 -0.28590644056E+02  0.56764398303E+03  0.58245586447E+03  0.12509000000E+03 0.  0.
<mgrwt>
<rscale>  2 0.45245423E+03</rscale>
<asrwt>0</asrwt>
<pdfrwt beam="1">  1       21 0.15694639E+00 0.45245423E+03</pdfrwt>
<pdfrwt beam="2">  1       21 0.70521274E-02 0.45245423E+03</pdfrwt>
<totfact> 0.35668763E+04</totfact>
</mgrwt>
</event>
<event>
 7    0  0.4784406E-002  0.4519190E+03  0.7546771E-02  0.1027151E+00
         21   -1    0    0  502  501  0.00000000000E+00  0.00000000000E+00  0.63412659559E+03  0.63412659559E+03  0.00000000000E+00 0. -1.
         21   -1    0    0  501  502 -0.00000000000E+00 -0.00000000000E+00 -0.80516560213E+02  0.80516560213E+02  0.00000000000E+00 0. -1.
      99926    2    1    2    0    0  0.14210854715E-13  0.71054273576E-14  0.55361003538E+03  0.71464315580E+03  0.45191898485E+03 0.  0.
      99925    2    3    3    0    0  0.87090581309E+02  0.60192604632E+02  0.30064974804E+03  0.41323921742E+03  0.26299897492E+03 0.  0.
         25    1    3    3    0    0 -0.87090581309E+02 -0.60192604632E+02  0.25296028734E+03  0.30140393839E+03  0.12509000000E+03 0.  0.
         25    1    4    4    0    0  0.32057331496E+02 -0.45791604191E+01  0.10858992948E+03  0.16878365471E+03  0.12509000000E+03 0.  0.
         25    1    4    4    0    0  0.55033249813E+02  0.64771765051E+02  0.19205981856E+03  0.24445556271E+03  0.12509000000E+03 0.  0.
<mgrwt>
<rscale>  2 0.45191898E+03</rscale>
<asrwt>0</asrwt>
<pdfrwt beam="1">  1       21 0.93253908E-01 0.45191898E+03</pdfrwt>
<pdfrwt beam="2">  1       21 0.11840671E-01 0.45191898E+03</pdfrwt>
<totfact> 0.53397648E+04</totfact>
</mgrwt>
</event>
<event>
 7    0  0.4784406E-002  0.4548637E+03  0.7546771E-02  0.1026281E+00
         21   -1    0    0  502  501  0.00000000000E+00  0.00000000000E+00  0.32539734781E+02  0.32539734781E+02  0.00000000000E+00 0. -1.
         21   -1    0    0  501  502 -0.00000000000E+00 -0.00000000000E+00 -0.15896024969E+04  0.15896024969E+04  0.00000000000E+00 0. -1.
      99926    2    1    2    0    0  0.00000000000E+00  0.00000000000E+00 -0.15570627621E+04  0.16221422317E+04  0.45486368796E+03 0.  0.
      99925    2    3    3    0    0 -0.17332691882E+02 -0.82815369705E+02 -0.71291440682E+03  0.76459178913E+03  0.26304913017E+03 0.  0.
         25    1    4    4    0    0 -0.14897502708E+02 -0.61486560888E+00 -0.29990825181E+03  0.32529184012E+03  0.12509000000E+03 0.  0.
         25    1    3    3    0    0  0.17332691882E+02  0.82815369705E+02 -0.84414835527E+03  0.85755044252E+03  0.12509000000E+03 0.  0.
         25    1    4    4    0    0 -0.24351891738E+01 -0.82200504096E+02 -0.41300615501E+03  0.43929994901E+03  0.12509000000E+03 0.  0.
<mgrwt>
<rscale>  2 0.45486369E+03</rscale>
<asrwt>0</asrwt>
<pdfrwt beam="1">  1       21 0.47852546E-02 0.45486369E+03</pdfrwt>
<pdfrwt beam="2">  1       21 0.23376510E+00 0.45486369E+03</pdfrwt>
<totfact> 0.20956179E+04</totfact>
</mgrwt>
</event>
<event>
 7    0  0.4784406E-002  0.4281010E+03  0.7546771E-02  0.1034462E+00
         21   -1    0    0  502  501  0.00000000000E+00  0.00000000000E+00  0.44888690692E+03  0.44888690692E+03  0.00000000000E+00 0.  1.
         21   -1    0    0  501  502 -0.00000000000E+00 -0.00000000000E+00 -0.10206940480E+03  0.10206940480E+03  0.00000000000E+00 0.  1.
      99926    2    1    2    0    0  0.35527136788E-14  0.00000000000E+00  0.34681750211E+03  0.55095631172E+03  0.42810101337E+03 0.  0.
      99925    2    3    3    0    0  0.19019904321E+02  0.71488880935E+02  0.16867014129E+03  0.32105109837E+03  0.26296724956E+03 0.  0.
         25    1    3    3    0    0 -0.19019904321E+02 -0.71488880935E+02  0.17814736082E+03  0.22990521335E+03  0.12509000000E+03 0.  0.
         25    1    4    4    0    0  0.46769299110E+02  0.21148010256E+02  0.76087643943E+02  0.15514974488E+03  0.12509000000E+03 0.  0.
         25    1    4    4    0    0 -0.27749394789E+02  0.50340870680E+02  0.92582497352E+02  0.16590135348E+03  0.12509000000E+03 0.  0.
<mgrwt>
<rscale>  2 0.42810101E+03</rscale>
<asrwt>0</asrwt>
<pdfrwt beam="1">  1       21 0.66012780E-01 0.42810101E+03</pdfrwt>
<pdfrwt beam="2">  1       21 0.15010207E-01 0.42810101E+03</pdfrwt>
<totfact> 0.76909884E+04</totfact>
</mgrwt>
</event>
<event>
 7    0  0.4784406E-002  0.4518460E+03  0.7546771E-02  0.1027173E+00
         21   -1    0    0  502  501  0.00000000000E+00  0.00000000000E+00  0.41824958305E+03  0.41824958305E+03  0.00000000000E+00 0. -1.
         21   -1    0    0  501  502 -0.00000000000E+00 -0.00000000000E+00 -0.12203529064E+03  0.12203529064E+03  0.00000000000E+00 0. -1.
      99926    2    1    2    0    0  0.00000000000E+00  0.00000000000E+00  0.29621429241E+03  0.54028487369E+03  0.45184603319E+03 0.  0.
      99925    2    3    3    0    0  0.16114601232E+02 -0.10885351837E+03  0.17908068944E+03  0.33662693037E+03  0.26294301300E+03 0.  0.
         25    1    3    3    0    0 -0.16114601232E+02  0.10885351837E+03  0.11713360298E+03  0.20365794333E+03  0.12509000000E+03 0.  0.
         25    1    4    4    0    0 -0.28908087779E+02 -0.38738965117E+02  0.73259580907E+02  0.15280987943E+03  0.12509000000E+03 0.  0.
         25    1    4    4    0    0  0.45022689011E+02 -0.70114553252E+02  0.10582110853E+03  0.18381705094E+03  0.12509000000E+03 0.  0.
<mgrwt>
<rscale>  2 0.45184603E+03</rscale>
<asrwt>0</asrwt>
<pdfrwt beam="1">  1       21 0.61507291E-01 0.45184603E+03</pdfrwt>
<pdfrwt beam="2">  1       21 0.17946366E-01 0.45184603E+03</pdfrwt>
<totfact> 0.64098059E+04</totfact>
</mgrwt>
</event>
<event>
 7    0  0.4784406E-002  0.4616275E+03  0.7546771E-02  0.1024310E+00
         21   -1    0    0  502  501  0.00000000000E+00  0.00000000000E+00  0.13839437349E+03  0.13839437349E+03  0.00000000000E+00 0.  1.
         21   -1    0    0  501  502 -0.00000000000E+00 -0.00000000000E+00 -0.38495053859E+03  0.38495053859E+03  0.00000000000E+00 0.  1.
      99926    2    1    2    0    0  0.17763568394E-14  0.14210854715E-13 -0.24655616509E+03  0.52334491208E+03  0.46162750617E+03 0.  0.
      99925    2    3    3    0    0 -0.71535941069E+01 -0.69435468377E+02 -0.44215472049E+02  0.27543016395E+03  0.26274380881E+03 0.  0.
         25    1    4    4    0    0 -0.23506166620E+02 -0.12792773923E+02  0.66287048928E+01  0.12809232125E+03  0.12509000000E+03 0.  0.
         25    1    3    3    0    0  0.71535941069E+01  0.69435468377E+02 -0.20234069305E+03  0.24791474813E+03  0.12509000000E+03 0.  0.
         25    1    4    4    0    0  0.16352572513E+02 -0.56642694454E+02 -0.50844176942E+02  0.14733784270E+03  0.12509000000E+03 0.  0.
<mgrwt>
<rscale>  2 0.46162751E+03</rscale>
<asrwt>0</asrwt>
<pdfrwt beam="1">  1       21 0.20352114E-01 0.46162751E+03</pdfrwt>
<pdfrwt beam="2">  1       21 0.56610371E-01 0.46162751E+03</pdfrwt>
<totfact> 0.60419859E+04</totfact>
</mgrwt>
</event>
<event>
 7    0  0.4784406E-002  0.4617625E+03  0.7546771E-02  0.1024271E+00
         21   -1    0    0  502  501  0.00000000000E+00  0.00000000000E+00  0.55695257774E+02  0.55695257774E+02  0.00000000000E+00 0. -1.
         21   -1    0    0  501  502 -0.00000000000E+00 -0.00000000000E+00 -0.95710410468E+03  0.95710410468E+03  0.00000000000E+00 0. -1.
      99926    2    1    2    0    0  0.71054273576E-14  0.14210854715E-13 -0.90140884691E+03  0.10127993625E+04  0.46176253563E+03 0.  0.
      99925    2    3    3    0    0 -0.34085032777E+02 -0.11434273122E+03 -0.56260282444E+03  0.63244021822E+03  0.26310196106E+03 0.  0.
         25    1    4    4    0    0 -0.15617506558E+02 -0.12817163027E+02 -0.25054312109E+03  0.28076244373E+03  0.12509000000E+03 0.  0.
         25    1    4    4    0    0 -0.18467526220E+02 -0.10152556820E+03 -0.31205970335E+03  0.35167777450E+03  0.12509000000E+03 0.  0.
         25    1    3    3    0    0  0.34085032777E+02  0.11434273122E+03 -0.33880602247E+03  0.38035914423E+03  0.12509000000E+03 0.  0.
<mgrwt>
<rscale>  2 0.46176254E+03</rscale>
<asrwt>0</asrwt>
<pdfrwt beam="1">  1       21 0.81904794E-02 0.46176254E+03</pdfrwt>
<pdfrwt beam="2">  1       21 0.14075060E+00 0.46176254E+03</pdfrwt>
<totfact> 0.36696195E+04</totfact>
</mgrwt>
</event>
<event>
 7    0  0.4784406E-002  0.4747453E+03  0.7546771E-02  0.1020589E+00
         21   -1    0    0  502  501  0.00000000000E+00  0.00000000000E+00  0.24029409315E+03  0.24029409315E+03  0.00000000000E+00 0.  1.
         21   -1    0    0  501  502 -0.00000000000E+00 -0.00000000000E+00 -0.23448673515E+03  0.23448673515E+03  0.00000000000E+00 0.  1.
      99926    2    1    2    0    0  0.00000000000E+00  0.00000000000E+00  0.58073579962E+01  0.47478082830E+03  0.47474531015E+03 0.  0.
      99925    2    3    3    0    0  0.84366999548E+02 -0.28730100230E+02 -0.92346544774E+02  0.29250382481E+03  0.26284480958E+03 0.  0.
         25    1    3    3    0    0 -0.84366999548E+02  0.28730100230E+02  0.98153902770E+02  0.18227700349E+03  0.12509000000E+03 0.  0.
         25    1    4    4    0    0  0.83989915834E+02 -0.22035788646E+02 -0.50471196150E+02  0.16042048399E+03  0.12509000000E+03 0.  0.
         25    1    4    4    0    0  0.37708371449E+00 -0.66943115842E+01 -0.41875348624E+02  0.13208334082E+03  0.12509000000E+03 0.  0.
<mgrwt>
<rscale>  2 0.47474531E+03</rscale>
<asrwt>0</asrwt>
<pdfrwt beam="1">  1       21 0.35337367E-01 0.47474531E+03</pdfrwt>
<pdfrwt beam="2">  1       21 0.34483343E-01 0.47474531E+03</pdfrwt>
<totfact> 0.57511327E+04</totfact>
</mgrwt>
</event>
<event>
 7    0  0.4784406E-002  0.4601516E+03  0.7546771E-02  0.1024737E+00
         21   -1    0    0  502  501  0.00000000000E+00  0.00000000000E+00  0.19856057449E+03  0.19856057449E+03  0.00000000000E+00 0. -1.
         21   -1    0    0  501  502 -0.00000000000E+00 -0.00000000000E+00 -0.26659306568E+03  0.26659306568E+03  0.00000000000E+00 0. -1.
      99926    2    1    2    0    0  0.00000000000E+00  0.00000000000E+00 -0.68032491196E+02  0.46515364017E+03  0.46015159362E+03 0.  0.
      99925    2    3    3    0    0 -0.76067556754E+02 -0.71261015742E+02 -0.98381712984E+02  0.29952456990E+03  0.26300494476E+03 0.  0.
         25    1    4    4    0    0 -0.33428890887E+02 -0.91576991938E+01 -0.13198129970E+02  0.13047242213E+03  0.12509000000E+03 0.  0.
         25    1    4    4    0    0 -0.42638665867E+02 -0.62103316548E+02 -0.85183583014E+02  0.16905214778E+03  0.12509000000E+03 0.  0.
         25    1    3    3    0    0  0.76067556754E+02  0.71261015742E+02  0.30349221789E+02  0.16562907027E+03  0.12509000000E+03 0.  0.
<mgrwt>
<rscale>  2 0.46015159E+03</rscale>
<asrwt>0</asrwt>
<pdfrwt beam="1">  1       21 0.29200085E-01 0.46015159E+03</pdfrwt>
<pdfrwt beam="2">  1       21 0.39204862E-01 0.46015159E+03</pdfrwt>
<totfact> 0.65091126E+04</totfact>
</mgrwt>
</event>
<event>
 7    0  0.4784406E-002  0.4599933E+03  0.7546771E-02  0.1024783E+00
         21   -1    0    0  502  501  0.00000000000E+00  0.00000000000E+00  0.21601746552E+03  0.21601746552E+03  0.00000000000E+00 0.  1.
         21   -1    0    0  501  502 -0.00000000000E+00 -0.00000000000E+00 -0.24488046675E+03  0.24488046675E+03  0.00000000000E+00 0.  1.
      99926    2    1    2    0    0  0.55511151231E-15  0.00000000000E+00 -0.28863001234E+02  0.46089793227E+03  0.45999329466E+03 0.  0.
      99925    2    3    3    0    0 -0.78657589620E+00  0.49596246620E+02 -0.12515641336E+03  0.29542788755E+03  0.26296977499E+03 0.  0.
         25    1    4    4    0    0 -0.22975574683E+02  0.56262184005E+02 -0.50707281327E+02  0.14802718284E+03  0.12509000000E+03 0.  0.
         25    1    3    3    0    0  0.78657589620E+00 -0.49596246620E+02  0.96293412128E+02  0.16547004472E+03  0.12509000000E+03 0.  0.
         25    1    4    4    0    0  0.22188998786E+02 -0.66659373852E+01 -0.74449132035E+02  0.14740070471E+03  0.12509000000E+03 0.  0.
<mgrwt>
<rscale>  2 0.45999329E+03</rscale>
<asrwt>0</asrwt>
<pdfrwt beam="1">  1       21 0.31767275E-01 0.45999329E+03</pdfrwt>
<pdfrwt beam="2">  1       21 0.36011833E-01 0.45999329E+03</pdfrwt>
<totfact> 0.65468458E+04</totfact>
</mgrwt>
</event>
<event>
 7    0  0.4784406E-002  0.4639263E+03  0.7546771E-02  0.1023649E+00
         21   -1    0    0  502  501  0.00000000000E+00  0.00000000000E+00  0.31374237635E+03  0.31374237635E+03  0.00000000000E+00 0.  1.
         21   -1    0    0  501  502 -0.00000000000E+00 -0.00000000000E+00 -0.17150026585E+03  0.17150026585E+03  0.00000000000E+00 0.  1.
      99926    2    1    2    0    0  0.00000000000E+00  0.00000000000E+00  0.14224211050E+03  0.48524264220E+03  0.46392629135E+03 0.  0.
      99925    2    3    3    0    0 -0.63743634461E+02  0.85075371081E+02  0.14998460597E+03  0.32089993918E+03  0.26302151859E+03 0.  0.
         25    1    4    4    0    0 -0.29361991850E+02  0.81647931846E+02  0.63506352841E+02  0.16495173928E+03  0.12509000000E+03 0.  0.
         25    1    3    3    0    0  0.63743634461E+02 -0.85075371081E+02 -0.77424954662E+01  0.16434270302E+03  0.12509000000E+03 0.  0.
         25    1    4    4    0    0 -0.34381642612E+02  0.34274392348E+01  0.86478253126E+02  0.15594819990E+03  0.12509000000E+03 0.  0.
<mgrwt>
<rscale>  2 0.46392629E+03</rscale>
<asrwt>0</asrwt>
<pdfrwt beam="1">  1       21 0.46138585E-01 0.46392629E+03</pdfrwt>
<pdfrwt beam="2">  1       21 0.25220627E-01 0.46392629E+03</pdfrwt>
<totfact> 0.61822688E+04</totfact>
</mgrwt>
</event>
<event>
 7    0  0.4784406E-002  0.4661081E+03  0.7546771E-02  0.1023024E+00
         21   -1    0    0  502  501  0.00000000000E+00  0.00000000000E+00  0.13386239685E+03  0.13386239685E+03  0.00000000000E+00 0.  1.
         21   -1    0    0  501  502 -0.00000000000E+00 -0.00000000000E+00 -0.40574646673E+03  0.40574646673E+03  0.00000000000E+00 0.  1.
      99926    2    1    2    0    0  0.71054273576E-14  0.00000000000E+00 -0.27188406988E+03  0.53960886358E+03  0.46610811858E+03 0.  0.
      99925    2    3    3    0    0 -0.58401300893E+02 -0.10611754409E+03 -0.19654646149E+03  0.34988562187E+03  0.26290262789E+03 0.  0.
         25    1    4    4    0    0 -0.69925219886E+02 -0.58821218019E+02 -0.97006016624E+02  0.18277622227E+03  0.12509000000E+03 0.  0.
         25    1    3    3    0    0  0.58401300893E+02  0.10611754409E+03 -0.75337608387E+02  0.18972324172E+03  0.12509000000E+03 0.  0.
         25    1    4    4    0    0  0.11523918993E+02 -0.47296326074E+02 -0.99540444868E+02  0.16710939960E+03  0.12509000000E+03 0.  0.
<mgrwt>
<rscale>  2 0.46610812E+03</rscale>
<asrwt>0</asrwt>
<pdfrwt beam="1">  1       21 0.19685647E-01 0.46610812E+03</pdfrwt>
<pdfrwt beam="2">  1       21 0.59668598E-01 0.46610812E+03</pdfrwt>
<totfact> 0.57343632E+04</totfact>
</mgrwt>
</event>
<event>
 7    0  0.4784406E-002  0.4565587E+03  0.7546771E-02  0.1025784E+00
         21   -1    0    0  502  501  0.00000000000E+00  0.00000000000E+00  0.13367905822E+03  0.13367905822E+03  0.00000000000E+00 0. -1.
         21   -1    0    0  501  502 -0.00000000000E+00 -0.00000000000E+00 -0.38982515549E+03  0.38982515549E+03  0.00000000000E+00 0. -1.
      99926    2    1    2    0    0  0.00000000000E+00  0.00000000000E+00 -0.25614609728E+03  0.52350421371E+03  0.45655869132E+03 0.  0.
      99925    2    3    3    0    0  0.53099066750E+02 -0.60329827304E+02 -0.25455798445E+03  0.37481248847E+03  0.26310726921E+03 0.  0.
         25    1    4    4    0    0  0.29705079212E+02 -0.69595271588E+01 -0.77326004200E+02  0.15019202966E+03  0.12509000000E+03 0.  0.
         25    1    4    4    0    0  0.23393987539E+02 -0.53370300146E+02 -0.17723198025E+03  0.22462045881E+03  0.12509000000E+03 0.  0.
         25    1    3    3    0    0 -0.53099066750E+02  0.60329827304E+02 -0.15881128229E+01  0.14869172524E+03  0.12509000000E+03 0.  0.
<mgrwt>
<rscale>  2 0.45655869E+03</rscale>
<asrwt>0</asrwt>
<pdfrwt beam="1">  1       21 0.19658685E-01 0.45655869E+03</pdfrwt>
<pdfrwt beam="2">  1       21 0.57327230E-01 0.45655869E+03</pdfrwt>
<totfact> 0.62867879E+04</totfact>
</mgrwt>
</event>
<event>
 7    0  0.4784406E-002  0.4690626E+03  0.7546771E-02  0.1022185E+00
         21   -1    0    0  502  501  0.00000000000E+00  0.00000000000E+00  0.18292041492E+03  0.18292041492E+03  0.00000000000E+00 0. -1.
         21   -1    0    0  501  502 -0.00000000000E+00 -0.00000000000E+00 -0.30070414432E+03  0.30070414432E+03  0.00000000000E+00 0. -1.
      99926    2    1    2    0    0  0.00000000000E+00  0.00000000000E+00 -0.11778372940E+03  0.48362455924E+03  0.46906258366E+03 0.  0.
      99925    2    3    3    0    0  0.47211355692E+02 -0.54197267940E+02  0.31401653990E+02  0.27609132654E+03  0.26471513134E+03 0.  0.
         25    1    3    3    0    0 -0.47211355692E+02  0.54197267940E+02 -0.14918538339E+03  0.20753323270E+03  0.12509000000E+03 0.  0.
         25    1    4    4    0    0 -0.11887867923E+02 -0.41023444451E+02  0.36154291837E+02  0.13703607305E+03  0.12509000000E+03 0.  0.
         25    1    4    4    0    0  0.59099223615E+02 -0.13173823489E+02 -0.47526378475E+01  0.13905525349E+03  0.12509000000E+03 0.  0.
<mgrwt>
<rscale>  2 0.46906258E+03</rscale>
<asrwt>0</asrwt>
<pdfrwt beam="1">  1       21 0.26900061E-01 0.46906258E+03</pdfrwt>
<pdfrwt beam="2">  1       21 0.44221197E-01 0.46906258E+03</pdfrwt>
<totfact> 0.59513180E+04</totfact>
</mgrwt>
</event>
<event>
 7    0  0.4784406E-002  0.4503526E+03  0.7546771E-02  0.1027617E+00
         21   -1    0    0  502  501  0.00000000000E+00  0.00000000000E+00  0.69260323259E+03  0.69260323259E+03  0.00000000000E+00 0.  1.
         21   -1    0    0  501  502 -0.00000000000E+00 -0.00000000000E+00 -0.73208379866E+02  0.73208379866E+02  0.00000000000E+00 0.  1.
      99926    2    1    2    0    0  0.00000000000E+00  0.14210854715E-13  0.61939485272E+03  0.76581161245E+03  0.45035257542E+03 0.  0.
      99925    2    3    3    0    0  0.75054148202E+02 -0.78062792911E+02  0.40124076177E+03  0.49201307284E+03  0.26335487490E+03 0.  0.
         25    1    4    4    0    0  0.39957481979E+02 -0.95831669685E+01  0.24121695021E+03  0.27481186769E+03  0.12509000000E+03 0.  0.
         25    1    3    3    0    0 -0.75054148202E+02  0.78062792911E+02  0.21815409095E+03  0.27379853962E+03  0.12509000000E+03 0.  0.
         25    1    4    4    0    0  0.35096666223E+02 -0.68479625943E+02  0.16002381156E+03  0.21720120515E+03  0.12509000000E+03 0.  0.
<mgrwt>
<rscale>  2 0.45035258E+03</rscale>
<asrwt>0</asrwt>
<pdfrwt beam="1">  1       21 0.10185341E+00 0.45035258E+03</pdfrwt>
<pdfrwt beam="2">  1       21 0.10765939E-01 0.45035258E+03</pdfrwt>
<totfact> 0.51309329E+04</totfact>
</mgrwt>
</event>
<event>
 7    0  0.4784406E-002  0.4560745E+03  0.7546771E-02  0.1025926E+00
         21   -1    0    0  502  501  0.00000000000E+00  0.00000000000E+00  0.12270762595E+03  0.12270762595E+03  0.00000000000E+00 0.  1.
         21   -1    0    0  501  502 -0.00000000000E+00 -0.00000000000E+00 -0.42377963798E+03  0.42377963798E+03  0.00000000000E+00 0.  1.
      99926    2    1    2    0    0  0.00000000000E+00  0.14210854715E-13 -0.30107201203E+03  0.54648726393E+03  0.45607452594E+03 0.  0.
      99925    2    3    3    0    0 -0.29429089715E+02  0.10882044639E+03 -0.16730903861E+03  0.33143377748E+03  0.26296021293E+03 0.  0.
         25    1    4    4    0    0 -0.15329575519E+02  0.12984443253E+02 -0.89550931839E+02  0.15514660533E+03  0.12509000000E+03 0.  0.
         25    1    3    3    0    0  0.29429089715E+02 -0.10882044639E+03 -0.13376297342E+03  0.21505348645E+03  0.12509000000E+03 0.  0.
         25    1    4    4    0    0 -0.14099514197E+02  0.95836003138E+02 -0.77758106766E+02  0.17628717215E+03  0.12509000000E+03 0.  0.
<mgrwt>
<rscale>  2 0.45607453E+03</rscale>
<asrwt>0</asrwt>
<pdfrwt beam="1">  1       21 0.18045239E-01 0.45607453E+03</pdfrwt>
<pdfrwt beam="2">  1       21 0.62320535E-01 0.45607453E+03</pdfrwt>
<totfact> 0.61574040E+04</totfact>
</mgrwt>
</event>
<event>
 7    0  0.4784406E-002  0.4587422E+03  0.7546771E-02  0.1025147E+00
         21   -1    0    0  502  501  0.00000000000E+00  0.00000000000E+00  0.27123707180E+03  0.27123707180E+03  0.00000000000E+00 0. -1.
         21   -1    0    0  501  502 -0.00000000000E+00 -0.00000000000E+00 -0.19396718191E+03  0.19396718191E+03  0.00000000000E+00 0. -1.
      99926    2    1    2    0    0  0.00000000000E+00  0.00000000000E+00  0.77269889892E+02  0.46520425371E+03  0.45874215174E+03 0.  0.
      99925    2    3    3    0    0  0.19285829688E+02  0.11144626111E+03  0.77564513717E+02  0.29656319333E+03  0.26294725993E+03 0.  0.
         25    1    4    4    0    0 -0.35055360309E+01  0.66885879391E+02  0.16201878251E+01  0.14190187720E+03  0.12509000000E+03 0.  0.
         25    1    3    3    0    0 -0.19285829688E+02 -0.11144626111E+03 -0.29462382427E+00  0.16864106038E+03  0.12509000000E+03 0.  0.
         25    1    4    4    0    0  0.22791365719E+02  0.44560381723E+02  0.75944325892E+02  0.15466131613E+03  0.12509000000E+03 0.  0.
<mgrwt>
<rscale>  2 0.45874215E+03</rscale>
<asrwt>0</asrwt>
<pdfrwt beam="1">  1       21 0.39887805E-01 0.45874215E+03</pdfrwt>
<pdfrwt beam="2">  1       21 0.28524585E-01 0.45874215E+03</pdfrwt>
<totfact> 0.65815186E+04</totfact>
</mgrwt>
</event>
<event>
 7    0  0.4784406E-002  0.4544637E+03  0.7546771E-02  0.1026399E+00
         21   -1    0    0  502  501  0.00000000000E+00  0.00000000000E+00  0.67837268049E+03  0.67837268049E+03  0.00000000000E+00 0.  1.
         21   -1    0    0  501  502 -0.00000000000E+00 -0.00000000000E+00 -0.76114966165E+02  0.76114966165E+02  0.00000000000E+00 0.  1.
      99926    2    1    2    0    0  0.00000000000E+00  0.00000000000E+00  0.60225771432E+03  0.75448764665E+03  0.45446369986E+03 0.  0.
      99925    2    3    3    0    0 -0.60949972104E+02 -0.71587525538E+02  0.27648304152E+03  0.39307884979E+03  0.26311297381E+03 0.  0.
         25    1    4    4    0    0 -0.20285650527E+01 -0.61493637362E+02  0.15801192440E+03  0.21071511305E+03  0.12509000000E+03 0.  0.
         25    1    3    3    0    0  0.60949972104E+02  0.71587525538E+02  0.32577467280E+03  0.36140879686E+03  0.12509000000E+03 0.  0.
         25    1    4    4    0    0 -0.58921407052E+02 -0.10093888175E+02  0.11847111712E+03  0.18236373674E+03  0.12509000000E+03 0.  0.
<mgrwt>
<rscale>  2 0.45446370E+03</rscale>
<asrwt>0</asrwt>
<pdfrwt beam="1">  1       21 0.99760685E-01 0.45446370E+03</pdfrwt>
<pdfrwt beam="2">  1       21 0.11193378E-01 0.45446370E+03</pdfrwt>
<totfact> 0.50253964E+04</totfact>
</mgrwt>
</event>
<event>
 7    0  0.4784406E-002  0.4559685E+03  0.7546771E-02  0.1025957E+00
         21   -1    0    0  502  501  0.00000000000E+00  0.00000000000E+00  0.12145923797E+04  0.12145923797E+04  0.00000000000E+00 0.  1.
         21   -1    0    0  501  502 -0.00000000000E+00 -0.00000000000E+00 -0.42793634054E+02  0.42793634054E+02  0.00000000000E+00 0.  1.
      99926    2    1    2    0    0 -0.71054273576E-14  0.00000000000E+00  0.11717987456E+04  0.12573860137E+04  0.45596851567E+03 0.  0.
      99925    2    3    3    0    0 -0.44386773708E+02  0.22988638685E+02  0.10194777156E+04  0.10540442633E+04  0.26301299043E+03 0.  0.
         25    1    3    3    0    0  0.44386773708E+02 -0.22988638685E+02  0.15232102997E+03  0.20334175041E+03  0.12509000000E+03 0.  0.
         25    1    4    4    0    0  0.15992042594E+02 -0.41126895641E+01  0.48798727489E+03  0.50403546323E+03  0.12509000000E+03 0.  0.
         25    1    4    4    0    0 -0.60378816302E+02  0.27101328249E+02  0.53149044075E+03  0.55000880008E+03  0.12509000000E+03 0.  0.
<mgrwt>
<rscale>  2 0.45596852E+03</rscale>
<asrwt>0</asrwt>
<pdfrwt beam="1">  1       21 0.17861650E+00 0.45596852E+03</pdfrwt>
<pdfrwt beam="2">  1       21 0.62931823E-02 0.45596852E+03</pdfrwt>
<totfact> 0.30149894E+04</totfact>
</mgrwt>
</event>
<event>
 7    0  0.4784406E-002  0.4509994E+03  0.7546771E-02  0.1027424E+00
         21   -1    0    0  502  501  0.00000000000E+00  0.00000000000E+00  0.12678031505E+03  0.12678031505E+03  0.00000000000E+00 0. -1.
         21   -1    0    0  501  502 -0.00000000000E+00 -0.00000000000E+00 -0.40108834223E+03  0.40108834223E+03  0.00000000000E+00 0. -1.
      99926    2    1    2    0    0  0.14210854715E-13  0.00000000000E+00 -0.27430802719E+03  0.52786865728E+03  0.45099936314E+03 0.  0.
      99925    2    3    3    0    0  0.66280425267E+02  0.56514710334E+02 -0.25066245243E+03  0.37361682240E+03  0.26300353166E+03 0.  0.
         25    1    4    4    0    0 -0.21663669853E+01  0.23087278836E+02 -0.87743110480E+02  0.15454474150E+03  0.12509000000E+03 0.  0.
         25    1    3    3    0    0 -0.66280425267E+02 -0.56514710334E+02 -0.23645574757E+02  0.15425183488E+03  0.12509000000E+03 0.  0.
         25    1    4    4    0    0  0.68446792252E+02  0.33427431498E+02 -0.16291934195E+03  0.21907208089E+03  0.12509000000E+03 0.  0.
<mgrwt>
<rscale>  2 0.45099936E+03</rscale>
<asrwt>0</asrwt>
<pdfrwt beam="1">  1       21 0.18644164E-01 0.45099936E+03</pdfrwt>
<pdfrwt beam="2">  1       21 0.58983580E-01 0.45099936E+03</pdfrwt>
<totfact> 0.65399833E+04</totfact>
</mgrwt>
</event>
<event>
 7    0  0.4784406E-002  0.4598985E+03  0.7546771E-02  0.1024811E+00
         21   -1    0    0  502  501  0.00000000000E+00  0.00000000000E+00  0.11686762202E+03  0.11686762202E+03  0.00000000000E+00 0. -1.
         21   -1    0    0  501  502 -0.00000000000E+00 -0.00000000000E+00 -0.45244914840E+03  0.45244914840E+03  0.00000000000E+00 0. -1.
      99926    2    1    2    0    0 -0.71054273576E-14 -0.14210854715E-13 -0.33558152638E+03  0.56931677043E+03  0.45989849341E+03 0.  0.
      99925    2    3    3    0    0  0.55449579812E+02  0.74019999482E+02 -0.12026866849E+03  0.30368403318E+03  0.26306999670E+03 0.  0.
         25    1    3    3    0    0 -0.55449579812E+02 -0.74019999482E+02 -0.21531285789E+03  0.26563273725E+03  0.12509000000E+03 0.  0.
         25    1    4    4    0    0  0.55206595332E+02  0.70170918928E+02 -0.68043937652E+02  0.16807501772E+03  0.12509000000E+03 0.  0.
         25    1    4    4    0    0  0.24298447987E+00  0.38490805534E+01 -0.52224730838E+02  0.13560901546E+03  0.12509000000E+03 0.  0.
<mgrwt>
<rscale>  2 0.45989849E+03</rscale>
<asrwt>0</asrwt>
<pdfrwt beam="1">  1       21 0.17186415E-01 0.45989849E+03</pdfrwt>
<pdfrwt beam="2">  1       21 0.66536639E-01 0.45989849E+03</pdfrwt>
<totfact> 0.58315742E+04</totfact>
</mgrwt>
</event>
<event>
 7    0  0.4784406E-002  0.4540629E+03  0.7546771E-02  0.1026517E+00
         21   -1    0    0  502  501  0.00000000000E+00  0.00000000000E+00  0.16263711982E+03  0.16263711982E+03  0.00000000000E+00 0.  1.
         21   -1    0    0  501  502 -0.00000000000E+00 -0.00000000000E+00 -0.31692192544E+03  0.31692192544E+03  0.00000000000E+00 0.  1.
      99926    2    1    2    0    0  0.00000000000E+00 -0.71054273576E-14 -0.15428480561E+03  0.47955904526E+03  0.45406285540E+03 0.  0.
      99925    2    3    3    0    0 -0.67607126909E+01  0.51928269238E+02  0.78923453732E+01  0.26815613898E+03  0.26287482454E+03 0.  0.
         25    1    3    3    0    0  0.67607126909E+01 -0.51928269238E+02 -0.16217715099E+03  0.21140290628E+03  0.12509000000E+03 0.  0.
         25    1    4    4    0    0  0.11494925239E+02  0.57571416203E+02  0.25125305161E+02  0.14044710865E+03  0.12509000000E+03 0.  0.
         25    1    4    4    0    0 -0.18255637929E+02 -0.56431469643E+01 -0.17232959788E+02  0.12770903033E+03  0.12509000000E+03 0.  0.
<mgrwt>
<rscale>  2 0.45406286E+03</rscale>
<asrwt>0</asrwt>
<pdfrwt beam="1">  1       21 0.23917224E-01 0.45406286E+03</pdfrwt>
<pdfrwt beam="2">  1       21 0.46606165E-01 0.45406286E+03</pdfrwt>
<totfact> 0.67230920E+04</totfact>
</mgrwt>
</event>
<event>
 7    0  0.4784406E-002  0.4577669E+03  0.7546771E-02  0.1025431E+00
         21   -1    0    0  502  501  0.00000000000E+00  0.00000000000E+00  0.86564201274E+03  0.86564201274E+03  0.00000000000E+00 0. -1.
         21   -1    0    0  501  502 -0.00000000000E+00 -0.00000000000E+00 -0.60518830172E+02  0.60518830172E+02  0.00000000000E+00 0. -1.
      99926    2    1    2    0    0  0.00000000000E+00  0.00000000000E+00  0.80512318257E+03  0.92616084291E+03  0.45776693615E+03 0.  0.
      99925    2    3    3    0    0  0.31613771798E+02 -0.11110164508E+03  0.52076616533E+03  0.59472543826E+03  0.26297897606E+03 0.  0.
         25    1    4    4    0    0 -0.14281745553E+02 -0.51706979761E+02  0.19517161482E+03  0.23794337003E+03  0.12509000000E+03 0.  0.
         25    1    4    4    0    0  0.45895517351E+02 -0.59394665321E+02  0.32559455052E+03  0.35678206823E+03  0.12509000000E+03 0.  0.
         25    1    3    3    0    0 -0.31613771798E+02  0.11110164508E+03  0.28435701724E+03  0.33143540466E+03  0.12509000000E+03 0.  0.
<mgrwt>
<rscale>  2 0.45776694E+03</rscale>
<asrwt>0</asrwt>
<pdfrwt beam="1">  1       21 0.12730029E+00 0.45776694E+03</pdfrwt>
<pdfrwt beam="2">  1       21 0.88998285E-02 0.45776694E+03</pdfrwt>
<totfact> 0.41222136E+04</totfact>
</mgrwt>
</event>
<event>
 7    0  0.4784406E-002  0.4502781E+03  0.7546771E-02  0.1027639E+00
         21   -1    0    0  502  501  0.00000000000E+00  0.00000000000E+00  0.59104322063E+02  0.59104322063E+02  0.00000000000E+00 0. -1.
         21   -1    0    0  501  502 -0.00000000000E+00 -0.00000000000E+00 -0.85759548112E+03  0.85759548112E+03  0.00000000000E+00 0. -1.
      99926    2    1    2    0    0 -0.14210854715E-13  0.00000000000E+00 -0.79849115905E+03  0.91669980318E+03  0.45027813411E+03 0.  0.
      99925    2    3    3    0    0 -0.80560559697E+02 -0.52263935767E+02 -0.40112990168E+03  0.48918956971E+03  0.26302036866E+03 0.  0.
         25    1    4    4    0    0 -0.13034851214E+02 -0.12994997427E+02 -0.23641037132E+03  0.26809727539E+03  0.12509000000E+03 0.  0.
         25    1    3    3    0    0  0.80560559697E+02  0.52263935767E+02 -0.39736125738E+03  0.42751023347E+03  0.12509000000E+03 0.  0.
         25    1    4    4    0    0 -0.67525708483E+02 -0.39268938340E+02 -0.16471953036E+03  0.22109229432E+03  0.12509000000E+03 0.  0.
<mgrwt>
<rscale>  2 0.45027813E+03</rscale>
<asrwt>0</asrwt>
<pdfrwt beam="1">  1       21 0.86918121E-02 0.45027813E+03</pdfrwt>
<pdfrwt beam="2">  1       21 0.12611698E+00 0.45027813E+03</pdfrwt>
<totfact> 0.44127100E+04</totfact>
</mgrwt>
</event>
<event>
 7    0  0.4784406E-002  0.4507842E+03  0.7546771E-02  0.1027488E+00
         21   -1    0    0  502  501  0.00000000000E+00  0.00000000000E+00  0.45168639339E+03  0.45168639339E+03  0.00000000000E+00 0. -1.
         21   -1    0    0  501  502 -0.00000000000E+00 -0.00000000000E+00 -0.11247095719E+03  0.11247095719E+03  0.00000000000E+00 0. -1.
      99926    2    1    2    0    0  0.35527136788E-14  0.00000000000E+00  0.33921543619E+03  0.56415735058E+03  0.45078421008E+03 0.  0.
      99925    2    3    3    0    0  0.20459599364E+02 -0.41666247250E+02  0.33795971225E+03  0.43072663332E+03  0.26297147027E+03 0.  0.
         25    1    3    3    0    0 -0.20459599364E+02  0.41666247250E+02  0.12557239420E+01  0.13343071726E+03  0.12509000000E+03 0.  0.
         25    1    4    4    0    0 -0.12819617966E+02 -0.29444106433E+02  0.11653458617E+03  0.17395147565E+03  0.12509000000E+03 0.  0.
         25    1    4    4    0    0  0.33279217330E+02 -0.12222140817E+02  0.22142512608E+03  0.25677515766E+03  0.12509000000E+03 0.  0.
<mgrwt>
<rscale>  2 0.45078421E+03</rscale>
<asrwt>0</asrwt>
<pdfrwt beam="1">  1       21 0.66424469E-01 0.45078421E+03</pdfrwt>
<pdfrwt beam="2">  1       21 0.16539847E-01 0.45078421E+03</pdfrwt>
<totfact> 0.63015523E+04</totfact>
</mgrwt>
</event>
<event>
 7    0  0.4784406E-002  0.4543982E+03  0.7546771E-02  0.1026419E+00
         21   -1    0    0  502  501  0.00000000000E+00  0.00000000000E+00  0.50768582437E+02  0.50768582437E+02  0.00000000000E+00 0.  1.
         21   -1    0    0  501  502 -0.00000000000E+00 -0.00000000000E+00 -0.10167592390E+04  0.10167592390E+04  0.00000000000E+00 0.  1.
      99926    2    1    2    0    0  0.00000000000E+00  0.00000000000E+00 -0.96599065653E+03  0.10675278214E+04  0.45439817448E+03 0.  0.
      99925    2    3    3    0    0  0.10031724762E+03  0.46207368366E+02 -0.65871254072E+03  0.71786223886E+03  0.26310703453E+03 0.  0.
         25    1    3    3    0    0 -0.10031724762E+03 -0.46207368366E+02 -0.30727811581E+03  0.34966558254E+03  0.12509000000E+03 0.  0.
         25    1    4    4    0    0  0.58924232396E+02 -0.13813586678E+02 -0.36061404176E+03  0.38646199755E+03  0.12509000000E+03 0.  0.
         25    1    4    4    0    0  0.41393015220E+02  0.60020955044E+02 -0.29809849897E+03  0.33140024131E+03  0.12509000000E+03 0.  0.
<mgrwt>
<rscale>  2 0.45439817E+03</rscale>
<asrwt>0</asrwt>
<pdfrwt beam="1">  1       21 0.74659688E-02 0.45439817E+03</pdfrwt>
<pdfrwt beam="2">  1       21 0.14952340E+00 0.45439817E+03</pdfrwt>
<totfact> 0.36813342E+04</totfact>
</mgrwt>
</event>
<event>
 7    0  0.4784406E-002  0.4483183E+03  0.7546771E-02  0.1028225E+00
         21   -1    0    0  502  501  0.00000000000E+00  0.00000000000E+00  0.10050420749E+04  0.10050420749E+04  0.00000000000E+00 0.  1.
         21   -1    0    0  501  502 -0.00000000000E+00 -0.00000000000E+00 -0.49995236103E+02  0.49995236103E+02  0.00000000000E+00 0.  1.
      99926    2    1    2    0    0  0.00000000000E+00  0.71054273576E-14  0.95504683881E+03  0.10550373110E+04  0.44831826119E+03 0.  0.
      99925    2    3    3    0    0  0.19342528219E+02 -0.56810529412E+02  0.81262837942E+03  0.85621051372E+03  0.26292582815E+03 0.  0.
         25    1    4    4    0    0  0.42071856464E+01 -0.62221003491E+02  0.35511535743E+03  0.38163278013E+03  0.12509000000E+03 0.  0.
         25    1    4    4    0    0  0.15135342573E+02  0.54104740788E+01  0.45751302200E+03  0.47457773359E+03  0.12509000000E+03 0.  0.
         25    1    3    3    0    0 -0.19342528219E+02  0.56810529412E+02  0.14241845939E+03  0.19882679730E+03  0.12509000000E+03 0.  0.
<mgrwt>
<rscale>  2 0.44831826E+03</rscale>
<asrwt>0</asrwt>
<pdfrwt beam="1">  1       21 0.14780029E+00 0.44831826E+03</pdfrwt>
<pdfrwt beam="2">  1       21 0.73522412E-02 0.44831826E+03</pdfrwt>
<totfact> 0.39092295E+04</totfact>
</mgrwt>
</event>
<event>
 7    0  0.4784406E-002  0.4560463E+03  0.7546771E-02  0.1025934E+00
         21   -1    0    0  502  501  0.00000000000E+00  0.00000000000E+00  0.10040472538E+03  0.10040472538E+03  0.00000000000E+00 0.  1.
         21   -1    0    0  501  502 -0.00000000000E+00 -0.00000000000E+00 -0.51784972362E+03  0.51784972362E+03  0.00000000000E+00 0.  1.
      99926    2    1    2    0    0  0.00000000000E+00  0.14210854715E-13 -0.41744499823E+03  0.61825444900E+03  0.45604631033E+03 0.  0.
      99925    2    3    3    0    0 -0.48892387466E+02 -0.79707019777E+02 -0.35107455509E+03  0.44855996360E+03  0.26307607865E+03 0.  0.
         25    1    4    4    0    0 -0.29036714206E+02 -0.75077054061E+02 -0.15287829829E+03  0.21330489213E+03  0.12509000000E+03 0.  0.
         25    1    3    3    0    0  0.48892387466E+02  0.79707019777E+02 -0.66370443149E+02  0.16969448541E+03  0.12509000000E+03 0.  0.
         25    1    4    4    0    0 -0.19855673260E+02 -0.46299657153E+01 -0.19819625680E+03  0.23525507147E+03  0.12509000000E+03 0.  0.
<mgrwt>
<rscale>  2 0.45604631E+03</rscale>
<asrwt>0</asrwt>
<pdfrwt beam="1">  1       21 0.14765401E-01 0.45604631E+03</pdfrwt>
<pdfrwt beam="2">  1       21 0.76154371E-01 0.45604631E+03</pdfrwt>
<totfact> 0.57095271E+04</totfact>
</mgrwt>
</event>
<event>
 7    0  0.4784406E-002  0.4174535E+03  0.7546771E-02  0.1037898E+00
         21   -1    0    0  502  501  0.00000000000E+00  0.00000000000E+00  0.60348508746E+03  0.60348508746E+03  0.00000000000E+00 0. -1.
         21   -1    0    0  501  502 -0.00000000000E+00 -0.00000000000E+00 -0.72192087064E+02  0.72192087064E+02  0.00000000000E+00 0. -1.
      99926    2    1    2    0    0  0.00000000000E+00  0.35527136788E-14  0.53129300039E+03  0.67567717452E+03  0.41745346076E+03 0.  0.
      99925    2    3    3    0    0 -0.32283796643E+02  0.16070979935E+02  0.44915082578E+03  0.52174418627E+03  0.26302093393E+03 0.  0.
         25    1    4    4    0    0  0.97425593469E+01 -0.22535655896E+02  0.19992764154E+03  0.23711040298E+03  0.12509000000E+03 0.  0.
         25    1    4    4    0    0 -0.42026355990E+02  0.38606635831E+02  0.24922318424E+03  0.28463378329E+03  0.12509000000E+03 0.  0.
         25    1    3    3    0    0  0.32283796643E+02 -0.16070979935E+02  0.82142174616E+02  0.15393298825E+03  0.12509000000E+03 0.  0.
<mgrwt>
<rscale>  2 0.41745346E+03</rscale>
<asrwt>0</asrwt>
<pdfrwt beam="1">  1       21 0.88747804E-01 0.41745346E+03</pdfrwt>
<pdfrwt beam="2">  1       21 0.10616484E-01 0.41745346E+03</pdfrwt>
<totfact> 0.73748476E+04</totfact>
</mgrwt>
</event>
<event>
 7    0  0.4784406E-002  0.4540916E+03  0.7546771E-02  0.1026509E+00
         21   -1    0    0  502  501  0.00000000000E+00  0.00000000000E+00  0.11166743510E+04  0.11166743510E+04  0.00000000000E+00 0.  1.
         21   -1    0    0  501  502 -0.00000000000E+00 -0.00000000000E+00 -0.46163679138E+02  0.46163679138E+02  0.00000000000E+00 0.  1.
      99926    2    1    2    0    0  0.00000000000E+00  0.00000000000E+00  0.10705106719E+04  0.11628380301E+04  0.45409160504E+03 0.  0.
      99925    2    3    3    0    0 -0.70603108009E+02  0.89169275466E+01  0.89673210143E+03  0.93720379050E+03  0.26297941503E+03 0.  0.
         25    1    3    3    0    0  0.70603108009E+02 -0.89169275466E+01  0.17377857043E+03  0.22563423964E+03  0.12509000000E+03 0.  0.
         25    1    4    4    0    0 -0.47409762635E+02 -0.19491159506E+02  0.35135416990E+03  0.37646361272E+03  0.12509000000E+03 0.  0.
         25    1    4    4    0    0 -0.23193345374E+02  0.28408087052E+02  0.54537793153E+03  0.56074017778E+03  0.12509000000E+03 0.  0.
<mgrwt>
<rscale>  2 0.45409161E+03</rscale>
<asrwt>0</asrwt>
<pdfrwt beam="1">  1       21 0.16421680E+00 0.45409161E+03</pdfrwt>
<pdfrwt beam="2">  1       21 0.67887771E-02 0.45409161E+03</pdfrwt>
<totfact> 0.33593791E+04</totfact>
</mgrwt>
</event>
<event>
 7    0  0.4784406E-002  0.4555511E+03  0.7546771E-02  0.1026079E+00
         21   -1    0    0  502  501  0.00000000000E+00  0.00000000000E+00  0.14404452530E+04  0.14404452530E+04  0.00000000000E+00 0.  1.
         21   -1    0    0  501  502 -0.00000000000E+00 -0.00000000000E+00 -0.36017824641E+02  0.36017824641E+02  0.00000000000E+00 0.  1.
      99926    2    1    2    0    0 -0.17763568394E-14  0.00000000000E+00  0.14044274283E+04  0.14764630776E+04  0.45555111470E+03 0.  0.
      99925    2    3    3    0    0 -0.13054900383E+02 -0.51112282836E+02  0.12097043553E+04  0.12390868379E+04  0.26299937054E+03 0.  0.
         25    1    4    4    0    0 -0.16903286948E+01 -0.53291150517E+02  0.49078458292E+03  0.50927381522E+03  0.12509000000E+03 0.  0.
         25    1    4    4    0    0 -0.11364571689E+02  0.21788676812E+01  0.71891977233E+03  0.72981302270E+03  0.12509000000E+03 0.  0.
         25    1    3    3    0    0  0.13054900383E+02  0.51112282836E+02  0.19472307307E+03  0.23737623968E+03  0.12509000000E+03 0.  0.
<mgrwt>
<rscale>  2 0.45555111E+03</rscale>
<asrwt>0</asrwt>
<pdfrwt beam="1">  1       21 0.21183015E+00 0.45555111E+03</pdfrwt>
<pdfrwt beam="2">  1       21 0.52967399E-02 0.45555111E+03</pdfrwt>
<totfact> 0.24257902E+04</totfact>
</mgrwt>
</event>
<event>
 7    0  0.4784406E-002  0.4616987E+03  0.7546771E-02  0.1024290E+00
         21   -1    0    0  502  501  0.00000000000E+00  0.00000000000E+00  0.64006565301E+02  0.64006565301E+02  0.00000000000E+00 0.  1.
         21   -1    0    0  501  502 -0.00000000000E+00 -0.00000000000E+00 -0.83259323426E+03  0.83259323426E+03  0.00000000000E+00 0.  1.
      99926    2    1    2    0    0 -0.14210854715E-13  0.71054273576E-14 -0.76858666896E+03  0.89659979956E+03  0.46169874688E+03 0.  0.
      99925    2    3    3    0    0 -0.11001747418E+03  0.39219486444E+02 -0.52830979870E+03  0.60160404497E+03  0.26300983021E+03 0.  0.
         25    1    3    3    0    0  0.11001747418E+03 -0.39219486444E+02 -0.24027687026E+03  0.29499575459E+03  0.12509000000E+03 0.  0.
         25    1    4    4    0    0 -0.16668223606E+02  0.21783535377E+02 -0.27841071884E+03  0.30645128251E+03  0.12509000000E+03 0.  0.
         25    1    4    4    0    0 -0.93349250573E+02  0.17435951067E+02 -0.24989907986E+03  0.29515276246E+03  0.12509000000E+03 0.  0.
<mgrwt>
<rscale>  2 0.46169875E+03</rscale>
<asrwt>0</asrwt>
<pdfrwt beam="1">  1       21 0.94127309E-02 0.46169875E+03</pdfrwt>
<pdfrwt beam="2">  1       21 0.12244017E+00 0.46169875E+03</pdfrwt>
<totfact> 0.41178328E+04</totfact>
</mgrwt>
</event>
<event>
 7    0  0.4784406E-002  0.4532219E+03  0.7546771E-02  0.1026766E+00
         21   -1    0    0  502  501  0.00000000000E+00  0.00000000000E+00  0.36732963697E+03  0.36732963697E+03  0.00000000000E+00 0.  1.
         21   -1    0    0  501  502 -0.00000000000E+00 -0.00000000000E+00 -0.13979954502E+03  0.13979954502E+03  0.00000000000E+00 0.  1.
      99926    2    1    2    0    0  0.00000000000E+00  0.14210854715E-13  0.22753009195E+03  0.50712918200E+03  0.45322187115E+03 0.  0.
      99925    2    3    3    0    0 -0.17571333554E+02  0.85570331498E+02  0.22086402675E+03  0.35441055864E+03  0.26304922043E+03 0.  0.
         25    1    4    4    0    0  0.57842614230E+01  0.63660097037E+02  0.15594055263E+03  0.20988337164E+03  0.12509000000E+03 0.  0.
         25    1    3    3    0    0  0.17571333554E+02 -0.85570331498E+02  0.66660651995E+01  0.15271862336E+03  0.12509000000E+03 0.  0.
         25    1    4    4    0    0 -0.23355594977E+02  0.21910234462E+02  0.64923474122E+02  0.14452718700E+03  0.12509000000E+03 0.  0.
<mgrwt>
<rscale>  2 0.45322187E+03</rscale>
<asrwt>0</asrwt>
<pdfrwt beam="1">  1       21 0.54019064E-01 0.45322187E+03</pdfrwt>
<pdfrwt beam="2">  1       21 0.20558757E-01 0.45322187E+03</pdfrwt>
<totfact> 0.65694893E+04</totfact>
</mgrwt>
</event>
<event>
 7    0  0.4784406E-002  0.4545356E+03  0.7546771E-02  0.1026378E+00
         21   -1    0    0  502  501  0.00000000000E+00  0.00000000000E+00  0.95969232707E+03  0.95969232707E+03  0.00000000000E+00 0.  1.
         21   -1    0    0  501  502 -0.00000000000E+00 -0.00000000000E+00 -0.53820016627E+02  0.53820016627E+02  0.00000000000E+00 0.  1.
      99926    2    1    2    0    0  0.00000000000E+00  0.00000000000E+00  0.90587231044E+03  0.10135123437E+04  0.45453561796E+03 0.  0.
      99925    2    3    3    0    0 -0.99597363070E+02 -0.50089315929E+02  0.60782079848E+03  0.67159015052E+03  0.26298028997E+03 0.  0.
         25    1    4    4    0    0 -0.20292084375E+02 -0.50646676929E+02  0.26280505814E+03  0.29612642783E+03  0.12509000000E+03 0.  0.
         25    1    4    4    0    0 -0.79305278696E+02  0.55736099995E+00  0.34501574033E+03  0.37546372269E+03  0.12509000000E+03 0.  0.
         25    1    3    3    0    0  0.99597363070E+02  0.50089315929E+02  0.29805151196E+03  0.34192219317E+03  0.12509000000E+03 0.  0.
<mgrwt>
<rscale>  2 0.45453562E+03</rscale>
<asrwt>0</asrwt>
<pdfrwt beam="1">  1       21 0.14113121E+00 0.45453562E+03</pdfrwt>
<pdfrwt beam="2">  1       21 0.79147090E-02 0.45453562E+03</pdfrwt>
<totfact> 0.38785739E+04</totfact>
</mgrwt>
</event>
<event>
 7    0  0.4784406E-002  0.4563478E+03  0.7546771E-02  0.1025846E+00
         21   -1    0    0  502  501  0.00000000000E+00  0.00000000000E+00  0.36381915774E+02  0.36381915774E+02  0.00000000000E+00 0. -1.
         21   -1    0    0  501  502 -0.00000000000E+00 -0.00000000000E+00 -0.14310222059E+04  0.14310222059E+04  0.00000000000E+00 0. -1.
      99926    2    1    2    0    0  0.00000000000E+00 -0.35527136788E-14 -0.13946402901E+04  0.14674041217E+04  0.45634780318E+03 0.  0.
      99925    2    3    3    0    0 -0.10961458715E+03 -0.31598024755E+02 -0.84919146725E+03  0.89628616594E+03  0.26303792563E+03 0.  0.
         25    1    4    4    0    0 -0.87270478604E+02 -0.34834536566E+02 -0.53344337807E+03  0.55591269735E+03  0.12509000000E+03 0.  0.
         25    1    3    3    0    0  0.10961458715E+03  0.31598024755E+02 -0.54544882289E+03  0.57111795575E+03  0.12509000000E+03 0.  0.
         25    1    4    4    0    0 -0.22344108550E+02  0.32365118112E+01 -0.31574808918E+03  0.34037346859E+03  0.12509000000E+03 0.  0.
<mgrwt>
<rscale>  2 0.45634780E+03</rscale>
<asrwt>0</asrwt>
<pdfrwt beam="1">  1       21 0.53502814E-02 0.45634780E+03</pdfrwt>
<pdfrwt beam="2">  1       21 0.21044445E+00 0.45634780E+03</pdfrwt>
<totfact> 0.24333621E+04</totfact>
</mgrwt>
</event>
<event>
 7    0  0.4784406E-002  0.4548459E+03  0.7546771E-02  0.1026287E+00
         21   -1    0    0  502  501  0.00000000000E+00  0.00000000000E+00  0.39002610043E+03  0.39002610043E+03  0.00000000000E+00 0. -1.
         21   -1    0    0  501  502 -0.00000000000E+00 -0.00000000000E+00 -0.13260959809E+03  0.13260959809E+03  0.00000000000E+00 0. -1.
      99926    2    1    2    0    0  0.00000000000E+00  0.00000000000E+00  0.25741650235E+03  0.52263569852E+03  0.45484592742E+03 0.  0.
      99925    2    3    3    0    0  0.73108943628E+02 -0.81251486084E+02  0.12900253324E+03  0.31267289898E+03  0.26301324405E+03 0.  0.
         25    1    4    4    0    0  0.26204314762E+02  0.76463392999E+00  0.51417537217E+02  0.13776255664E+03  0.12509000000E+03 0.  0.
         25    1    3    3    0    0 -0.73108943628E+02  0.81251486084E+02  0.12841396910E+03  0.20996279954E+03  0.12509000000E+03 0.  0.
         25    1    4    4    0    0  0.46904628866E+02 -0.82016120014E+02  0.77584996024E+02  0.17491034234E+03  0.12509000000E+03 0.  0.
<mgrwt>
<rscale>  2 0.45484593E+03</rscale>
<asrwt>0</asrwt>
<pdfrwt beam="1">  1       21 0.57356779E-01 0.45484593E+03</pdfrwt>
<pdfrwt beam="2">  1       21 0.19501412E-01 0.45484593E+03</pdfrwt>
<totfact> 0.63785621E+04</totfact>
</mgrwt>
</event>
<event>
 7    0  0.4784406E-002  0.4625739E+03  0.7546771E-02  0.1024037E+00
         21   -1    0    0  502  501  0.00000000000E+00  0.00000000000E+00  0.35830273045E+03  0.35830273045E+03  0.00000000000E+00 0. -1.
         21   -1    0    0  501  502 -0.00000000000E+00 -0.00000000000E+00 -0.14929738076E+03  0.14929738076E+03  0.00000000000E+00 0. -1.
      99926    2    1    2    0    0  0.00000000000E+00  0.00000000000E+00  0.20900534969E+03  0.50760011121E+03  0.46257392566E+03 0.  0.
      99925    2    3    3    0    0 -0.79591441496E+02  0.84263593592E+02  0.16226333049E+03  0.33077399543E+03  0.26390698525E+03 0.  0.
         25    1    3    3    0    0  0.79591441496E+02 -0.84263593592E+02  0.46742019201E+02  0.17682611578E+03  0.12509000000E+03 0.  0.
         25    1    4    4    0    0 -0.15436834351E+01  0.24925827691E+02  0.90428670027E+02  0.15636026448E+03  0.12509000000E+03 0.  0.
         25    1    4    4    0    0 -0.78047758061E+02  0.59337765900E+02  0.71834660462E+02  0.17441373095E+03  0.12509000000E+03 0.  0.
<mgrwt>
<rscale>  2 0.46257393E+03</rscale>
<asrwt>0</asrwt>
<pdfrwt beam="1">  1       21 0.52691578E-01 0.46257393E+03</pdfrwt>
<pdfrwt beam="2">  1       21 0.21955497E-01 0.46257393E+03</pdfrwt>
<totfact> 0.60990030E+04</totfact>
</mgrwt>
</event>
<event>
 7    0  0.4784406E-002  0.4571008E+03  0.7546771E-02  0.1025625E+00
         21   -1    0    0  502  501  0.00000000000E+00  0.00000000000E+00  0.42283741752E+03  0.42283741752E+03  0.00000000000E+00 0. -1.
         21   -1    0    0  501  502 -0.00000000000E+00 -0.00000000000E+00 -0.12353515502E+03  0.12353515502E+03  0.00000000000E+00 0. -1.
      99926    2    1    2    0    0  0.00000000000E+00  0.00000000000E+00  0.29930226249E+03  0.54637257254E+03  0.45710080254E+03 0.  0.
      99925    2    3    3    0    0  0.19416020896E+02  0.50065093300E+02  0.66353565517E+02  0.27656505048E+03  0.26306260862E+03 0.  0.
         25    1    4    4    0    0  0.44118673769E+02  0.93590289136E+01  0.48466128296E+02  0.14152922839E+03  0.12509000000E+03 0.  0.
         25    1    3    3    0    0 -0.19416020896E+02 -0.50065093300E+02  0.23294869698E+03  0.26980752206E+03  0.12509000000E+03 0.  0.
         25    1    4    4    0    0 -0.24702652874E+02  0.40706064386E+02  0.17887437221E+02  0.13503582209E+03  0.12509000000E+03 0.  0.
<mgrwt>
<rscale>  2 0.45710080E+03</rscale>
<asrwt>0</asrwt>
<pdfrwt beam="1">  1       21 0.62181972E-01 0.45710080E+03</pdfrwt>
<pdfrwt beam="2">  1       21 0.18166935E-01 0.45710080E+03</pdfrwt>
<totfact> 0.61085088E+04</totfact>
</mgrwt>
</event>
<event>
 7    0  0.4784406E-002  0.4587733E+03  0.7546771E-02  0.1025138E+00
         21   -1    0    0  502  501  0.00000000000E+00  0.00000000000E+00  0.13348695173E+03  0.13348695173E+03  0.00000000000E+00 0.  1.
         21   -1    0    0  501  502 -0.00000000000E+00 -0.00000000000E+00 -0.39418266930E+03  0.39418266930E+03  0.00000000000E+00 0.  1.
      99926    2    1    2    0    0  0.00000000000E+00  0.00000000000E+00 -0.26069571757E+03  0.52766962104E+03  0.45877333380E+03 0.  0.
      99925    2    3    3    0    0 -0.73165547374E+02 -0.33948552276E+02 -0.26055257886E+03  0.37883000899E+03  0.26290459836E+03 0.  0.
         25    1    4    4    0    0 -0.15874683309E+02 -0.96144533788E+01 -0.17172441356E+03  0.21326327766E+03  0.12509000000E+03 0.  0.
         25    1    3    3    0    0  0.73165547374E+02  0.33948552276E+02 -0.14313870801E+00  0.14883961204E+03  0.12509000000E+03 0.  0.
         25    1    4    4    0    0 -0.57290864065E+02 -0.24334098898E+02 -0.88828165305E+02  0.16556673134E+03  0.12509000000E+03 0.  0.
<mgrwt>
<rscale>  2 0.45877333E+03</rscale>
<asrwt>0</asrwt>
<pdfrwt beam="1">  1       21 0.19630434E-01 0.45877333E+03</pdfrwt>
<pdfrwt beam="2">  1       21 0.57968039E-01 0.45877333E+03</pdfrwt>
<totfact> 0.61504168E+04</totfact>
</mgrwt>
</event>
<event>
 7    0  0.4784406E-002  0.4517047E+03  0.7546771E-02  0.1027215E+00
         21   -1    0    0  502  501  0.00000000000E+00  0.00000000000E+00  0.11948110224E+04  0.11948110224E+04  0.00000000000E+00 0.  1.
         21   -1    0    0  501  502 -0.00000000000E+00 -0.00000000000E+00 -0.42692341749E+02  0.42692341749E+02  0.00000000000E+00 0.  1.
      99926    2    1    2    0    0 -0.14210854715E-13  0.00000000000E+00  0.11521186807E+04  0.12375033642E+04  0.45170468447E+03 0.  0.
      99925    2    3    3    0    0  0.73040548922E+02  0.77737123987E+02  0.80157463386E+03  0.85032560256E+03  0.26297101452E+03 0.  0.
         25    1    4    4    0    0  0.77473864218E+02  0.35289171456E+02  0.44728437367E+03  0.47218465062E+03  0.12509000000E+03 0.  0.
         25    1    4    4    0    0 -0.44333152958E+01  0.42447952530E+02  0.35429026020E+03  0.37814095193E+03  0.12509000000E+03 0.  0.
         25    1    3    3    0    0 -0.73040548922E+02 -0.77737123987E+02  0.35054404679E+03  0.38717776159E+03  0.12509000000E+03 0.  0.
<mgrwt>
<rscale>  2 0.45170468E+03</rscale>
<asrwt>0</asrwt>
<pdfrwt beam="1">  1       21 0.17570748E+00 0.45170468E+03</pdfrwt>
<pdfrwt beam="2">  1       21 0.62782863E-02 0.45170468E+03</pdfrwt>
<totfact> 0.31792961E+04</totfact>
</mgrwt>
</event>
<event>
 7    0  0.4784406E-002  0.4572093E+03  0.7546771E-02  0.1025594E+00
         21   -1    0    0  502  501  0.00000000000E+00  0.00000000000E+00  0.14585837379E+03  0.14585837379E+03  0.00000000000E+00 0. -1.
         21   -1    0    0  501  502 -0.00000000000E+00 -0.00000000000E+00 -0.35829337416E+03  0.35829337416E+03  0.00000000000E+00 0. -1.
      99926    2    1    2    0    0  0.00000000000E+00  0.61270433172E-14 -0.21243500038E+03  0.50415174795E+03  0.45720931265E+03 0.  0.
      99925    2    3    3    0    0  0.29759873696E+02 -0.49327030947E-01 -0.25613231997E+03  0.36834815317E+03  0.26304171551E+03 0.  0.
         25    1    4    4    0    0  0.18744189180E+02  0.36333143964E+02 -0.10383930030E+03  0.16763517043E+03  0.12509000000E+03 0.  0.
         25    1    3    3    0    0 -0.29759873696E+02  0.49327030947E-01  0.43697319593E+02  0.13580359478E+03  0.12509000000E+03 0.  0.
         25    1    4    4    0    0  0.11015684516E+02 -0.36382470995E+02 -0.15229301967E+03  0.20071298274E+03  0.12509000000E+03 0.  0.
<mgrwt>
<rscale>  2 0.45720931E+03</rscale>
<asrwt>0</asrwt>
<pdfrwt beam="1">  1       21 0.21449761E-01 0.45720931E+03</pdfrwt>
<pdfrwt beam="2">  1       21 0.52690202E-01 0.45720931E+03</pdfrwt>
<totfact> 0.63852825E+04</totfact>
</mgrwt>
</event>
<event>
 7    0  0.4784406E-002  0.4597129E+03  0.7546771E-02  0.1024865E+00
         21   -1    0    0  502  501  0.00000000000E+00  0.00000000000E+00  0.84584156643E+03  0.84584156643E+03  0.00000000000E+00 0.  1.
         21   -1    0    0  501  502 -0.00000000000E+00 -0.00000000000E+00 -0.62463208494E+02  0.62463208494E+02  0.00000000000E+00 0.  1.
      99926    2    1    2    0    0 -0.71054273576E-14  0.14210854715E-13  0.78337835794E+03  0.90830477492E+03  0.45971285871E+03 0.  0.
      99925    2    3    3    0    0  0.57215574637E+02 -0.73041200992E+02  0.63341716255E+03  0.69209999411E+03  0.26301418406E+03 0.  0.
         25    1    4    4    0    0  0.15656000090E+02  0.25327731414E-01  0.33139812644E+03  0.35456640745E+03  0.12509000000E+03 0.  0.
         25    1    4    4    0    0  0.41559574547E+02 -0.73066528724E+02  0.30201903611E+03  0.33753358667E+03  0.12509000000E+03 0.  0.
         25    1    3    3    0    0 -0.57215574637E+02  0.73041200992E+02  0.14996119538E+03  0.21620478081E+03  0.12509000000E+03 0.  0.
<mgrwt>
<rscale>  2 0.45971286E+03</rscale>
<asrwt>0</asrwt>
<pdfrwt beam="1">  1       21 0.12438846E+00 0.45971286E+03</pdfrwt>
<pdfrwt beam="2">  1       21 0.91857664E-02 0.45971286E+03</pdfrwt>
<totfact> 0.41330478E+04</totfact>
</mgrwt>
</event>
<event>
 7    0  0.4784406E-002  0.4551990E+03  0.7546771E-02  0.1026183E+00
         21   -1    0    0  502  501  0.00000000000E+00  0.00000000000E+00  0.38884155421E+03  0.38884155421E+03  0.00000000000E+00 0.  1.
         21   -1    0    0  501  502 -0.00000000000E+00 -0.00000000000E+00 -0.13322013782E+03  0.13322013782E+03  0.00000000000E+00 0.  1.
      99926    2    1    2    0    0  0.00000000000E+00  0.71054273576E-14  0.25562141639E+03  0.52206169203E+03  0.45519896943E+03 0.  0.
      99925    2    3    3    0    0  0.99877470790E+02 -0.43465892131E+02  0.19667236507E+03  0.34602961626E+03  0.26304312041E+03 0.  0.
         25    1    4    4    0    0  0.78173594964E+02 -0.42342825366E+02  0.13709309709E+03  0.20578156180E+03  0.12509000000E+03 0.  0.
         25    1    4    4    0    0  0.21703875825E+02 -0.11230667646E+01  0.59579267985E+02  0.14024805445E+03  0.12509000000E+03 0.  0.
         25    1    3    3    0    0 -0.99877470790E+02  0.43465892131E+02  0.58949051317E+02  0.17603207577E+03  0.12509000000E+03 0.  0.
<mgrwt>
<rscale>  2 0.45519897E+03</rscale>
<asrwt>0</asrwt>
<pdfrwt beam="1">  1       21 0.57182581E-01 0.45519897E+03</pdfrwt>
<pdfrwt beam="2">  1       21 0.19591197E-01 0.45519897E+03</pdfrwt>
<totfact> 0.63646473E+04</totfact>
</mgrwt>
</event>
<event>
 7    0  0.4784406E-002  0.4530767E+03  0.7546771E-02  0.1026808E+00
         21   -1    0    0  502  501  0.00000000000E+00  0.00000000000E+00  0.97708390125E+02  0.97708390125E+02  0.00000000000E+00 0. -1.
         21   -1    0    0  501  502 -0.00000000000E+00 -0.00000000000E+00 -0.52523255488E+03  0.52523255488E+03  0.00000000000E+00 0. -1.
      99926    2    1    2    0    0  0.00000000000E+00  0.00000000000E+00 -0.42752416475E+03  0.62294094500E+03  0.45307671482E+03 0.  0.
      99925    2    3    3    0    0  0.12399143584E+02 -0.11075514153E+03 -0.26911265772E+03  0.39237174975E+03  0.26289451748E+03 0.  0.
         25    1    4    4    0    0  0.22257666924E+01 -0.96714278882E+02 -0.16677358847E+03  0.22982502842E+03  0.12509000000E+03 0.  0.
         25    1    4    4    0    0  0.10173376891E+02 -0.14040862648E+02 -0.10233906925E+03  0.16254672133E+03  0.12509000000E+03 0.  0.
         25    1    3    3    0    0 -0.12399143584E+02  0.11075514153E+03 -0.15841150704E+03  0.23056919525E+03  0.12509000000E+03 0.  0.
<mgrwt>
<rscale>  2 0.45307671E+03</rscale>
<asrwt>0</asrwt>
<pdfrwt beam="1">  1       21 0.14368881E-01 0.45307671E+03</pdfrwt>
<pdfrwt beam="2">  1       21 0.77240084E-01 0.45307671E+03</pdfrwt>
<totfact> 0.58166228E+04</totfact>
</mgrwt>
</event>
<event>
 7    0  0.4784406E-002  0.4381255E+03  0.7546771E-02  0.1031324E+00
         21   -1    0    0  502  501  0.00000000000E+00  0.00000000000E+00  0.13659052065E+03  0.13659052065E+03  0.00000000000E+00 0. -1.
         21   -1    0    0  501  502 -0.00000000000E+00 -0.00000000000E+00 -0.35133096357E+03  0.35133096357E+03  0.00000000000E+00 0. -1.
      99926    2    1    2    0    0  0.00000000000E+00  0.00000000000E+00 -0.21474044293E+03  0.48792148422E+03  0.43812545799E+03 0.  0.
      99925    2    3    3    0    0 -0.41049518537E+02  0.85054065564E+02 -0.11541845624E+03  0.30236388621E+03  0.26302707579E+03 0.  0.
         25    1    4    4    0    0 -0.45749407133E+02  0.69255003459E+02 -0.39960755612E+02  0.15535003652E+03  0.12509000000E+03 0.  0.
         25    1    3    3    0    0  0.41049518537E+02 -0.85054065564E+02 -0.99321986689E+02  0.18555759801E+03  0.12509000000E+03 0.  0.
         25    1    4    4    0    0  0.46998885961E+01  0.15799062105E+02 -0.75457700627E+02  0.14701384969E+03  0.12509000000E+03 0.  0.
<mgrwt>
<rscale>  2 0.43812546E+03</rscale>
<asrwt>0</asrwt>
<pdfrwt beam="1">  1       21 0.20086841E-01 0.43812546E+03</pdfrwt>
<pdfrwt beam="2">  1       21 0.51666318E-01 0.43812546E+03</pdfrwt>
<totfact> 0.75781572E+04</totfact>
</mgrwt>
</event>
<event>
 7    0  0.4784406E-002  0.4406717E+03  0.7546771E-02  0.1030541E+00
         21   -1    0    0  502  501  0.00000000000E+00  0.00000000000E+00  0.33013192367E+03  0.33013192367E+03  0.00000000000E+00 0.  1.
         21   -1    0    0  501  502 -0.00000000000E+00 -0.00000000000E+00 -0.14705602067E+03  0.14705602067E+03  0.00000000000E+00 0.  1.
      99926    2    1    2    0    0  0.00000000000E+00 -0.71054273576E-14  0.18307590301E+03  0.47718794434E+03  0.44067170088E+03 0.  0.
      99925    2    3    3    0    0  0.76399068675E+02 -0.59354190824E+02  0.93056497645E+02  0.29522437902E+03  0.26294140897E+03 0.  0.
         25    1    3    3    0    0 -0.76399068675E+02  0.59354190824E+02  0.90019405360E+02  0.18196356532E+03  0.12509000000E+03 0.  0.
         25    1    4    4    0    0  0.39283554779E+02  0.41249862899E+01  0.68743546843E+02  0.14809927927E+03  0.12509000000E+03 0.  0.
         25    1    4    4    0    0  0.37115513896E+02 -0.63479177114E+02  0.24312950802E+02  0.14712509975E+03  0.12509000000E+03 0.  0.
<mgrwt>
<rscale>  2 0.44067170E+03</rscale>
<asrwt>0</asrwt>
<pdfrwt beam="1">  1       21 0.48548812E-01 0.44067170E+03</pdfrwt>
<pdfrwt beam="2">  1       21 0.21625885E-01 0.44067170E+03</pdfrwt>
<totfact> 0.75089585E+04</totfact>
</mgrwt>
</event>
<event>
 7    0  0.4784406E-002  0.4518964E+03  0.7546771E-02  0.1027158E+00
         21   -1    0    0  502  501  0.00000000000E+00  0.00000000000E+00  0.17492856814E+03  0.17492856814E+03  0.00000000000E+00 0. -1.
         21   -1    0    0  501  502 -0.00000000000E+00 -0.00000000000E+00 -0.29184825623E+03  0.29184825623E+03  0.00000000000E+00 0. -1.
      99926    2    1    2    0    0  0.00000000000E+00  0.00000000000E+00 -0.11691968810E+03  0.46677682437E+03  0.45189643759E+03 0.  0.
      99925    2    3    3    0    0  0.27290696331E+02 -0.83682071281E+02 -0.14299590333E+03  0.31161578461E+03  0.26250542411E+03 0.  0.
         25    1    4    4    0    0 -0.58907478779E+00 -0.35081311480E+02 -0.28466948837E+02  0.13299970188E+03  0.12509000000E+03 0.  0.
         25    1    3    3    0    0 -0.27290696331E+02  0.83682071281E+02  0.26076215231E+02  0.15516103976E+03  0.12509000000E+03 0.  0.
         25    1    4    4    0    0  0.27879771119E+02 -0.48600759801E+02 -0.11452895449E+03  0.17861608273E+03  0.12509000000E+03 0.  0.
<mgrwt>
<rscale>  2 0.45189644E+03</rscale>
<asrwt>0</asrwt>
<pdfrwt beam="1">  1       21 0.25724790E-01 0.45189644E+03</pdfrwt>
<pdfrwt beam="2">  1       21 0.42918861E-01 0.45189644E+03</pdfrwt>
<totfact> 0.69368382E+04</totfact>
</mgrwt>
</event>
<event>
 7    0  0.4784406E-002  0.4582777E+03  0.7546771E-02  0.1025282E+00
         21   -1    0    0  502  501  0.00000000000E+00  0.00000000000E+00  0.58473480058E+03  0.58473480058E+03  0.00000000000E+00 0.  1.
         21   -1    0    0  501  502 -0.00000000000E+00 -0.00000000000E+00 -0.89792193784E+02  0.89792193784E+02  0.00000000000E+00 0.  1.
      99926    2    1    2    0    0 -0.14210854715E-13  0.00000000000E+00  0.49494260679E+03  0.67452699436E+03  0.45827773468E+03 0.  0.
      99925    2    3    3    0    0 -0.85280851732E+02 -0.93559825696E+01  0.19556999883E+03  0.33892034278E+03  0.26317107788E+03 0.  0.
         25    1    3    3    0    0  0.85280851732E+02  0.93559825696E+01  0.29937260796E+03  0.33560665157E+03  0.12509000000E+03 0.  0.
         25    1    4    4    0    0 -0.82192067204E+02 -0.88263263466E-01  0.12471551213E+03  0.19482559064E+03  0.12509000000E+03 0.  0.
         25    1    4    4    0    0 -0.30887845283E+01 -0.92677193061E+01  0.70854486693E+02  0.14409475214E+03  0.12509000000E+03 0.  0.
<mgrwt>
<rscale>  2 0.45827773E+03</rscale>
<asrwt>0</asrwt>
<pdfrwt beam="1">  1       21 0.85990411E-01 0.45827773E+03</pdfrwt>
<pdfrwt beam="2">  1       21 0.13204735E-01 0.45827773E+03</pdfrwt>
<totfact> 0.52927570E+04</totfact>
</mgrwt>
</event>
<event>
 7    0  0.4784406E-002  0.4587456E+03  0.7546771E-02  0.1025146E+00
         21   -1    0    0  502  501  0.00000000000E+00  0.00000000000E+00  0.58191720152E+03  0.58191720152E+03  0.00000000000E+00 0. -1.
         21   -1    0    0  501  502 -0.00000000000E+00 -0.00000000000E+00 -0.90411295116E+02  0.90411295116E+02  0.00000000000E+00 0. -1.
      99926    2    1    2    0    0  0.00000000000E+00 -0.14210854715E-13  0.49150590640E+03  0.67232849664E+03  0.45874562816E+03 0.  0.
      99925    2    3    3    0    0 -0.62188687541E+02 -0.75515269816E+02  0.21516018465E+03  0.35360533327E+03  0.26300729615E+03 0.  0.
         25    1    3    3    0    0  0.62188687541E+02  0.75515269816E+02  0.27634572175E+03  0.31872316336E+03  0.12509000000E+03 0.  0.
         25    1    4    4    0    0  0.75922772657E+00 -0.60502633428E+02  0.93370909322E+02  0.16741200640E+03  0.12509000000E+03 0.  0.
         25    1    4    4    0    0 -0.62947915267E+02 -0.15012636389E+02  0.12178927533E+03  0.18619332688E+03  0.12509000000E+03 0.  0.
<mgrwt>
<rscale>  2 0.45874563E+03</rscale>
<asrwt>0</asrwt>
<pdfrwt beam="1">  1       21 0.85576057E-01 0.45874563E+03</pdfrwt>
<pdfrwt beam="2">  1       21 0.13295779E-01 0.45874563E+03</pdfrwt>
<totfact> 0.52853557E+04</totfact>
</mgrwt>
</event>
<event>
 7    0  0.4784406E-002  0.4149911E+03  0.7546771E-02  0.1038709E+00
         21   -1    0    0  502  501  0.00000000000E+00  0.00000000000E+00  0.81125466907E+02  0.81125466907E+02  0.00000000000E+00 0. -1.
         21   -1    0    0  501  502 -0.00000000000E+00 -0.00000000000E+00 -0.53071373358E+03  0.53071373358E+03  0.00000000000E+00 0. -1.
      99926    2    1    2    0    0 -0.14210854715E-13 -0.17763568394E-14 -0.44958826668E+03  0.61183920049E+03  0.41499108150E+03 0.  0.
      99925    2    3    3    0    0  0.68696741483E+02 -0.89978797497E+01 -0.29804682554E+03  0.40348248567E+03  0.26299430012E+03 0.  0.
         25    1    4    4    0    0  0.10477437095E+01  0.20185230347E+02 -0.13400993229E+03  0.18443077656E+03  0.12509000000E+03 0.  0.
         25    1    3    3    0    0 -0.68696741483E+02  0.89978797497E+01 -0.15154144114E+03  0.20835671483E+03  0.12509000000E+03 0.  0.
         25    1    4    4    0    0  0.67648997774E+02 -0.29183110096E+02 -0.16403689325E+03  0.21905170910E+03  0.12509000000E+03 0.  0.
<mgrwt>
<rscale>  2 0.41499108E+03</rscale>
<asrwt>0</asrwt>
<pdfrwt beam="1">  1       21 0.11930216E-01 0.41499108E+03</pdfrwt>
<pdfrwt beam="2">  1       21 0.78046138E-01 0.41499108E+03</pdfrwt>
<totfact> 0.80534480E+04</totfact>
</mgrwt>
</event>
<event>
 7    0  0.4784406E-002  0.4465107E+03  0.7546771E-02  0.1028768E+00
         21   -1    0    0  502  501  0.00000000000E+00  0.00000000000E+00  0.46336113798E+03  0.46336113798E+03  0.00000000000E+00 0. -1.
         21   -1    0    0  501  502 -0.00000000000E+00 -0.00000000000E+00 -0.10756824623E+03  0.10756824623E+03  0.00000000000E+00 0. -1.
      99926    2    1    2    0    0  0.00000000000E+00  0.35527136788E-14  0.35579289174E+03  0.57092938421E+03  0.44651067169E+03 0.  0.
      99925    2    3    3    0    0  0.87263181250E+02 -0.21720430243E+02  0.15603140156E+03  0.31866206379E+03  0.26289365289E+03 0.  0.
         25    1    3    3    0    0 -0.87263181250E+02  0.21720430243E+02  0.19976149018E+03  0.25226732042E+03  0.12509000000E+03 0.  0.
         25    1    4    4    0    0  0.30044230345E+02 -0.43511490556E+02  0.99497171312E+02  0.16835409347E+03  0.12509000000E+03 0.  0.
         25    1    4    4    0    0  0.57218950905E+02  0.21791060314E+02  0.56534230250E+02  0.15030797032E+03  0.12509000000E+03 0.  0.
<mgrwt>
<rscale>  2 0.44651067E+03</rscale>
<asrwt>0</asrwt>
<pdfrwt beam="1">  1       21 0.68141343E-01 0.44651067E+03</pdfrwt>
<pdfrwt beam="2">  1       21 0.15818860E-01 0.44651067E+03</pdfrwt>
<totfact> 0.64742146E+04</totfact>
</mgrwt>
</event>
<event>
 7    0  0.4784406E-002  0.4537819E+03  0.7546771E-02  0.1026600E+00
         21   -1    0    0  502  501  0.00000000000E+00  0.00000000000E+00  0.20643823591E+03  0.20643823591E+03  0.00000000000E+00 0.  1.
         21   -1    0    0  501  502 -0.00000000000E+00 -0.00000000000E+00 -0.24937001385E+03  0.24937001385E+03  0.00000000000E+00 0.  1.
      99926    2    1    2    0    0 -0.71054273576E-14  0.71054273576E-14 -0.42931777935E+02  0.45580824976E+03  0.45378191127E+03 0.  0.
      99925    2    3    3    0    0  0.53579287420E+02  0.43037994926E+02 -0.11642106044E+03  0.29527416681E+03  0.26250706890E+03 0.  0.
         25    1    4    4    0    0  0.10438647500E+02  0.42264914857E+02 -0.90557876508E+02  0.16044789025E+03  0.12509000000E+03 0.  0.
         25    1    4    4    0    0  0.43140639921E+02  0.77308006877E+00 -0.25863183933E+02  0.13482627655E+03  0.12509000000E+03 0.  0.
         25    1    3    3    0    0 -0.53579287420E+02 -0.43037994926E+02  0.73489282506E+02  0.16053408296E+03  0.12509000000E+03 0.  0.
<mgrwt>
<rscale>  2 0.45378191E+03</rscale>
<asrwt>0</asrwt>
<pdfrwt beam="1">  1       21 0.30358564E-01 0.45378191E+03</pdfrwt>
<pdfrwt beam="2">  1       21 0.36672060E-01 0.45378191E+03</pdfrwt>
<totfact> 0.69156294E+04</totfact>
</mgrwt>
</event>
<event>
 7    0  0.4784406E-002  0.4567815E+03  0.7546771E-02  0.1025719E+00
         21   -1    0    0  502  501  0.00000000000E+00  0.00000000000E+00  0.69618942484E+03  0.69618942484E+03  0.00000000000E+00 0.  1.
         21   -1    0    0  501  502 -0.00000000000E+00 -0.00000000000E+00 -0.74925490447E+02  0.74925490447E+02  0.00000000000E+00 0.  1.
      99926    2    1    2    0    0  0.00000000000E+00 -0.71054273576E-14  0.62126393440E+03  0.77111491529E+03  0.45678149744E+03 0.  0.
      99925    2    3    3    0    0 -0.91448303764E+02 -0.40130250992E+02  0.48613533010E+03  0.56163824092E+03  0.26293863388E+03 0.  0.
         25    1    3    3    0    0  0.91448303764E+02  0.40130250992E+02  0.13512860430E+03  0.20947667437E+03  0.12509000000E+03 0.  0.
         25    1    4    4    0    0 -0.59327321552E+02  0.14390417155E+02  0.20972844300E+03  0.25171480507E+03  0.12509000000E+03 0.  0.
         25    1    4    4    0    0 -0.32120982212E+02 -0.54520668147E+02  0.27640688710E+03  0.30992343585E+03  0.12509000000E+03 0.  0.
<mgrwt>
<rscale>  2 0.45678150E+03</rscale>
<asrwt>0</asrwt>
<pdfrwt beam="1">  1       21 0.10238079E+00 0.45678150E+03</pdfrwt>
<pdfrwt beam="2">  1       21 0.11018455E-01 0.45678150E+03</pdfrwt>
<totfact> 0.48511658E+04</totfact>
</mgrwt>
</event>
<event>
 7    0  0.4784406E-002  0.4501159E+03  0.7546771E-02  0.1027687E+00
         21   -1    0    0  502  501  0.00000000000E+00  0.00000000000E+00  0.18017775496E+02  0.18017775496E+02  0.00000000000E+00 0.  1.
         21   -1    0    0  501  502 -0.00000000000E+00 -0.00000000000E+00 -0.28111724345E+04  0.28111724345E+04  0.00000000000E+00 0.  1.
      99926    2    1    2    0    0  0.00000000000E+00 -0.31086244690E-14 -0.27931546590E+04  0.28291902100E+04  0.45011586866E+03 0.  0.
      99925    2    3    3    0    0 -0.37705308631E+02 -0.26886009573E+01 -0.24047669651E+04  0.24194080389E+04  0.26306307868E+03 0.  0.
         25    1    4    4    0    0 -0.12962184786E+02 -0.40548371229E+02 -0.12806319696E+04  0.12874307508E+04  0.12509000000E+03 0.  0.
         25    1    4    4    0    0 -0.24743123845E+02  0.37859770271E+02 -0.11241349956E+04  0.11319772881E+04  0.12509000000E+03 0.  0.
         25    1    3    3    0    0  0.37705308631E+02  0.26886009573E+01 -0.38838769388E+03  0.40978217108E+03  0.12509000000E+03 0.  0.
<mgrwt>
<rscale>  2 0.45011587E+03</rscale>
<asrwt>0</asrwt>
<pdfrwt beam="1">  1       21 0.26496740E-02 0.45011587E+03</pdfrwt>
<pdfrwt beam="2">  1       21 0.41340753E+00 0.45011587E+03</pdfrwt>
<totfact> 0.44841262E+03</totfact>
</mgrwt>
</event>
<event>
 7    0  0.4784406E-002  0.4625735E+03  0.7546771E-02  0.1024037E+00
         21   -1    0    0  502  501  0.00000000000E+00  0.00000000000E+00  0.59864481298E+03  0.59864481298E+03  0.00000000000E+00 0.  1.
         21   -1    0    0  501  502 -0.00000000000E+00 -0.00000000000E+00 -0.89357775413E+02  0.89357775413E+02  0.00000000000E+00 0.  1.
      99926    2    1    2    0    0  0.00000000000E+00  0.14210854715E-13  0.50928703756E+03  0.68800258839E+03  0.46257353469E+03 0.  0.
      99925    2    3    3    0    0 -0.41894580506E+02 -0.95425186084E+02  0.40730979619E+03  0.49588807079E+03  0.26294977973E+03 0.  0.
         25    1    4    4    0    0 -0.11542253104E+02 -0.11304277224E+02  0.14841155082E+03  0.19476782795E+03  0.12509000000E+03 0.  0.
         25    1    3    3    0    0  0.41894580506E+02  0.95425186084E+02  0.10197724137E+03  0.19211451760E+03  0.12509000000E+03 0.  0.
         25    1    4    4    0    0 -0.30352327402E+02 -0.84120908860E+02  0.25889824538E+03  0.30112024283E+03  0.12509000000E+03 0.  0.
<mgrwt>
<rscale>  2 0.46257353E+03</rscale>
<asrwt>0</asrwt>
<pdfrwt beam="1">  1       21 0.88036000E-01 0.46257353E+03</pdfrwt>
<pdfrwt beam="2">  1       21 0.13140850E-01 0.46257353E+03</pdfrwt>
<totfact> 0.50480335E+04</totfact>
</mgrwt>
</event>
<event>
 7    0  0.4784406E-002  0.4540210E+03  0.7546771E-02  0.1026530E+00
         21   -1    0    0  502  501  0.00000000000E+00  0.00000000000E+00  0.53406348263E+03  0.53406348263E+03  0.00000000000E+00 0.  1.
         21   -1    0    0  501  502 -0.00000000000E+00 -0.00000000000E+00 -0.96493698954E+02  0.96493698954E+02  0.00000000000E+00 0.  1.
      99926    2    1    2    0    0  0.35527136788E-14  0.71054273576E-14  0.43756978367E+03  0.63055718158E+03  0.45402097271E+03 0.  0.
      99925    2    3    3    0    0 -0.25166434175E+02 -0.53529179495E+02  0.14322343227E+03  0.30530957567E+03  0.26306323000E+03 0.  0.
         25    1    4    4    0    0  0.15335233413E+01 -0.37151486253E+02  0.11355650503E+03  0.17298893768E+03  0.12509000000E+03 0.  0.
         25    1    3    3    0    0  0.25166434175E+02  0.53529179495E+02  0.29434635140E+03  0.32524760591E+03  0.12509000000E+03 0.  0.
         25    1    4    4    0    0 -0.26699957517E+02 -0.16377693242E+02  0.29666927245E+02  0.13232063800E+03  0.12509000000E+03 0.  0.
<mgrwt>
<rscale>  2 0.45402097E+03</rscale>
<asrwt>0</asrwt>
<pdfrwt beam="1">  1       21 0.78538746E-01 0.45402097E+03</pdfrwt>
<pdfrwt beam="2">  1       21 0.14190250E-01 0.45402097E+03</pdfrwt>
<totfact> 0.57277106E+04</totfact>
</mgrwt>
</event>
<event>
 7    0  0.4784406E-002  0.4507236E+03  0.7546771E-02  0.1027506E+00
         21   -1    0    0  502  501  0.00000000000E+00  0.00000000000E+00  0.53399949359E+03  0.53399949359E+03  0.00000000000E+00 0. -1.
         21   -1    0    0  501  502 -0.00000000000E+00 -0.00000000000E+00 -0.95108584122E+02  0.95108584122E+02  0.00000000000E+00 0. -1.
      99926    2    1    2    0    0  0.00000000000E+00  0.00000000000E+00  0.43889090947E+03  0.62910807771E+03  0.45072357718E+03 0.  0.
      99925    2    3    3    0    0  0.23941863195E+02  0.97204945347E+02  0.21665637263E+03  0.35514145260E+03  0.26298945481E+03 0.  0.
         25    1    4    4    0    0  0.15751513290E+00  0.85506912024E+01  0.83083430904E+02  0.15041111569E+03  0.12509000000E+03 0.  0.
         25    1    4    4    0    0  0.23784348062E+02  0.88654254145E+02  0.13357294172E+03  0.20473033691E+03  0.12509000000E+03 0.  0.
         25    1    3    3    0    0 -0.23941863195E+02 -0.97204945347E+02  0.22223453684E+03  0.27396662512E+03  0.12509000000E+03 0.  0.
<mgrwt>
<rscale>  2 0.45072358E+03</rscale>
<asrwt>0</asrwt>
<pdfrwt beam="1">  1       21 0.78529336E-01 0.45072358E+03</pdfrwt>
<pdfrwt beam="2">  1       21 0.13986557E-01 0.45072358E+03</pdfrwt>
<totfact> 0.58884219E+04</totfact>
</mgrwt>
</event>
<event>
 7    0  0.4784406E-002  0.4533148E+03  0.7546771E-02  0.1026738E+00
         21   -1    0    0  502  501  0.00000000000E+00  0.00000000000E+00  0.21982523845E+03  0.21982523845E+03  0.00000000000E+00 0.  1.
         21   -1    0    0  501  502 -0.00000000000E+00 -0.00000000000E+00 -0.23370193391E+03  0.23370193391E+03  0.00000000000E+00 0.  1.
      99926    2    1    2    0    0  0.00000000000E+00  0.00000000000E+00 -0.13876695458E+02  0.45352717236E+03  0.45331482812E+03 0.  0.
      99925    2    3    3    0    0 -0.10255273514E+03 -0.39269612307E+02 -0.28220613049E+02  0.28645706131E+03  0.26306288039E+03 0.  0.
         25    1    3    3    0    0  0.10255273514E+03  0.39269612307E+02  0.14343917590E+02  0.16707011105E+03  0.12509000000E+03 0.  0.
         25    1    4    4    0    0 -0.79683798128E+02 -0.38613843319E+02 -0.41011265936E+02  0.15865046049E+03  0.12509000000E+03 0.  0.
         25    1    4    4    0    0 -0.22868937008E+02 -0.65576898778E+00  0.12790652887E+02  0.12780660082E+03  0.12509000000E+03 0.  0.
<mgrwt>
<rscale>  2 0.45331483E+03</rscale>
<asrwt>0</asrwt>
<pdfrwt beam="1">  1       21 0.32327241E-01 0.45331483E+03</pdfrwt>
<pdfrwt beam="2">  1       21 0.34367931E-01 0.45331483E+03</pdfrwt>
<totfact> 0.69584767E+04</totfact>
</mgrwt>
</event>
<event>
 7    0  0.4784406E-002  0.4564448E+03  0.7546771E-02  0.1025817E+00
         21   -1    0    0  502  501  0.00000000000E+00  0.00000000000E+00  0.18120732249E+03  0.18120732249E+03  0.00000000000E+00 0.  1.
         21   -1    0    0  501  502 -0.00000000000E+00 -0.00000000000E+00 -0.28743581698E+03  0.28743581698E+03  0.00000000000E+00 0.  1.
      99926    2    1    2    0    0  0.00000000000E+00 -0.71054273576E-14 -0.10622849449E+03  0.46864313948E+03  0.45644484786E+03 0.  0.
      99925    2    3    3    0    0  0.95212374152E+02 -0.48577704291E+02 -0.10895159370E+03  0.30408277695E+03  0.26300322416E+03 0.  0.
         25    1    4    4    0    0  0.70912143364E+02  0.10945586584E+01 -0.79023434934E+02  0.16407907089E+03  0.12509000000E+03 0.  0.
         25    1    3    3    0    0 -0.95212374152E+02  0.48577704291E+02  0.27230992131E+01  0.16456036253E+03  0.12509000000E+03 0.  0.
         25    1    4    4    0    0  0.24300230788E+02 -0.49672262949E+02 -0.29928158770E+02  0.14000370606E+03  0.12509000000E+03 0.  0.
<mgrwt>
<rscale>  2 0.45644485E+03</rscale>
<asrwt>0</asrwt>
<pdfrwt beam="1">  1       21 0.26648136E-01 0.45644485E+03</pdfrwt>
<pdfrwt beam="2">  1       21 0.42269973E-01 0.45644485E+03</pdfrwt>
<totfact> 0.66768442E+04</totfact>
</mgrwt>
</event>
<event>
 7    0  0.4784406E-002  0.4245454E+03  0.7546771E-02  0.1035597E+00
         21   -1    0    0  502  501  0.00000000000E+00  0.00000000000E+00  0.73835096046E+03  0.73835096046E+03  0.00000000000E+00 0.  1.
         21   -1    0    0  501  502 -0.00000000000E+00 -0.00000000000E+00 -0.61027471296E+02  0.61027471296E+02  0.00000000000E+00 0.  1.
      99926    2    1    2    0    0  0.00000000000E+00  0.00000000000E+00  0.67732348916E+03  0.79937843176E+03  0.42454536646E+03 0.  0.
      99925    2    3    3    0    0 -0.11946886746E+02 -0.77173889452E+02  0.48350105629E+03  0.55583545629E+03  0.26283311381E+03 0.  0.
         25    1    3    3    0    0  0.11946886746E+02  0.77173889452E+02  0.19382243287E+03  0.24354297547E+03  0.12509000000E+03 0.  0.
         25    1    4    4    0    0 -0.30637883920E+02 -0.35403100328E+02  0.17782008287E+03  0.22239503011E+03  0.12509000000E+03 0.  0.
         25    1    4    4    0    0  0.18690997174E+02 -0.41770789124E+02  0.30568097342E+03  0.33344042618E+03  0.12509000000E+03 0.  0.
<mgrwt>
<rscale>  2 0.42454537E+03</rscale>
<asrwt>0</asrwt>
<pdfrwt beam="1">  1       21 0.10858102E+00 0.42454537E+03</pdfrwt>
<pdfrwt beam="2">  1       21 0.89746286E-02 0.42454537E+03</pdfrwt>
<totfact> 0.61152805E+04</totfact>
</mgrwt>
</event>
<event>
 7    0  0.4784406E-002  0.4485507E+03  0.7546771E-02  0.1028155E+00
         21   -1    0    0  502  501  0.00000000000E+00  0.00000000000E+00  0.20785139134E+03  0.20785139134E+03  0.00000000000E+00 0.  1.
         21   -1    0    0  501  502 -0.00000000000E+00 -0.00000000000E+00 -0.24199711029E+03  0.24199711029E+03  0.00000000000E+00 0.  1.
      99926    2    1    2    0    0  0.00000000000E+00 -0.35527136788E-14 -0.34145718943E+02  0.44984850163E+03  0.44855071541E+03 0.  0.
      99925    2    3    3    0    0  0.42711078385E+02 -0.12426536456E+02 -0.11923328441E+03  0.29215875268E+03  0.26298575177E+03 0.  0.
         25    1    4    4    0    0  0.49738367787E+02  0.20285749257E+02 -0.47859083663E+02  0.14430321148E+03  0.12509000000E+03 0.  0.
         25    1    4    4    0    0 -0.70272894021E+01 -0.32712285713E+02 -0.71374200751E+02  0.14785554121E+03  0.12509000000E+03 0.  0.
         25    1    3    3    0    0 -0.42711078385E+02  0.12426536456E+02  0.85087565471E+02  0.15768974895E+03  0.12509000000E+03 0.  0.
<mgrwt>
<rscale>  2 0.44855072E+03</rscale>
<asrwt>0</asrwt>
<pdfrwt beam="1">  1       21 0.30566381E-01 0.44855072E+03</pdfrwt>
<pdfrwt beam="2">  1       21 0.35587810E-01 0.44855072E+03</pdfrwt>
<totfact> 0.72588792E+04</totfact>
</mgrwt>
</event>
<event>
 7    0  0.4784406E-002  0.4573891E+03  0.7546771E-02  0.1025541E+00
         21   -1    0    0  502  501  0.00000000000E+00  0.00000000000E+00  0.16121025106E+03  0.16121025106E+03  0.00000000000E+00 0.  1.
         21   -1    0    0  501  502 -0.00000000000E+00 -0.00000000000E+00 -0.32442843039E+03  0.32442843039E+03  0.00000000000E+00 0.  1.
      99926    2    1    2    0    0 -0.53290705182E-14  0.00000000000E+00 -0.16321817933E+03  0.48563868145E+03  0.45738906289E+03 0.  0.
      99925    2    3    3    0    0 -0.30391468712E+01  0.21803911305E+02 -0.22263310466E+03  0.34541639929E+03  0.26317739767E+03 0.  0.
         25    1    4    4    0    0  0.35645246762E+02 -0.17457642883E+01 -0.95217489425E+02  0.16120641954E+03  0.12509000000E+03 0.  0.
         25    1    3    3    0    0  0.30391468712E+01 -0.21803911305E+02  0.59414925332E+02  0.14022228216E+03  0.12509000000E+03 0.  0.
         25    1    4    4    0    0 -0.38684393633E+02  0.23549675593E+02 -0.12741561523E+03  0.18420997974E+03  0.12509000000E+03 0.  0.
<mgrwt>
<rscale>  2 0.45738906E+03</rscale>
<asrwt>0</asrwt>
<pdfrwt beam="1">  1       21 0.23707390E-01 0.45738906E+03</pdfrwt>
<pdfrwt beam="2">  1       21 0.47710063E-01 0.45738906E+03</pdfrwt>
<totfact> 0.65049440E+04</totfact>
</mgrwt>
</event>
<event>
 7    0  0.4784406E-002  0.4549439E+03  0.7546771E-02  0.1026258E+00
         21   -1    0    0  502  501  0.00000000000E+00  0.00000000000E+00  0.12453300938E+04  0.12453300938E+04  0.00000000000E+00 0.  1.
         21   -1    0    0  501  502 -0.00000000000E+00 -0.00000000000E+00 -0.41550022404E+02  0.41550022404E+02  0.00000000000E+00 0.  1.
      99926    2    1    2    0    0  0.00000000000E+00  0.00000000000E+00  0.12037800714E+04  0.12868801162E+04  0.45494392313E+03 0.  0.
      99925    2    3    3    0    0 -0.75686841514E+02  0.69047659739E+02  0.89345788573E+03  0.93696091937E+03  0.26293096730E+03 0.  0.
         25    1    4    4    0    0 -0.79356466273E+02  0.37866276918E+02  0.50660205805E+03  0.52917337139E+03  0.12509000000E+03 0.  0.
         25    1    3    3    0    0  0.75686841514E+02 -0.69047659739E+02  0.31032218566E+03  0.34991919683E+03  0.12509000000E+03 0.  0.
         25    1    4    4    0    0  0.36696247591E+01  0.31181382821E+02  0.38685582768E+03  0.40778754799E+03  0.12509000000E+03 0.  0.
<mgrwt>
<rscale>  2 0.45494392E+03</rscale>
<asrwt>0</asrwt>
<pdfrwt beam="1">  1       21 0.18313676E+00 0.45494392E+03</pdfrwt>
<pdfrwt beam="2">  1       21 0.61102982E-02 0.45494392E+03</pdfrwt>
<totfact> 0.29511056E+04</totfact>
</mgrwt>
</event>
<event>
 7    0  0.4784406E-002  0.4753844E+03  0.7546771E-02  0.1020411E+00
         21   -1    0    0  502  501  0.00000000000E+00  0.00000000000E+00  0.18131633093E+04  0.18131633093E+04  0.00000000000E+00 0.  1.
         21   -1    0    0  501  502 -0.00000000000E+00 -0.00000000000E+00 -0.31159674568E+02  0.31159674568E+02  0.00000000000E+00 0.  1.
      99926    2    1    2    0    0  0.00000000000E+00  0.00000000000E+00  0.17820036347E+04  0.18443229839E+04  0.47538438618E+03 0.  0.
      99925    2    3    3    0    0  0.12036170344E+03 -0.42955306620E+02  0.12168730435E+04  0.12515732970E+04  0.26329378225E+03 0.  0.
         25    1    3    3    0    0 -0.12036170344E+03  0.42955306620E+02  0.56513059120E+03  0.59274968682E+03  0.12509000000E+03 0.  0.
         25    1    4    4    0    0  0.15663781006E+02 -0.12011781071E+02  0.52664702464E+03  0.54165877966E+03  0.12509000000E+03 0.  0.
         25    1    4    4    0    0  0.10469792243E+03 -0.30943525550E+02  0.69022601890E+03  0.70991451739E+03  0.12509000000E+03 0.  0.
<mgrwt>
<rscale>  2 0.47538439E+03</rscale>
<asrwt>0</asrwt>
<pdfrwt beam="1">  1       21 0.26664159E+00 0.47538439E+03</pdfrwt>
<pdfrwt beam="2">  1       21 0.45823063E-02 0.47538439E+03</pdfrwt>
<totfact> 0.14062251E+04</totfact>
</mgrwt>
</event>
<event>
 7    0  0.4784406E-002  0.4585622E+03  0.7546771E-02  0.1025199E+00
         21   -1    0    0  502  501  0.00000000000E+00  0.00000000000E+00  0.13567909981E+04  0.13567909981E+04  0.00000000000E+00 0. -1.
         21   -1    0    0  501  502 -0.00000000000E+00 -0.00000000000E+00 -0.38745704486E+02  0.38745704486E+02  0.00000000000E+00 0. -1.
      99926    2    1    2    0    0  0.14210854715E-13  0.00000000000E+00  0.13180452936E+04  0.13955367026E+04  0.45856220106E+03 0.  0.
      99925    2    3    3    0    0 -0.87251696144E+02 -0.69679104469E+02  0.92883872089E+03  0.97174748560E+03  0.26283791634E+03 0.  0.
         25    1    4    4    0    0 -0.62191160712E+02 -0.46012212183E+02  0.37266334717E+03  0.40063742033E+03  0.12509000000E+03 0.  0.
         25    1    4    4    0    0 -0.25060535432E+02 -0.23666892286E+02  0.55617537371E+03  0.57111006527E+03  0.12509000000E+03 0.  0.
         25    1    3    3    0    0  0.87251696144E+02  0.69679104469E+02  0.38920657269E+03  0.42378921695E+03  0.12509000000E+03 0.  0.
<mgrwt>
<rscale>  2 0.45856220E+03</rscale>
<asrwt>0</asrwt>
<pdfrwt beam="1">  1       21 0.19952806E+00 0.45856220E+03</pdfrwt>
<pdfrwt beam="2">  1       21 0.56978986E-02 0.45856220E+03</pdfrwt>
<totfact> 0.25731455E+04</totfact>
</mgrwt>
</event>
<event>
 7    0  0.4784406E-002  0.4501088E+03  0.7546771E-02  0.1027690E+00
         21   -1    0    0  502  501  0.00000000000E+00  0.00000000000E+00  0.88935186072E+02  0.88935186072E+02  0.00000000000E+00 0. -1.
         21   -1    0    0  501  502 -0.00000000000E+00 -0.00000000000E+00 -0.56951011890E+03  0.56951011890E+03  0.00000000000E+00 0. -1.
      99926    2    1    2    0    0  0.00000000000E+00  0.00000000000E+00 -0.48057493283E+03  0.65844530498E+03  0.45010882415E+03 0.  0.
      99925    2    3    3    0    0  0.72962574816E+02 -0.64982951757E+02 -0.37300683329E+03  0.46670400666E+03  0.26293004926E+03 0.  0.
         25    1    4    4    0    0  0.49242917591E+02 -0.57700677368E+02 -0.24918083329E+03  0.28895125693E+03  0.12509000000E+03 0.  0.
         25    1    4    4    0    0  0.23719657226E+02 -0.72822743889E+01 -0.12382600000E+03  0.17775274972E+03  0.12509000000E+03 0.  0.
         25    1    3    3    0    0 -0.72962574816E+02  0.64982951757E+02 -0.10756809954E+03  0.19174129832E+03  0.12509000000E+03 0.  0.
<mgrwt>
<rscale>  2 0.45010882E+03</rscale>
<asrwt>0</asrwt>
<pdfrwt beam="1">  1       21 0.13078704E-01 0.45010882E+03</pdfrwt>
<pdfrwt beam="2">  1       21 0.83751485E-01 0.45010882E+03</pdfrwt>
<totfact> 0.57399368E+04</totfact>
</mgrwt>
</event>
<event>
 7    0  0.4784406E-002  0.4517032E+03  0.7546771E-02  0.1027215E+00
         21   -1    0    0  502  501  0.00000000000E+00  0.00000000000E+00  0.96210349631E+03  0.96210349631E+03  0.00000000000E+00 0.  1.
         21   -1    0    0  501  502 -0.00000000000E+00 -0.00000000000E+00 -0.53018148509E+02  0.53018148509E+02  0.00000000000E+00 0.  1.
      99926    2    1    2    0    0 -0.35527136788E-14  0.00000000000E+00  0.90908534780E+03  0.10151216448E+04  0.45170320366E+03 0.  0.
      99925    2    3    3    0    0 -0.28809535726E+02 -0.40799533436E+02  0.79357848825E+03  0.83768451798E+03  0.26354116068E+03 0.  0.
         25    1    4    4    0    0 -0.43978111227E+02 -0.49720681791E+02  0.39963217509E+03  0.42398066457E+03  0.12509000000E+03 0.  0.
         25    1    3    3    0    0  0.28809535726E+02  0.40799533436E+02  0.11550685955E+03  0.17743712683E+03  0.12509000000E+03 0.  0.
         25    1    4    4    0    0  0.15168575501E+02  0.89211483549E+01  0.39394631317E+03  0.41370385341E+03  0.12509000000E+03 0.  0.
<mgrwt>
<rscale>  2 0.45170320E+03</rscale>
<asrwt>0</asrwt>
<pdfrwt beam="1">  1       21 0.14148580E+00 0.45170320E+03</pdfrwt>
<pdfrwt beam="2">  1       21 0.77967871E-02 0.45170320E+03</pdfrwt>
<totfact> 0.39593155E+04</totfact>
</mgrwt>
</event>
<event>
 7    0  0.4784406E-002  0.4550766E+03  0.7546771E-02  0.1026219E+00
         21   -1    0    0  502  501  0.00000000000E+00  0.00000000000E+00  0.85069158614E+02  0.85069158614E+02  0.00000000000E+00 0. -1.
         21   -1    0    0  501  502 -0.00000000000E+00 -0.00000000000E+00 -0.60860686620E+03  0.60860686620E+03  0.00000000000E+00 0. -1.
      99926    2    1    2    0    0 -0.14210854715E-13  0.00000000000E+00 -0.52353770759E+03  0.69367602481E+03  0.45507658272E+03 0.  0.
      99925    2    3    3    0    0 -0.10421209337E+03 -0.25937391397E+02 -0.38148134645E+03  0.47605151674E+03  0.26375010942E+03 0.  0.
         25    1    3    3    0    0  0.10421209337E+03  0.25937391397E+02 -0.14205636113E+03  0.21762450808E+03  0.12509000000E+03 0.  0.
         25    1    4    4    0    0 -0.92573909502E+02  0.12299938219E+01 -0.19325859161E+03  0.24812866206E+03  0.12509000000E+03 0.  0.
         25    1    4    4    0    0 -0.11638183866E+02 -0.27167385219E+02 -0.18822275485E+03  0.22792285468E+03  0.12509000000E+03 0.  0.
<mgrwt>
<rscale>  2 0.45507658E+03</rscale>
<asrwt>0</asrwt>
<pdfrwt beam="1">  1       21 0.12510170E-01 0.45507658E+03</pdfrwt>
<pdfrwt beam="2">  1       21 0.89501013E-01 0.45507658E+03</pdfrwt>
<totfact> 0.53215614E+04</totfact>
</mgrwt>
</event>
<event>
 7    0  0.4784406E-002  0.4622523E+03  0.7546771E-02  0.1024130E+00
         21   -1    0    0  502  501  0.00000000000E+00  0.00000000000E+00  0.25130867381E+03  0.25130867381E+03  0.00000000000E+00 0. -1.
         21   -1    0    0  501  502 -0.00000000000E+00 -0.00000000000E+00 -0.21256451630E+03  0.21256451630E+03  0.00000000000E+00 0. -1.
      99926    2    1    2    0    0  0.00000000000E+00  0.00000000000E+00  0.38744157511E+02  0.46387319011E+03  0.46225234101E+03 0.  0.
      99925    2    3    3    0    0 -0.71090927622E+02  0.96467621169E+02  0.22481537675E+02  0.28988496400E+03  0.26299800549E+03 0.  0.
         25    1    3    3    0    0  0.71090927622E+02 -0.96467621169E+02  0.16262619836E+02  0.17398822612E+03  0.12509000000E+03 0.  0.
         25    1    4    4    0    0 -0.25853219914E+02  0.26127814827E+02  0.44601398932E+02  0.13779638810E+03  0.12509000000E+03 0.  0.
         25    1    4    4    0    0 -0.45237707708E+02  0.70339806342E+02 -0.22119861258E+02  0.15208857589E+03  0.12509000000E+03 0.  0.
<mgrwt>
<rscale>  2 0.46225234E+03</rscale>
<asrwt>0</asrwt>
<pdfrwt beam="1">  1       21 0.36957158E-01 0.46225234E+03</pdfrwt>
<pdfrwt beam="2">  1       21 0.31259488E-01 0.46225234E+03</pdfrwt>
<totfact> 0.64109855E+04</totfact>
</mgrwt>
</event>
<event>
 7    0  0.4784406E-002  0.4819619E+03  0.7546771E-02  0.1018597E+00
         21   -1    0    0  502  501  0.00000000000E+00  0.00000000000E+00  0.15050219899E+03  0.15050219899E+03  0.00000000000E+00 0.  1.
         21   -1    0    0  501  502 -0.00000000000E+00 -0.00000000000E+00 -0.38585363195E+03  0.38585363195E+03  0.00000000000E+00 0.  1.
      99926    2    1    2    0    0  0.00000000000E+00  0.00000000000E+00 -0.23535143296E+03  0.53635583094E+03  0.48196190761E+03 0.  0.
      99925    2    3    3    0    0  0.13382458722E+03  0.23825960466E+02 -0.12603031307E+03  0.32170422509E+03  0.26293206745E+03 0.  0.
         25    1    3    3    0    0 -0.13382458722E+03 -0.23825960466E+02 -0.10932111988E+03  0.21465160584E+03  0.12509000000E+03 0.  0.
         25    1    4    4    0    0  0.28528961090E+02  0.30477856123E+02 -0.47207489291E+02  0.14006732838E+03  0.12509000000E+03 0.  0.
         25    1    4    4    0    0  0.10529562613E+03 -0.66518956571E+01 -0.78822823782E+02  0.18163689671E+03  0.12509000000E+03 0.  0.
<mgrwt>
<rscale>  2 0.48196191E+03</rscale>
<asrwt>0</asrwt>
<pdfrwt beam="1">  1       21 0.22132677E-01 0.48196191E+03</pdfrwt>
<pdfrwt beam="2">  1       21 0.56743181E-01 0.48196191E+03</pdfrwt>
<totfact> 0.50977355E+04</totfact>
</mgrwt>
</event>
<event>
 7    0  0.4784406E-002  0.4558966E+03  0.7546771E-02  0.1025978E+00
         21   -1    0    0  502  501  0.00000000000E+00  0.00000000000E+00  0.17352341675E+03  0.17352341675E+03  0.00000000000E+00 0.  1.
         21   -1    0    0  501  502 -0.00000000000E+00 -0.00000000000E+00 -0.29944337950E+03  0.29944337950E+03  0.00000000000E+00 0.  1.
      99926    2    1    2    0    0  0.00000000000E+00 -0.71054273576E-14 -0.12591996275E+03  0.47296679625E+03  0.45589664764E+03 0.  0.
      99925    2    3    3    0    0  0.10158061047E+03 -0.51584085350E+02 -0.77167504118E+02  0.29688769865E+03  0.26307402691E+03 0.  0.
         25    1    4    4    0    0  0.52451484271E+02 -0.29395666151E+02  0.30249758124E+01  0.13882334807E+03  0.12509000000E+03 0.  0.
         25    1    3    3    0    0 -0.10158061047E+03  0.51584085350E+02 -0.48752458632E+02  0.17607909759E+03  0.12509000000E+03 0.  0.
         25    1    4    4    0    0  0.49129126203E+02 -0.22188419198E+02 -0.80192479931E+02  0.15806435058E+03  0.12509000000E+03 0.  0.
<mgrwt>
<rscale>  2 0.45589665E+03</rscale>
<asrwt>0</asrwt>
<pdfrwt beam="1">  1       21 0.25518150E-01 0.45589665E+03</pdfrwt>
<pdfrwt beam="2">  1       21 0.44035791E-01 0.45589665E+03</pdfrwt>
<totfact> 0.66739701E+04</totfact>
</mgrwt>
</event>
<event>
 7    0  0.4784406E-002  0.4566206E+03  0.7546771E-02  0.1025766E+00
         21   -1    0    0  502  501  0.00000000000E+00  0.00000000000E+00  0.26812679589E+03  0.26812679589E+03  0.00000000000E+00 0.  1.
         21   -1    0    0  501  502 -0.00000000000E+00 -0.00000000000E+00 -0.19440648169E+03  0.19440648169E+03  0.00000000000E+00 0.  1.
      99926    2    1    2    0    0  0.00000000000E+00  0.00000000000E+00  0.73720314195E+02  0.46253327758E+03  0.45662057350E+03 0.  0.
      99925    2    3    3    0    0  0.38237760167E+02  0.75937562873E+02 -0.31593839699E+02  0.27823130020E+03  0.26303202456E+03 0.  0.
         25    1    3    3    0    0 -0.38237760167E+02 -0.75937562873E+02  0.10531415389E+03  0.18430197738E+03  0.12509000000E+03 0.  0.
         25    1    4    4    0    0  0.19974262759E+02  0.87309624849E+01  0.14555388286E+02  0.12780676159E+03  0.12509000000E+03 0.  0.
         25    1    4    4    0    0  0.18263497408E+02  0.67206600388E+02 -0.46149227985E+02  0.15042453861E+03  0.12509000000E+03 0.  0.
<mgrwt>
<rscale>  2 0.45662057E+03</rscale>
<asrwt>0</asrwt>
<pdfrwt beam="1">  1       21 0.39430411E-01 0.45662057E+03</pdfrwt>
<pdfrwt beam="2">  1       21 0.28589188E-01 0.45662057E+03</pdfrwt>
<totfact> 0.67124620E+04</totfact>
</mgrwt>
</event>
<event>
 7    0  0.4784406E-002  0.4536900E+03  0.7546771E-02  0.1026627E+00
         21   -1    0    0  502  501  0.00000000000E+00  0.00000000000E+00  0.69497462099E+02  0.69497462099E+02  0.00000000000E+00 0.  1.
         21   -1    0    0  501  502 -0.00000000000E+00 -0.00000000000E+00 -0.74043938091E+03  0.74043938091E+03  0.00000000000E+00 0.  1.
      99926    2    1    2    0    0  0.00000000000E+00  0.00000000000E+00 -0.67094191881E+03  0.80993684301E+03  0.45369001669E+03 0.  0.
      99925    2    3    3    0    0 -0.58990643381E+02 -0.89303405242E+02 -0.36431000997E+03  0.46190576708E+03  0.26302121607E+03 0.  0.
         25    1    4    4    0    0 -0.58610682923E+02 -0.40007319260E+02 -0.14205262295E+03  0.20214414049E+03  0.12509000000E+03 0.  0.
         25    1    3    3    0    0  0.58990643381E+02  0.89303405242E+02 -0.30663190884E+03  0.34803107593E+03  0.12509000000E+03 0.  0.
         25    1    4    4    0    0 -0.37996045807E+00 -0.49296085982E+02 -0.22225738703E+03  0.25976162659E+03  0.12509000000E+03 0.  0.
<mgrwt>
<rscale>  2 0.45369002E+03</rscale>
<asrwt>0</asrwt>
<pdfrwt beam="1">  1       21 0.10220214E-01 0.45369002E+03</pdfrwt>
<pdfrwt beam="2">  1       21 0.10888815E+00 0.45369002E+03</pdfrwt>
<totfact> 0.47777174E+04</totfact>
</mgrwt>
</event>
<event>
 7    0  0.4784406E-002  0.4547024E+03  0.7546771E-02  0.1026329E+00
         21   -1    0    0  502  501  0.00000000000E+00  0.00000000000E+00  0.30252743771E+02  0.30252743771E+02  0.00000000000E+00 0. -1.
         21   -1    0    0  501  502 -0.00000000000E+00 -0.00000000000E+00 -0.17085583327E+04  0.17085583327E+04  0.00000000000E+00 0. -1.
      99926    2    1    2    0    0  0.71054273576E-14  0.17763568394E-14 -0.16783055890E+04  0.17388110765E+04  0.45470244098E+03 0.  0.
      99925    2    3    3    0    0  0.37524883376E+02 -0.95108560887E+01 -0.65330407880E+03  0.70547948539E+03  0.26343217661E+03 0.  0.
         25    1    4    4    0    0 -0.23659852382E+00 -0.40466623217E+02 -0.30147067677E+03  0.32889159403E+03  0.12509000000E+03 0.  0.
         25    1    3    3    0    0 -0.37524883376E+02  0.95108560887E+01 -0.10250015102E+04  0.10333315911E+04  0.12509000000E+03 0.  0.
         25    1    4    4    0    0  0.37761481899E+02  0.30955767128E+02 -0.35183340203E+03  0.37658789136E+03  0.12509000000E+03 0.  0.
<mgrwt>
<rscale>  2 0.45470244E+03</rscale>
<asrwt>0</asrwt>
<pdfrwt beam="1">  1       21 0.44489335E-02 0.45470244E+03</pdfrwt>
<pdfrwt beam="2">  1       21 0.25125855E+00 0.45470244E+03</pdfrwt>
<totfact> 0.18508104E+04</totfact>
</mgrwt>
</event>
<event>
 7    0  0.4784406E-002  0.4555223E+03  0.7546771E-02  0.1026088E+00
         21   -1    0    0  502  501  0.00000000000E+00  0.00000000000E+00  0.36491380339E+03  0.36491380339E+03  0.00000000000E+00 0.  1.
         21   -1    0    0  501  502 -0.00000000000E+00 -0.00000000000E+00 -0.14215722310E+03  0.14215722310E+03  0.00000000000E+00 0.  1.
      99926    2    1    2    0    0  0.00000000000E+00 -0.35527136788E-14  0.22275658029E+03  0.50707102650E+03  0.45552226274E+03 0.  0.
      99925    2    3    3    0    0  0.10732225825E+03 -0.20627285513E+02  0.17478124632E+03  0.33417599246E+03  0.26302387316E+03 0.  0.
         25    1    3    3    0    0 -0.10732225825E+03  0.20627285513E+02  0.47975333966E+02  0.17289503403E+03  0.12509000000E+03 0.  0.
         25    1    4    4    0    0  0.55841010641E+02 -0.14157882716E+01  0.13389885448E+03  0.19156365589E+03  0.12509000000E+03 0.  0.
         25    1    4    4    0    0  0.51481247608E+02 -0.19211497241E+02  0.40882391846E+02  0.14261233658E+03  0.12509000000E+03 0.  0.
<mgrwt>
<rscale>  2 0.45552226E+03</rscale>
<asrwt>0</asrwt>
<pdfrwt beam="1">  1       21 0.53663794E-01 0.45552226E+03</pdfrwt>
<pdfrwt beam="2">  1       21 0.20905474E-01 0.45552226E+03</pdfrwt>
<totfact> 0.64508885E+04</totfact>
</mgrwt>
</event>
<event>
 7    0  0.4784406E-002  0.4476942E+03  0.7546771E-02  0.1028412E+00
         21   -1    0    0  502  501  0.00000000000E+00  0.00000000000E+00  0.24762579423E+03  0.24762579423E+03  0.00000000000E+00 0. -1.
         21   -1    0    0  501  502 -0.00000000000E+00 -0.00000000000E+00 -0.20235181485E+03  0.20235181485E+03  0.00000000000E+00 0. -1.
      99926    2    1    2    0    0  0.71054273576E-14 -0.71054273576E-14  0.45273979376E+02  0.44997760908E+03  0.44769422094E+03 0.  0.
      99925    2    3    3    0    0 -0.36539463960E+02 -0.60126054751E+02 -0.51288630194E+02  0.27699749302E+03  0.26295781537E+03 0.  0.
         25    1    4    4    0    0 -0.16837301293E+02 -0.71499621275E+02 -0.26657707589E+02  0.14749180327E+03  0.12509000000E+03 0.  0.
         25    1    4    4    0    0 -0.19702162667E+02  0.11373566524E+02 -0.24630922605E+02  0.12950568975E+03  0.12509000000E+03 0.  0.
         25    1    3    3    0    0  0.36539463960E+02  0.60126054751E+02  0.96562609570E+02  0.17298011606E+03  0.12509000000E+03 0.  0.
<mgrwt>
<rscale>  2 0.44769422E+03</rscale>
<asrwt>0</asrwt>
<pdfrwt beam="1">  1       21 0.36415558E-01 0.44769422E+03</pdfrwt>
<pdfrwt beam="2">  1       21 0.29757620E-01 0.44769422E+03</pdfrwt>
<totfact> 0.73083274E+04</totfact>
</mgrwt>
</event>
<event>
 7    0  0.4784406E-002  0.4546281E+03  0.7546771E-02  0.1026351E+00
         21   -1    0    0  502  501  0.00000000000E+00  0.00000000000E+00  0.90424172961E+03  0.90424172961E+03  0.00000000000E+00 0.  1.
         21   -1    0    0  501  502 -0.00000000000E+00 -0.00000000000E+00 -0.57143651378E+02  0.57143651378E+02  0.00000000000E+00 0.  1.
      99926    2    1    2    0    0  0.00000000000E+00  0.00000000000E+00  0.84709807823E+03  0.96138538099E+03  0.45462808606E+03 0.  0.
      99925    2    3    3    0    0 -0.12400085679E+02  0.10377368484E+03  0.62369626687E+03  0.68483770479E+03  0.26283627756E+03 0.  0.
         25    1    4    4    0    0 -0.30587764972E+02  0.59224223404E+02  0.24400820261E+03  0.28218899881E+03  0.12509000000E+03 0.  0.
         25    1    3    3    0    0  0.12400085679E+02 -0.10377368484E+03  0.22340181136E+03  0.27654767620E+03  0.12509000000E+03 0.  0.
         25    1    4    4    0    0  0.18187679294E+02  0.44549461439E+02  0.37968806426E+03  0.40264870599E+03  0.12509000000E+03 0.  0.
<mgrwt>
<rscale>  2 0.45462809E+03</rscale>
<asrwt>0</asrwt>
<pdfrwt beam="1">  1       21 0.13297672E+00 0.45462809E+03</pdfrwt>
<pdfrwt beam="2">  1       21 0.84034787E-02 0.45462809E+03</pdfrwt>
<totfact> 0.40801735E+04</totfact>
</mgrwt>
</event>
<event>
 7    0  0.4784406E-002  0.4585867E+03  0.7546771E-02  0.1025192E+00
         21   -1    0    0  502  501  0.00000000000E+00  0.00000000000E+00  0.63493278871E+03  0.63493278871E+03  0.00000000000E+00 0. -1.
         21   -1    0    0  501  502 -0.00000000000E+00 -0.00000000000E+00 -0.82804748951E+02  0.82804748951E+02  0.00000000000E+00 0. -1.
      99926    2    1    2    0    0  0.00000000000E+00  0.00000000000E+00  0.55212803976E+03  0.71773753766E+03  0.45858674281E+03 0.  0.
      99925    2    3    3    0    0  0.10178259522E+03 -0.36378866465E+02  0.41444022102E+03  0.50258976950E+03  0.26296893541E+03 0.  0.
         25    1    3    3    0    0 -0.10178259522E+03  0.36378866465E+02  0.13768781873E+03  0.21514776816E+03  0.12509000000E+03 0.  0.
         25    1    4    4    0    0  0.82596395345E+02 -0.12272422105E+02  0.17547144700E+03  0.23110714762E+03  0.12509000000E+03 0.  0.
         25    1    4    4    0    0  0.19186199879E+02 -0.24106444360E+02  0.23896877402E+03  0.27148262188E+03  0.12509000000E+03 0.  0.
<mgrwt>
<rscale>  2 0.45858674E+03</rscale>
<asrwt>0</asrwt>
<pdfrwt beam="1">  1       21 0.93372466E-01 0.45858674E+03</pdfrwt>
<pdfrwt beam="2">  1       21 0.12177169E-01 0.45858674E+03</pdfrwt>
<totfact> 0.50510278E+04</totfact>
</mgrwt>
</event>
<event>
 7    0  0.4784406E-002  0.4087723E+03  0.7546771E-02  0.1040784E+00
         21   -1    0    0  502  501  0.00000000000E+00  0.00000000000E+00  0.91890425321E+02  0.91890425321E+02  0.00000000000E+00 0. -1.
         21   -1    0    0  501  502 -0.00000000000E+00 -0.00000000000E+00 -0.45460342682E+03  0.45460342682E+03  0.00000000000E+00 0. -1.
      99926    2    1    2    0    0  0.00000000000E+00 -0.88817841970E-15 -0.36271300150E+03  0.54649385214E+03  0.40877231923E+03 0.  0.
      99925    2    3    3    0    0 -0.60217167576E+02 -0.48556682814E+01 -0.23341281472E+03  0.35671574174E+03  0.26289711589E+03 0.  0.
         25    1    4    4    0    0 -0.52814449480E+02  0.10310832938E+02 -0.79563853293E+02  0.15771364621E+03  0.12509000000E+03 0.  0.
         25    1    4    4    0    0 -0.74027180964E+01 -0.15166501220E+02 -0.15384896142E+03  0.19900209553E+03  0.12509000000E+03 0.  0.
         25    1    3    3    0    0  0.60217167576E+02  0.48556682814E+01 -0.12930018678E+03  0.18977811040E+03  0.12509000000E+03 0.  0.
<mgrwt>
<rscale>  2 0.40877232E+03</rscale>
<asrwt>0</asrwt>
<pdfrwt beam="1">  1       21 0.13513298E-01 0.40877232E+03</pdfrwt>
<pdfrwt beam="2">  1       21 0.66853447E-01 0.40877232E+03</pdfrwt>
<totfact> 0.91132265E+04</totfact>
</mgrwt>
</event>
<event>
 7    0  0.4784406E-002  0.4797227E+03  0.7546771E-02  0.1019211E+00
         21   -1    0    0  502  501  0.00000000000E+00  0.00000000000E+00  0.53699413117E+02  0.53699413117E+02  0.00000000000E+00 0. -1.
         21   -1    0    0  501  502 -0.00000000000E+00 -0.00000000000E+00 -0.10713986434E+04  0.10713986434E+04  0.00000000000E+00 0. -1.
      99926    2    1    2    0    0  0.71054273576E-14  0.00000000000E+00 -0.10176992303E+04  0.11250980565E+04  0.47972274645E+03 0.  0.
      99925    2    3    3    0    0  0.13069155100E+02  0.11577716012E+03 -0.78700472706E+03  0.83796983509E+03  0.26313846259E+03 0.  0.
         25    1    3    3    0    0 -0.13069155100E+02 -0.11577716012E+03 -0.23069450323E+03  0.28712822143E+03  0.12509000000E+03 0.  0.
         25    1    4    4    0    0 -0.32798031243E+02  0.56061798783E+02 -0.35485379269E+03  0.38182110788E+03  0.12509000000E+03 0.  0.
         25    1    4    4    0    0  0.45867186343E+02  0.59715361337E+02 -0.43215093437E+03  0.45614872722E+03  0.12509000000E+03 0.  0.
<mgrwt>
<rscale>  2 0.47972275E+03</rscale>
<asrwt>0</asrwt>
<pdfrwt beam="1">  1       21 0.78969725E-02 0.47972275E+03</pdfrwt>
<pdfrwt beam="2">  1       21 0.15755862E+00 0.47972275E+03</pdfrwt>
<totfact> 0.28684402E+04</totfact>
</mgrwt>
</event>
<event>
 7    0  0.4784406E-002  0.4615825E+03  0.7546771E-02  0.1024323E+00
         21   -1    0    0  502  501  0.00000000000E+00  0.00000000000E+00  0.18794102494E+03  0.18794102494E+03  0.00000000000E+00 0.  1.
         21   -1    0    0  501  502 -0.00000000000E+00 -0.00000000000E+00 -0.28341127543E+03  0.28341127543E+03  0.00000000000E+00 0.  1.
      99926    2    1    2    0    0  0.14210854715E-13  0.00000000000E+00 -0.95470250498E+02  0.47135230037E+03  0.46158251953E+03 0.  0.
      99925    2    3    3    0    0  0.93396512778E+02  0.17945295665E+02  0.13900516539E+02  0.27989887257E+03  0.26287870258E+03 0.  0.
         25    1    3    3    0    0 -0.93396512778E+02 -0.17945295665E+02 -0.10937076704E+03  0.19145342780E+03  0.12509000000E+03 0.  0.
         25    1    4    4    0    0  0.15292729589E+02  0.29361477134E+01  0.33357558303E+02  0.13039449121E+03  0.12509000000E+03 0.  0.
         25    1    4    4    0    0  0.78103783189E+02  0.15009147952E+02 -0.19457041764E+02  0.14950438136E+03  0.12509000000E+03 0.  0.
<mgrwt>
<rscale>  2 0.46158252E+03</rscale>
<asrwt>0</asrwt>
<pdfrwt beam="1">  1       21 0.27638386E-01 0.46158252E+03</pdfrwt>
<pdfrwt beam="2">  1       21 0.41678128E-01 0.46158252E+03</pdfrwt>
<totfact> 0.63930113E+04</totfact>
</mgrwt>
</event>
<event>
 7    0  0.4784406E-002  0.4815559E+03  0.7546771E-02  0.1018708E+00
         21   -1    0    0  502  501  0.00000000000E+00  0.00000000000E+00  0.12546718731E+03  0.12546718731E+03  0.00000000000E+00 0. -1.
         21   -1    0    0  501  502 -0.00000000000E+00 -0.00000000000E+00 -0.46206522595E+03  0.46206522595E+03  0.00000000000E+00 0. -1.
      99926    2    1    2    0    0  0.00000000000E+00  0.00000000000E+00 -0.33659803863E+03  0.58753241326E+03  0.48155591266E+03 0.  0.
      99925    2    3    3    0    0  0.10038770297E+03 -0.76775495562E+02 -0.14462022224E+03  0.32585482975E+03  0.26323790336E+03 0.  0.
         25    1    4    4    0    0  0.30714811024E+02  0.12870101266E+01 -0.59377841202E+02  0.14183896551E+03  0.12509000000E+03 0.  0.
         25    1    3    3    0    0 -0.10038770297E+03  0.76775495562E+02 -0.19197781639E+03  0.26167758351E+03  0.12509000000E+03 0.  0.
         25    1    4    4    0    0  0.69672891941E+02 -0.78062505688E+02 -0.85242381038E+02  0.18401586424E+03  0.12509000000E+03 0.  0.
<mgrwt>
<rscale>  2 0.48155591E+03</rscale>
<asrwt>0</asrwt>
<pdfrwt beam="1">  1       21 0.18451057E-01 0.48155591E+03</pdfrwt>
<pdfrwt beam="2">  1       21 0.67950767E-01 0.48155591E+03</pdfrwt>
<totfact> 0.48451453E+04</totfact>
</mgrwt>
</event>
<event>
 7    0  0.4784406E-002  0.4738078E+03  0.7546771E-02  0.1020851E+00
         21   -1    0    0  502  501  0.00000000000E+00  0.00000000000E+00  0.29817774202E+03  0.29817774202E+03  0.00000000000E+00 0.  1.
         21   -1    0    0  501  502 -0.00000000000E+00 -0.00000000000E+00 -0.18822150953E+03  0.18822150953E+03  0.00000000000E+00 0.  1.
      99926    2    1    2    0    0  0.00000000000E+00  0.00000000000E+00  0.10995623249E+03  0.48639925155E+03  0.47380782903E+03 0.  0.
      99925    2    3    3    0    0  0.12556365599E+03  0.28192545618E+02  0.88431778145E+02  0.30564565803E+03  0.26275090400E+03 0.  0.
         25    1    3    3    0    0 -0.12556365599E+03 -0.28192545618E+02  0.21524454343E+02  0.18075359352E+03  0.12509000000E+03 0.  0.
         25    1    4    4    0    0  0.10535729016E+03  0.26251891888E+02  0.55778311438E+02  0.17478000041E+03  0.12509000000E+03 0.  0.
         25    1    4    4    0    0  0.20206365837E+02  0.19406537307E+01  0.32653466707E+02  0.13086565762E+03  0.12509000000E+03 0.  0.
<mgrwt>
<rscale>  2 0.47380783E+03</rscale>
<asrwt>0</asrwt>
<pdfrwt beam="1">  1       21 0.43849668E-01 0.47380783E+03</pdfrwt>
<pdfrwt beam="2">  1       21 0.27679634E-01 0.47380783E+03</pdfrwt>
<totfact> 0.57207854E+04</totfact>
</mgrwt>
</event>
<event>
 7    0  0.4784406E-002  0.4534418E+03  0.7546771E-02  0.1026701E+00
         21   -1    0    0  502  501  0.00000000000E+00  0.00000000000E+00  0.28066630222E+03  0.28066630222E+03  0.00000000000E+00 0. -1.
         21   -1    0    0  501  502 -0.00000000000E+00 -0.00000000000E+00 -0.18314408081E+03  0.18314408081E+03  0.00000000000E+00 0. -1.
      99926    2    1    2    0    0 -0.71054273576E-14  0.14210854715E-13  0.97522221417E+02  0.46381038303E+03  0.45344182398E+03 0.  0.
      99925    2    3    3    0    0  0.48858390093E+02 -0.77799947610E+02 -0.34311394955E+01  0.27866432364E+03  0.26306284120E+03 0.  0.
         25    1    4    4    0    0  0.19900215756E+02 -0.34354456364E+00 -0.18293285442E+02  0.12797768947E+03  0.12509000000E+03 0.  0.
         25    1    3    3    0    0 -0.48858390093E+02  0.77799947610E+02  0.10095336091E+03  0.18514605940E+03  0.12509000000E+03 0.  0.
         25    1    4    4    0    0  0.28958174337E+02 -0.77456403046E+02  0.14862145946E+02  0.15068663416E+03  0.12509000000E+03 0.  0.
<mgrwt>
<rscale>  2 0.45344182E+03</rscale>
<asrwt>0</asrwt>
<pdfrwt beam="1">  1       21 0.41274456E-01 0.45344182E+03</pdfrwt>
<pdfrwt beam="2">  1       21 0.26932953E-01 0.45344182E+03</pdfrwt>
<totfact> 0.68745179E+04</totfact>
</mgrwt>
</event>
<event>
 7    0  0.4784406E-002  0.4086001E+03  0.7546771E-02  0.1040842E+00
         21   -1    0    0  502  501  0.00000000000E+00  0.00000000000E+00  0.15570407300E+03  0.15570407300E+03  0.00000000000E+00 0. -1.
         21   -1    0    0  501  502 -0.00000000000E+00 -0.00000000000E+00 -0.26806301388E+03  0.26806301388E+03  0.00000000000E+00 0. -1.
      99926    2    1    2    0    0  0.00000000000E+00  0.00000000000E+00 -0.11235894088E+03  0.42376708688E+03  0.40860006403E+03 0.  0.
      99925    2    3    3    0    0 -0.20080174356E+02  0.23158208537E+02 -0.12772418947E+03  0.29406313555E+03  0.26309721224E+03 0.  0.
         25    1    3    3    0    0  0.20080174356E+02 -0.23158208537E+02  0.15365248589E+02  0.12970395132E+03  0.12509000000E+03 0.  0.
         25    1    4    4    0    0 -0.11696741710E+02 -0.14955810191E+02 -0.28486799919E+02  0.12968999921E+03  0.12509000000E+03 0.  0.
         25    1    4    4    0    0 -0.83834326469E+01  0.38114018728E+02 -0.99237389553E+02  0.16437313634E+03  0.12509000000E+03 0.  0.
<mgrwt>
<rscale>  2 0.40860006E+03</rscale>
<asrwt>0</asrwt>
<pdfrwt beam="1">  1       21 0.22897658E-01 0.40860006E+03</pdfrwt>
<pdfrwt beam="2">  1       21 0.39421031E-01 0.40860006E+03</pdfrwt>
<totfact> 0.10452442E+05</totfact>
</mgrwt>
</event>
<event>
 7    0  0.4784406E-002  0.4541305E+03  0.7546771E-02  0.1026497E+00
         21   -1    0    0  502  501  0.00000000000E+00  0.00000000000E+00  0.37610245271E+03  0.37610245271E+03  0.00000000000E+00 0.  1.
         21   -1    0    0  501  502 -0.00000000000E+00 -0.00000000000E+00 -0.13708666881E+03  0.13708666881E+03  0.00000000000E+00 0.  1.
      99926    2    1    2    0    0  0.00000000000E+00  0.14210854715E-13  0.23901578390E+03  0.51318912151E+03  0.45413052032E+03 0.  0.
      99925    2    3    3    0    0 -0.38309735181E+02  0.85778263067E+02  0.80952463696E+02  0.29079967141E+03  0.26303155949E+03 0.  0.
         25    1    3    3    0    0  0.38309735181E+02 -0.85778263067E+02  0.15806332020E+03  0.22238945011E+03  0.12509000000E+03 0.  0.
         25    1    4    4    0    0 -0.58607925219E+02  0.46193997149E+02  0.53872878734E+02  0.15530154357E+03  0.12509000000E+03 0.  0.
         25    1    4    4    0    0  0.20298190037E+02  0.39584265918E+02  0.27079584962E+02  0.13549812784E+03  0.12509000000E+03 0.  0.
<mgrwt>
<rscale>  2 0.45413052E+03</rscale>
<asrwt>0</asrwt>
<pdfrwt beam="1">  1       21 0.55309184E-01 0.45413052E+03</pdfrwt>
<pdfrwt beam="2">  1       21 0.20159804E-01 0.45413052E+03</pdfrwt>
<totfact> 0.64799612E+04</totfact>
</mgrwt>
</event>
<event>
 7    0  0.4784406E-002  0.4491032E+03  0.7546771E-02  0.1027990E+00
         21   -1    0    0  502  501  0.00000000000E+00  0.00000000000E+00  0.11952799549E+04  0.11952799549E+04  0.00000000000E+00 0.  1.
         21   -1    0    0  501  502 -0.00000000000E+00 -0.00000000000E+00 -0.42185446954E+02  0.42185446954E+02  0.00000000000E+00 0.  1.
      99926    2    1    2    0    0  0.00000000000E+00  0.00000000000E+00  0.11530945080E+04  0.12374654019E+04  0.44910319141E+03 0.  0.
      99925    2    3    3    0    0  0.78442094630E+02 -0.17275830603E+02  0.92644993720E+03  0.96641764577E+03  0.26306266055E+03 0.  0.
         25    1    4    4    0    0  0.70800871146E+02 -0.24980023588E+02  0.57473771721E+03  0.59296519006E+03  0.12509000000E+03 0.  0.
         25    1    3    3    0    0 -0.78442094630E+02  0.17275830603E+02  0.22664457076E+03  0.27104775610E+03  0.12509000000E+03 0.  0.
         25    1    4    4    0    0  0.76412234840E+01  0.77041929850E+01  0.35171221999E+03  0.37345245571E+03  0.12509000000E+03 0.  0.
<mgrwt>
<rscale>  2 0.44910319E+03</rscale>
<asrwt>0</asrwt>
<pdfrwt beam="1">  1       21 0.17577644E+00 0.44910319E+03</pdfrwt>
<pdfrwt beam="2">  1       21 0.62037430E-02 0.44910319E+03</pdfrwt>
<totfact> 0.32450634E+04</totfact>
</mgrwt>
</event>
<event>
 7    0  0.4784406E-002  0.4540586E+03  0.7546771E-02  0.1026519E+00
         21   -1    0    0  502  501  0.00000000000E+00  0.00000000000E+00  0.30071902787E+03  0.30071902787E+03  0.00000000000E+00 0.  1.
         21   -1    0    0  501  502 -0.00000000000E+00 -0.00000000000E+00 -0.17139685317E+03  0.17139685317E+03  0.00000000000E+00 0.  1.
      99926    2    1    2    0    0  0.00000000000E+00 -0.35527136788E-14  0.12932217470E+03  0.47211588104E+03  0.45405856479E+03 0.  0.
      99925    2    3    3    0    0 -0.10969266716E+03  0.23784805771E+02  0.86705501201E+02  0.29873223944E+03  0.26291616293E+03 0.  0.
         25    1    3    3    0    0  0.10969266716E+03 -0.23784805771E+02  0.42616673499E+02  0.17338364160E+03  0.12509000000E+03 0.  0.
         25    1    4    4    0    0 -0.36873904829E+02  0.46131552998E+02  0.29124684402E+02  0.14136322146E+03  0.12509000000E+03 0.  0.
         25    1    4    4    0    0 -0.72818762328E+02 -0.22346747227E+02  0.57580816799E+02  0.15736901799E+03  0.12509000000E+03 0.  0.
<mgrwt>
<rscale>  2 0.45405856E+03</rscale>
<asrwt>0</asrwt>
<pdfrwt beam="1">  1       21 0.44223386E-01 0.45405856E+03</pdfrwt>
<pdfrwt beam="2">  1       21 0.25205420E-01 0.45405856E+03</pdfrwt>
<totfact> 0.67783624E+04</totfact>
</mgrwt>
</event>
<event>
 7    0  0.4784406E-002  0.4545422E+03  0.7546771E-02  0.1026376E+00
         21   -1    0    0  502  501  0.00000000000E+00  0.00000000000E+00  0.11765388422E+04  0.11765388422E+04  0.00000000000E+00 0.  1.
         21   -1    0    0  501  502 -0.00000000000E+00 -0.00000000000E+00 -0.43901775923E+02  0.43901775923E+02  0.00000000000E+00 0.  1.
      99926    2    1    2    0    0  0.00000000000E+00  0.71054273576E-14  0.11326370663E+04  0.12204406181E+04  0.45454216356E+03 0.  0.
      99925    2    3    3    0    0 -0.98577681025E+02  0.54578216327E+02  0.70382620108E+03  0.75976436835E+03  0.26300994885E+03 0.  0.
         25    1    4    4    0    0 -0.54898594197E+02  0.64141871762E+02  0.32522963352E+03  0.35853850278E+03  0.12509000000E+03 0.  0.
         25    1    4    4    0    0 -0.43679086828E+02 -0.95636554354E+01  0.37859656756E+03  0.40122586556E+03  0.12509000000E+03 0.  0.
         25    1    3    3    0    0  0.98577681025E+02 -0.54578216327E+02  0.42881086519E+03  0.46067624976E+03  0.12509000000E+03 0.  0.
<mgrwt>
<rscale>  2 0.45454216E+03</rscale>
<asrwt>0</asrwt>
<pdfrwt beam="1">  1       21 0.17302040E+00 0.45454216E+03</pdfrwt>
<pdfrwt beam="2">  1       21 0.64561443E-02 0.45454216E+03</pdfrwt>
<totfact> 0.31627334E+04</totfact>
</mgrwt>
</event>
<event>
 7    0  0.4784406E-002  0.4602936E+03  0.7546771E-02  0.1024696E+00
         21   -1    0    0  502  501  0.00000000000E+00  0.00000000000E+00  0.55239256946E+02  0.55239256946E+02  0.00000000000E+00 0. -1.
         21   -1    0    0  501  502 -0.00000000000E+00 -0.00000000000E+00 -0.95887531229E+03  0.95887531229E+03  0.00000000000E+00 0. -1.
      99926    2    1    2    0    0  0.17763568394E-14  0.00000000000E+00 -0.90363605534E+03  0.10141145692E+04  0.46029364434E+03 0.  0.
      99925    2    3    3    0    0  0.10981037909E+02 -0.68564096861E+02 -0.35554299817E+03  0.44765616300E+03  0.26298973013E+03 0.  0.
         25    1    4    4    0    0  0.57434983042E+01 -0.55082479406E+02 -0.24255185443E+03  0.27847078392E+03  0.12509000000E+03 0.  0.
         25    1    3    3    0    0 -0.10981037909E+02  0.68564096861E+02 -0.54809305717E+03  0.56645840623E+03  0.12509000000E+03 0.  0.
         25    1    4    4    0    0  0.52375396046E+01 -0.13481617455E+02 -0.11299114374E+03  0.16918537908E+03  0.12509000000E+03 0.  0.
<mgrwt>
<rscale>  2 0.46029364E+03</rscale>
<asrwt>0</asrwt>
<pdfrwt beam="1">  1       21 0.81234207E-02 0.46029364E+03</pdfrwt>
<pdfrwt beam="2">  1       21 0.14101106E+00 0.46029364E+03</pdfrwt>
<totfact> 0.37066233E+04</totfact>
</mgrwt>
</event>
<event>
 7    0  0.4784406E-002  0.4490156E+03  0.7546771E-02  0.1028016E+00
         21   -1    0    0  502  501  0.00000000000E+00  0.00000000000E+00  0.15305666626E+04  0.15305666626E+04  0.00000000000E+00 0. -1.
         21   -1    0    0  501  502 -0.00000000000E+00 -0.00000000000E+00 -0.32931428930E+02  0.32931428930E+02  0.00000000000E+00 0. -1.
      99926    2    1    2    0    0  0.71054273576E-14  0.00000000000E+00  0.14976352336E+04  0.15634980915E+04  0.44901557777E+03 0.  0.
      99925    2    3    3    0    0 -0.43336823153E+02 -0.21162145331E+02  0.61339168447E+03  0.66914912214E+03  0.26303093441E+03 0.  0.
         25    1    4    4    0    0 -0.70923729613E+01  0.63380107191E+00  0.39019331512E+03  0.40981585465E+03  0.12509000000E+03 0.  0.
         25    1    3    3    0    0  0.43336823153E+02  0.21162145331E+02  0.88424354917E+03  0.89434896935E+03  0.12509000000E+03 0.  0.
         25    1    4    4    0    0 -0.36244450192E+02 -0.21795946403E+02  0.22319836934E+03  0.25933326749E+03  0.12509000000E+03 0.  0.
<mgrwt>
<rscale>  2 0.44901558E+03</rscale>
<asrwt>0</asrwt>
<pdfrwt beam="1">  1       21 0.22508329E+00 0.44901558E+03</pdfrwt>
<pdfrwt beam="2">  1       21 0.48428582E-02 0.44901558E+03</pdfrwt>
<totfact> 0.23330575E+04</totfact>
</mgrwt>
</event>
<event>
 7    0  0.4784406E-002  0.4694901E+03  0.7546771E-02  0.1022064E+00
         21   -1    0    0  502  501  0.00000000000E+00  0.00000000000E+00  0.30116939731E+03  0.30116939731E+03  0.00000000000E+00 0.  1.
         21   -1    0    0  501  502 -0.00000000000E+00 -0.00000000000E+00 -0.18297088835E+03  0.18297088835E+03  0.00000000000E+00 0.  1.
      99926    2    1    2    0    0  0.00000000000E+00  0.00000000000E+00  0.11819850896E+03  0.48414028566E+03  0.46949007304E+03 0.  0.
      99925    2    3    3    0    0  0.74576079020E+02  0.93464915414E+02  0.31101193022E+02  0.29041178358E+03  0.26282016258E+03 0.  0.
         25    1    3    3    0    0 -0.74576079020E+02 -0.93464915414E+02  0.87097315936E+02  0.19372850208E+03  0.12509000000E+03 0.  0.
         25    1    4    4    0    0  0.22500377983E+02  0.57681334054E+01  0.96807036633E+01  0.12759609122E+03  0.12509000000E+03 0.  0.
         25    1    4    4    0    0  0.52075701037E+02  0.87696782009E+02  0.21420489359E+02  0.16281569236E+03  0.12509000000E+03 0.  0.
<mgrwt>
<rscale>  2 0.46949007E+03</rscale>
<asrwt>0</asrwt>
<pdfrwt beam="1">  1       21 0.44289617E-01 0.46949007E+03</pdfrwt>
<pdfrwt beam="2">  1       21 0.26907484E-01 0.46949007E+03</pdfrwt>
<totfact> 0.59283852E+04</totfact>
</mgrwt>
</event>
<event>
 7    0  0.4784406E-002  0.4815523E+03  0.7546771E-02  0.1018709E+00
         21   -1    0    0  502  501  0.00000000000E+00  0.00000000000E+00  0.50396554043E+02  0.50396554043E+02  0.00000000000E+00 0. -1.
         21   -1    0    0  501  502 -0.00000000000E+00 -0.00000000000E+00 -0.11503395519E+04  0.11503395519E+04  0.00000000000E+00 0. -1.
      99926    2    1    2    0    0 -0.14210854715E-13  0.14210854715E-13 -0.10999429979E+04  0.12007361060E+04  0.48155227919E+03 0.  0.
      99925    2    3    3    0    0 -0.10757713419E+03  0.66269749423E+02 -0.80612995604E+03  0.85731489063E+03  0.26301862327E+03 0.  0.
         25    1    3    3    0    0  0.10757713419E+03 -0.66269749423E+02 -0.29381304186E+03  0.34342121535E+03  0.12509000000E+03 0.  0.
         25    1    4    4    0    0 -0.39638095392E+02  0.48403671177E+02 -0.29574076996E+03  0.32714554117E+03  0.12509000000E+03 0.  0.
         25    1    4    4    0    0 -0.67939038793E+02  0.17866078245E+02 -0.51038918607E+03  0.53016934946E+03  0.12509000000E+03 0.  0.
<mgrwt>
<rscale>  2 0.48155228E+03</rscale>
<asrwt>0</asrwt>
<pdfrwt beam="1">  1       21 0.74112585E-02 0.48155228E+03</pdfrwt>
<pdfrwt beam="2">  1       21 0.16916757E+00 0.48155228E+03</pdfrwt>
<totfact> 0.26264578E+04</totfact>
</mgrwt>
</event>
<event>
 7    0  0.4784406E-002  0.4534310E+03  0.7546771E-02  0.1026704E+00
         21   -1    0    0  502  501  0.00000000000E+00  0.00000000000E+00  0.40613489395E+03  0.40613489395E+03  0.00000000000E+00 0.  1.
         21   -1    0    0  501  502 -0.00000000000E+00 -0.00000000000E+00 -0.12655872573E+03  0.12655872573E+03  0.00000000000E+00 0.  1.
      99926    2    1    2    0    0  0.00000000000E+00 -0.71054273576E-14  0.27957616822E+03  0.53269361969E+03  0.45343098551E+03 0.  0.
      99925    2    3    3    0    0 -0.95310177966E+02  0.55974580635E+02  0.15682734156E+03  0.32549331504E+03  0.26293326030E+03 0.  0.
         25    1    4    4    0    0 -0.49265212182E+02  0.59432704782E+02  0.11207020029E+03  0.18484194714E+03  0.12509000000E+03 0.  0.
         25    1    4    4    0    0 -0.46044965783E+02 -0.34581241471E+01  0.44757141265E+02  0.14065136790E+03  0.12509000000E+03 0.  0.
         25    1    3    3    0    0  0.95310177966E+02 -0.55974580635E+02  0.12274882666E+03  0.20720030465E+03  0.12509000000E+03 0.  0.
<mgrwt>
<rscale>  2 0.45343099E+03</rscale>
<asrwt>0</asrwt>
<pdfrwt beam="1">  1       21 0.59725719E-01 0.45343099E+03</pdfrwt>
<pdfrwt beam="2">  1       21 0.18611577E-01 0.45343099E+03</pdfrwt>
<totfact> 0.63813659E+04</totfact>
</mgrwt>
</event>
<event>
 7    0  0.4784406E-002  0.4567215E+03  0.7546771E-02  0.1025736E+00
         21   -1    0    0  502  501  0.00000000000E+00  0.00000000000E+00  0.33563617042E+03  0.33563617042E+03  0.00000000000E+00 0.  1.
         21   -1    0    0  501  502 -0.00000000000E+00 -0.00000000000E+00 -0.15537253176E+03  0.15537253176E+03  0.00000000000E+00 0.  1.
      99926    2    1    2    0    0  0.00000000000E+00  0.71054273576E-14  0.18026363866E+03  0.49100870218E+03  0.45672154120E+03 0.  0.
      99925    2    3    3    0    0 -0.87682387681E+02  0.62294242657E+02  0.70132807471E+02  0.29265275482E+03  0.26297956278E+03 0.  0.
         25    1    4    4    0    0 -0.52696897140E+02  0.39908590277E+02  0.76220639659E+02  0.16070703954E+03  0.12509000000E+03 0.  0.
         25    1    4    4    0    0 -0.34985490540E+02  0.22385652380E+02 -0.60878321876E+01  0.13194571528E+03  0.12509000000E+03 0.  0.
         25    1    3    3    0    0  0.87682387681E+02 -0.62294242657E+02  0.11013083119E+03  0.19835594737E+03  0.12509000000E+03 0.  0.
<mgrwt>
<rscale>  2 0.45672154E+03</rscale>
<asrwt>0</asrwt>
<pdfrwt beam="1">  1       21 0.49358260E-01 0.45672154E+03</pdfrwt>
<pdfrwt beam="2">  1       21 0.22848902E-01 0.45672154E+03</pdfrwt>
<totfact> 0.65013973E+04</totfact>
</mgrwt>
</event>
<event>
 7    0  0.4784406E-002  0.4529638E+03  0.7546771E-02  0.1026842E+00
         21   -1    0    0  502  501  0.00000000000E+00  0.00000000000E+00  0.38576713522E+03  0.38576713522E+03  0.00000000000E+00 0. -1.
         21   -1    0    0  501  502 -0.00000000000E+00 -0.00000000000E+00 -0.13296637695E+03  0.13296637695E+03  0.00000000000E+00 0. -1.
      99926    2    1    2    0    0  0.00000000000E+00  0.14210854715E-13  0.25280075827E+03  0.51873351216E+03  0.45296383218E+03 0.  0.
      99925    2    3    3    0    0 -0.19013674540E+02  0.10904848280E+03  0.17210638224E+03  0.33322830511E+03  0.26299696786E+03 0.  0.
         25    1    3    3    0    0  0.19013674540E+02 -0.10904848280E+03  0.80694376028E+02  0.18550520705E+03  0.12509000000E+03 0.  0.
         25    1    4    4    0    0 -0.31697431855E+02  0.32989870011E+02  0.11361527320E+03  0.17506854975E+03  0.12509000000E+03 0.  0.
         25    1    4    4    0    0  0.12683757314E+02  0.76058612785E+02  0.58491109046E+02  0.15815975536E+03  0.12509000000E+03 0.  0.
<mgrwt>
<rscale>  2 0.45296383E+03</rscale>
<asrwt>0</asrwt>
<pdfrwt beam="1">  1       21 0.56730461E-01 0.45296383E+03</pdfrwt>
<pdfrwt beam="2">  1       21 0.19553879E-01 0.45296383E+03</pdfrwt>
<totfact> 0.65017635E+04</totfact>
</mgrwt>
</event>
<event>
 7    0  0.4784406E-002  0.4522438E+03  0.7546771E-02  0.1027055E+00
         21   -1    0    0  502  501  0.00000000000E+00  0.00000000000E+00  0.11097964721E+04  0.11097964721E+04  0.00000000000E+00 0.  1.
         21   -1    0    0  501  502 -0.00000000000E+00 -0.00000000000E+00 -0.46072506989E+02  0.46072506989E+02  0.00000000000E+00 0.  1.
      99926    2    1    2    0    0 -0.71054273576E-14  0.00000000000E+00  0.10637239652E+04  0.11558689791E+04  0.45224376489E+03 0.  0.
      99925    2    3    3    0    0 -0.53052141476E+02  0.94716984369E+02  0.61759286298E+03  0.67998421864E+03  0.26300524016E+03 0.  0.
         25    1    4    4    0    0  0.10527056742E+02  0.58899176899E+02  0.27299539349E+03  0.30619262717E+03  0.12509000000E+03 0.  0.
         25    1    3    3    0    0  0.53052141476E+02 -0.94716984369E+02  0.44613110217E+03  0.47588476049E+03  0.12509000000E+03 0.  0.
         25    1    4    4    0    0 -0.63579198218E+02  0.35817807471E+02  0.34459746949E+03  0.37379159147E+03  0.12509000000E+03 0.  0.
<mgrwt>
<rscale>  2 0.45224376E+03</rscale>
<asrwt>0</asrwt>
<pdfrwt beam="1">  1       21 0.16320535E+00 0.45224376E+03</pdfrwt>
<pdfrwt beam="2">  1       21 0.67753694E-02 0.45224376E+03</pdfrwt>
<totfact> 0.34318268E+04</totfact>
</mgrwt>
</event>
<event>
 7    0  0.4784406E-002  0.4538021E+03  0.7546771E-02  0.1026594E+00
         21   -1    0    0  502  501  0.00000000000E+00  0.00000000000E+00  0.48648350572E+02  0.48648350572E+02  0.00000000000E+00 0.  1.
         21   -1    0    0  501  502 -0.00000000000E+00 -0.00000000000E+00 -0.10582905653E+04  0.10582905653E+04  0.00000000000E+00 0.  1.
      99926    2    1    2    0    0  0.88817841970E-15  0.00000000000E+00 -0.10096422147E+04  0.11069389159E+04  0.45380211735E+03 0.  0.
      99925    2    3    3    0    0  0.65546767682E+01  0.30553360461E+02 -0.89844653476E+03  0.93667894123E+03  0.26303002013E+03 0.  0.
         25    1    4    4    0    0 -0.28740122268E+02  0.31550471621E+02 -0.38581563474E+03  0.40782672669E+03  0.12509000000E+03 0.  0.
         25    1    3    3    0    0 -0.65546767682E+01 -0.30553360461E+02 -0.11119567996E+03  0.17025997464E+03  0.12509000000E+03 0.  0.
         25    1    4    4    0    0  0.35294799036E+02 -0.99711115954E+00 -0.51263090002E+03  0.52885221454E+03  0.12509000000E+03 0.  0.
<mgrwt>
<rscale>  2 0.45380212E+03</rscale>
<asrwt>0</asrwt>
<pdfrwt beam="1">  1       21 0.71541703E-02 0.45380212E+03</pdfrwt>
<pdfrwt beam="2">  1       21 0.15563094E+00 0.45380212E+03</pdfrwt>
<totfact> 0.35584123E+04</totfact>
</mgrwt>
</event>
<event>
 7    0  0.4784406E-002  0.4528044E+03  0.7546771E-02  0.1026889E+00
         21   -1    0    0  502  501  0.00000000000E+00  0.00000000000E+00  0.93661801753E+03  0.93661801753E+03  0.00000000000E+00 0.  1.
         21   -1    0    0  501  502 -0.00000000000E+00 -0.00000000000E+00 -0.54726635128E+02  0.54726635128E+02  0.00000000000E+00 0.  1.
      99926    2    1    2    0    0  0.00000000000E+00  0.71054273576E-14  0.88189138240E+03  0.99134465266E+03  0.45280438381E+03 0.  0.
      99925    2    3    3    0    0  0.85959305951E+02  0.59935903877E+02  0.63811865734E+03  0.69799509252E+03  0.26271736424E+03 0.  0.
         25    1    4    4    0    0  0.30490445474E+02  0.21456150511E+02  0.39910824231E+03  0.41991062244E+03  0.12509000000E+03 0.  0.
         25    1    4    4    0    0  0.55468860477E+02  0.38479753366E+02  0.23901041504E+03  0.27808447008E+03  0.12509000000E+03 0.  0.
         25    1    3    3    0    0 -0.85959305951E+02 -0.59935903877E+02  0.24377272506E+03  0.29334956014E+03  0.12509000000E+03 0.  0.
<mgrwt>
<rscale>  2 0.45280438E+03</rscale>
<asrwt>0</asrwt>
<pdfrwt beam="1">  1       21 0.13773793E+00 0.45280438E+03</pdfrwt>
<pdfrwt beam="2">  1       21 0.80480352E-02 0.45280438E+03</pdfrwt>
<totfact> 0.40189923E+04</totfact>
</mgrwt>
</event>
<event>
 7    0  0.4784406E-002  0.4567596E+03  0.7546771E-02  0.1025725E+00
         21   -1    0    0  502  501  0.00000000000E+00  0.00000000000E+00  0.14309197553E+04  0.14309197553E+04  0.00000000000E+00 0. -1.
         21   -1    0    0  501  502 -0.00000000000E+00 -0.00000000000E+00 -0.36450207876E+02  0.36450207876E+02  0.00000000000E+00 0. -1.
      99926    2    1    2    0    0  0.00000000000E+00  0.00000000000E+00  0.13944695474E+04  0.14673699632E+04  0.45675955396E+03 0.  0.
      99925    2    3    3    0    0  0.19172185186E+02 -0.11326837429E+03  0.88891306978E+03  0.93404814899E+03  0.26283493243E+03 0.  0.
         25    1    3    3    0    0 -0.19172185186E+02  0.11326837429E+03  0.50555647763E+03  0.53332181418E+03  0.12509000000E+03 0.  0.
         25    1    4    4    0    0  0.95430620806E+01 -0.89957995858E+02  0.57049145592E+03  0.59100890047E+03  0.12509000000E+03 0.  0.
         25    1    4    4    0    0  0.96291231055E+01 -0.23310378429E+02  0.31842161385E+03  0.34303924852E+03  0.12509000000E+03 0.  0.
<mgrwt>
<rscale>  2 0.45675955E+03</rscale>
<asrwt>0</asrwt>
<pdfrwt beam="1">  1       21 0.21042934E+00 0.45675955E+03</pdfrwt>
<pdfrwt beam="2">  1       21 0.53603256E-02 0.45675955E+03</pdfrwt>
<totfact> 0.24257006E+04</totfact>
</mgrwt>
</event>
<event>
 7    0  0.4784406E-002  0.4535538E+03  0.7546771E-02  0.1026668E+00
         21   -1    0    0  502  501  0.00000000000E+00  0.00000000000E+00  0.16486003926E+03  0.16486003926E+03  0.00000000000E+00 0.  1.
         21   -1    0    0  501  502 -0.00000000000E+00 -0.00000000000E+00 -0.31194807672E+03  0.31194807672E+03  0.00000000000E+00 0.  1.
      99926    2    1    2    0    0  0.00000000000E+00  0.00000000000E+00 -0.14708803747E+03  0.47680811598E+03  0.45355384321E+03 0.  0.
      99925    2    3    3    0    0 -0.55200629531E+01 -0.97158021227E+02 -0.15061766779E+03  0.31828329592E+03  0.26296087623E+03 0.  0.
         25    1    4    4    0    0  0.64987902888E+00 -0.46132528564E+02 -0.29088925702E+02  0.13646357108E+03  0.12509000000E+03 0.  0.
         25    1    3    3    0    0  0.55200629531E+01  0.97158021227E+02  0.35296303244E+01  0.15852482006E+03  0.12509000000E+03 0.  0.
         25    1    4    4    0    0 -0.61699419820E+01 -0.51025492664E+02 -0.12152874209E+03  0.18181972484E+03  0.12509000000E+03 0.  0.
<mgrwt>
<rscale>  2 0.45355384E+03</rscale>
<asrwt>0</asrwt>
<pdfrwt beam="1">  1       21 0.24244124E-01 0.45355384E+03</pdfrwt>
<pdfrwt beam="2">  1       21 0.45874717E-01 0.45355384E+03</pdfrwt>
<totfact> 0.67706982E+04</totfact>
</mgrwt>
</event>
<event>
 7    0  0.4784406E-002  0.4583998E+03  0.7546771E-02  0.1025246E+00
         21   -1    0    0  502  501  0.00000000000E+00  0.00000000000E+00  0.30492159847E+03  0.30492159847E+03  0.00000000000E+00 0. -1.
         21   -1    0    0  501  502 -0.00000000000E+00 -0.00000000000E+00 -0.17228232856E+03  0.17228232856E+03  0.00000000000E+00 0. -1.
      99926    2    1    2    0    0 -0.26645352591E-14  0.00000000000E+00  0.13263926992E+03  0.47720392703E+03  0.45839983862E+03 0.  0.
      99925    2    3    3    0    0  0.76703595049E+01  0.35424828612E+02 -0.32433775620E+02  0.26694130230E+03  0.26247277225E+03 0.  0.
         25    1    3    3    0    0 -0.76703595049E+01 -0.35424828612E+02  0.16507304554E+03  0.21026262473E+03  0.12509000000E+03 0.  0.
         25    1    4    4    0    0  0.36523476648E+02 -0.45792229919E+01 -0.19761165361E+02  0.13188231643E+03  0.12509000000E+03 0.  0.
         25    1    4    4    0    0 -0.28853117143E+02  0.40004051604E+02 -0.12672610259E+02  0.13505898587E+03  0.12509000000E+03 0.  0.
<mgrwt>
<rscale>  2 0.45839984E+03</rscale>
<asrwt>0</asrwt>
<pdfrwt beam="1">  1       21 0.44841411E-01 0.45839984E+03</pdfrwt>
<pdfrwt beam="2">  1       21 0.25335637E-01 0.45839984E+03</pdfrwt>
<totfact> 0.65129156E+04</totfact>
</mgrwt>
</event>
<event>
 7    0  0.4784406E-002  0.4499925E+03  0.7546771E-02  0.1027724E+00
         21   -1    0    0  502  501  0.00000000000E+00  0.00000000000E+00  0.98696315156E+03  0.98696315156E+03  0.00000000000E+00 0.  1.
         21   -1    0    0  501  502 -0.00000000000E+00 -0.00000000000E+00 -0.51291990428E+02  0.51291990428E+02  0.00000000000E+00 0.  1.
      99926    2    1    2    0    0  0.00000000000E+00 -0.14210854715E-13  0.93567116114E+03  0.10382551420E+04  0.44999246448E+03 0.  0.
      99925    2    3    3    0    0  0.58722267199E+02 -0.83488592664E+02  0.50822169120E+03  0.58133150809E+03  0.26313187781E+03 0.  0.
         25    1    3    3    0    0 -0.58722267199E+02  0.83488592664E+02  0.42744946993E+03  0.45692363390E+03  0.12509000000E+03 0.  0.
         25    1    4    4    0    0  0.36018533694E+02 -0.35868498958E+02  0.33543534508E+03  0.36159129250E+03  0.12509000000E+03 0.  0.
         25    1    4    4    0    0  0.22703733506E+02 -0.47620093706E+02  0.17278634612E+03  0.21974021559E+03  0.12509000000E+03 0.  0.
<mgrwt>
<rscale>  2 0.44999246E+03</rscale>
<asrwt>0</asrwt>
<pdfrwt beam="1">  1       21 0.14514163E+00 0.44999246E+03</pdfrwt>
<pdfrwt beam="2">  1       21 0.75429404E-02 0.44999246E+03</pdfrwt>
<totfact> 0.39222225E+04</totfact>
</mgrwt>
</event>
<event>
 7    0  0.4784406E-002  0.4507550E+03  0.7546771E-02  0.1027497E+00
         21   -1    0    0  502  501  0.00000000000E+00  0.00000000000E+00  0.44855850276E+03  0.44855850276E+03  0.00000000000E+00 0.  1.
         21   -1    0    0  501  502 -0.00000000000E+00 -0.00000000000E+00 -0.11324056925E+03  0.11324056925E+03  0.00000000000E+00 0.  1.
      99926    2    1    2    0    0  0.14210854715E-13  0.00000000000E+00  0.33531793351E+03  0.56179907201E+03  0.45075501192E+03 0.  0.
      99925    2    3    3    0    0 -0.92316384885E+02  0.54303297131E+02  0.18492846013E+03  0.33878412901E+03  0.26287827545E+03 0.  0.
         25    1    4    4    0    0 -0.11153597743E+02  0.49131229652E+01  0.67492849298E+02  0.14265810291E+03  0.12509000000E+03 0.  0.
         25    1    3    3    0    0  0.92316384885E+02 -0.54303297131E+02  0.15038947338E+03  0.22301494300E+03  0.12509000000E+03 0.  0.
         25    1    4    4    0    0 -0.81162787142E+02  0.49390174166E+02  0.11743561083E+03  0.19612602610E+03  0.12509000000E+03 0.  0.
<mgrwt>
<rscale>  2 0.45075501E+03</rscale>
<asrwt>0</asrwt>
<pdfrwt beam="1">  1       21 0.65964485E-01 0.45075501E+03</pdfrwt>
<pdfrwt beam="2">  1       21 0.16653025E-01 0.45075501E+03</pdfrwt>
<totfact> 0.63188499E+04</totfact>
</mgrwt>
</event>
<event>
 7    0  0.4784406E-002  0.4544894E+03  0.7546771E-02  0.1026392E+00
         21   -1    0    0  502  501  0.00000000000E+00  0.00000000000E+00  0.39743633301E+03  0.39743633301E+03  0.00000000000E+00 0. -1.
         21   -1    0    0  501  502 -0.00000000000E+00 -0.00000000000E+00 -0.12993315350E+03  0.12993315350E+03  0.00000000000E+00 0. -1.
      99926    2    1    2    0    0  0.00000000000E+00  0.88817841970E-15  0.26750317951E+03  0.52736948651E+03  0.45448941050E+03 0.  0.
      99925    2    3    3    0    0  0.58015759145E+02  0.76922307446E+01  0.56986879468E+02  0.27559653442E+03  0.26321274024E+03 0.  0.
         25    1    4    4    0    0 -0.46552307204E+01 -0.15114855426E+02  0.10994660115E+02  0.12656429464E+03  0.12509000000E+03 0.  0.
         25    1    3    3    0    0 -0.58015759145E+02 -0.76922307446E+01  0.21051630004E+03  0.25177295209E+03  0.12509000000E+03 0.  0.
         25    1    4    4    0    0  0.62670989866E+02  0.22807086171E+02  0.45992219353E+02  0.14903223977E+03  0.12509000000E+03 0.  0.
<mgrwt>
<rscale>  2 0.45448941E+03</rscale>
<asrwt>0</asrwt>
<pdfrwt beam="1">  1       21 0.58446519E-01 0.45448941E+03</pdfrwt>
<pdfrwt beam="2">  1       21 0.19107817E-01 0.45448941E+03</pdfrwt>
<totfact> 0.63642145E+04</totfact>
</mgrwt>
</event>
