<event>
 6    0  0.1191266E-005  0.9253203E+03  0.7546771E-02  0.9394472E-01
         21   -1    0    0  502  501  0.00000000000E+00  0.00000000000E+00  0.67645301826E+03  0.67645301826E+03  0.00000000000E+00 0.  1.
         21   -1    0    0  501  502 -0.00000000000E+00 -0.00000000000E+00 -0.31643649666E+03  0.31643649666E+03  0.00000000000E+00 0.  1.
      99926    2    1    2    0    0 -0.92527665380E+02 -0.65315960764E+02  0.56191136588E+03  0.72976106751E+03  0.45164066353E+03 0.  0.
         25    1    3    3    0    0  0.83205088931E+02  0.78243164393E+02  0.91036741520E+02  0.19230256370E+03  0.12509000000E+03 0.  0.
         25    1    3    3    0    0 -0.17573275431E+03 -0.14355912516E+03  0.47087462436E+03  0.53745850381E+03  0.12509000000E+03 0.  0.
         25    1    1    2    0    0  0.92527665380E+02  0.65315960764E+02 -0.20189484427E+03  0.26312844741E+03  0.12509000000E+03 0.  0.
<mgrwt>
<rscale>  2 0.92532032E+03</rscale>
<asrwt>0</asrwt>
<pdfrwt beam="1">  1       21 0.99478385E-01 0.92532032E+03</pdfrwt>
<pdfrwt beam="2">  1       21 0.46534779E-01 0.92532032E+03</pdfrwt>
<totfact> 0.28594159E+03</totfact>
</mgrwt>
</event>
<event>
 6    0  0.1191266E-005  0.7040634E+03  0.7546771E-02  0.9710308E-01
         21   -1    0    0  502  501  0.00000000000E+00  0.00000000000E+00  0.10075284417E+03  0.10075284417E+03  0.00000000000E+00 0.  1.
         21   -1    0    0  501  502 -0.00000000000E+00 -0.00000000000E+00 -0.12300032132E+04  0.12300032132E+04  0.00000000000E+00 0.  1.
      99926    2    1    2    0    0  0.14844404215E+03 -0.11606639458E+03 -0.87273953973E+03  0.98877308228E+03  0.42484216180E+03 0.  0.
         25    1    3    3    0    0  0.10551579684E+03 -0.14812525957E+03 -0.80887364332E+03  0.83845021013E+03  0.12509000000E+03 0.  0.
         25    1    3    3    0    0  0.42928245310E+02  0.32058864987E+02 -0.63865896407E+02  0.15032287216E+03  0.12509000000E+03 0.  0.
         25    1    1    2    0    0 -0.14844404215E+03  0.11606639458E+03 -0.25651082928E+03  0.34198297507E+03  0.12509000000E+03 0.  0.
<mgrwt>
<rscale>  2 0.70406341E+03</rscale>
<asrwt>0</asrwt>
<pdfrwt beam="1">  1       21 0.14816594E-01 0.70406341E+03</pdfrwt>
<pdfrwt beam="2">  1       21 0.18088283E+00 0.70406341E+03</pdfrwt>
<totfact> 0.58158582E+03</totfact>
</mgrwt>
</event>
<event>
 6    0  0.1191266E-005  0.6091960E+03  0.7546771E-02  0.9886509E-01
         21   -1    0    0  502  501  0.00000000000E+00  0.00000000000E+00  0.27068324980E+03  0.27068324980E+03  0.00000000000E+00 0. -1.
         21   -1    0    0  501  502 -0.00000000000E+00 -0.00000000000E+00 -0.34276206257E+03  0.34276206257E+03  0.00000000000E+00 0. -1.
      99926    2    1    2    0    0 -0.35029254263E+02 -0.44554900606E+02 -0.10841263982E+03  0.47138953843E+03  0.45523906757E+03 0.  0.
         25    1    1    2    0    0  0.35029254263E+02  0.44554900606E+02  0.36333827045E+02  0.14205577394E+03  0.12509000000E+03 0.  0.
         25    1    3    3    0    0 -0.19769781827E+03 -0.80842301742E+02 -0.84907878787E+02  0.26168064713E+03  0.12509000000E+03 0.  0.
         25    1    3    3    0    0  0.16266856401E+03  0.36287401136E+02 -0.23504761031E+02  0.20970889130E+03  0.12509000000E+03 0.  0.
<mgrwt>
<rscale>  2 0.60919602E+03</rscale>
<asrwt>0</asrwt>
<pdfrwt beam="1">  1       21 0.39806360E-01 0.60919602E+03</pdfrwt>
<pdfrwt beam="2">  1       21 0.50406185E-01 0.60919602E+03</pdfrwt>
<totfact> 0.19922762E+04</totfact>
</mgrwt>
</event>
<event>
 6    0  0.1191266E-005  0.7386467E+03  0.7546771E-02  0.9653332E-01
         21   -1    0    0  502  501  0.00000000000E+00  0.00000000000E+00  0.84706725807E+02  0.84706725807E+02  0.00000000000E+00 0. -1.
         21   -1    0    0  501  502 -0.00000000000E+00 -0.00000000000E+00 -0.16102584677E+04  0.16102584677E+04  0.00000000000E+00 0. -1.
      99926    2    1    2    0    0  0.88761497149E+01  0.10303333488E+03 -0.61202578820E+03  0.76713340363E+03  0.45080310493E+03 0.  0.
         25    1    1    2    0    0 -0.88761497149E+01 -0.10303333488E+03 -0.91352595371E+03  0.92783178989E+03  0.12509000000E+03 0.  0.
         25    1    3    3    0    0 -0.36247375226E+02 -0.48541339635E+02 -0.53256370552E+03  0.55040143750E+03  0.12509000000E+03 0.  0.
         25    1    3    3    0    0  0.45123524940E+02  0.15157467452E+03 -0.79462082674E+02  0.21673196613E+03  0.12509000000E+03 0.  0.
<mgrwt>
<rscale>  2 0.73864666E+03</rscale>
<asrwt>0</asrwt>
<pdfrwt beam="1">  1       21 0.12456873E-01 0.73864666E+03</pdfrwt>
<pdfrwt beam="2">  1       21 0.23680268E+00 0.73864666E+03</pdfrwt>
<totfact> 0.33618285E+03</totfact>
</mgrwt>
</event>
<event>
 6    0  0.1191266E-005  0.9948222E+03  0.7546771E-02  0.9314242E-01
         21   -1    0    0  502  501  0.00000000000E+00  0.00000000000E+00  0.24840282416E+03  0.24840282416E+03  0.00000000000E+00 0.  1.
         21   -1    0    0  501  502 -0.00000000000E+00 -0.00000000000E+00 -0.99603461733E+03  0.99603461733E+03  0.00000000000E+00 0.  1.
      99926    2    1    2    0    0 -0.25110352972E+03  0.22058888185E+03 -0.21576478095E+03  0.60393571299E+03  0.45439131516E+03 0.  0.
         25    1    3    3    0    0  0.90124776108E+02  0.82981343451E+02 -0.56859855556E+02  0.18408946168E+03  0.12509000000E+03 0.  0.
         25    1    3    3    0    0 -0.34122830583E+03  0.13760753840E+03 -0.15890492540E+03  0.41984625131E+03  0.12509000000E+03 0.  0.
         25    1    1    2    0    0  0.25110352972E+03 -0.22058888185E+03 -0.53186701221E+03  0.64050172850E+03  0.12509000000E+03 0.  0.
<mgrwt>
<rscale>  2 0.99482222E+03</rscale>
<asrwt>0</asrwt>
<pdfrwt beam="1">  1       21 0.36529826E-01 0.99482222E+03</pdfrwt>
<pdfrwt beam="2">  1       21 0.14647568E+00 0.99482222E+03</pdfrwt>
<totfact> 0.17160569E+03</totfact>
</mgrwt>
</event>
<event>
 6    0  0.1191266E-005  0.6712668E+03  0.7546771E-02  0.9767672E-01
         21   -1    0    0  502  501  0.00000000000E+00  0.00000000000E+00  0.13205223668E+04  0.13205223668E+04  0.00000000000E+00 0.  1.
         21   -1    0    0  501  502 -0.00000000000E+00 -0.00000000000E+00 -0.85306972027E+02  0.85306972027E+02  0.00000000000E+00 0.  1.
      99926    2    1    2    0    0  0.13529689705E+03 -0.55087727843E+02  0.85676695348E+03  0.98131710234E+03  0.45562455449E+03 0.  0.
         25    1    3    3    0    0  0.26446475126E+02 -0.48766731896E+02  0.32678267410E+02  0.14068755257E+03  0.12509000000E+03 0.  0.
         25    1    3    3    0    0  0.10885042192E+03 -0.63209959467E+01  0.82408868607E+03  0.84062954977E+03  0.12509000000E+03 0.  0.
         25    1    1    2    0    0 -0.13529689705E+03  0.55087727843E+02  0.37844844129E+03  0.42451223648E+03  0.12509000000E+03 0.  0.
<mgrwt>
<rscale>  2 0.67126676E+03</rscale>
<asrwt>0</asrwt>
<pdfrwt beam="1">  1       21 0.19419445E+00 0.67126676E+03</pdfrwt>
<pdfrwt beam="2">  1       21 0.12545144E-01 0.67126676E+03</pdfrwt>
<totfact> 0.64400989E+03</totfact>
</mgrwt>
</event>
<event>
 6    0  0.1191266E-005  0.8660771E+03  0.7546771E-02  0.9469009E-01
         21   -1    0    0  502  501  0.00000000000E+00  0.00000000000E+00  0.18111239768E+04  0.18111239768E+04  0.00000000000E+00 0.  1.
         21   -1    0    0  501  502 -0.00000000000E+00 -0.00000000000E+00 -0.10353922636E+03  0.10353922636E+03  0.00000000000E+00 0.  1.
      99926    2    1    2    0    0  0.12079358371E+03 -0.11224720014E+03  0.16203475110E+04  0.16900560620E+04  0.45119055028E+03 0.  0.
         25    1    3    3    0    0 -0.82414343310E+02  0.21478937239E+02  0.10092305158E+04  0.10205132095E+04  0.12509000000E+03 0.  0.
         25    1    1    2    0    0 -0.12079358371E+03  0.11224720014E+03  0.87237239480E+02  0.22460714115E+03  0.12509000000E+03 0.  0.
         25    1    3    3    0    0  0.20320792702E+03 -0.13372613738E+03  0.61111699522E+03  0.66954285253E+03  0.12509000000E+03 0.  0.
<mgrwt>
<rscale>  2 0.86607708E+03</rscale>
<asrwt>0</asrwt>
<pdfrwt beam="1">  1       21 0.26634174E+00 0.86607708E+03</pdfrwt>
<pdfrwt beam="2">  1       21 0.15226358E-01 0.86607708E+03</pdfrwt>
<totfact> 0.14607817E+03</totfact>
</mgrwt>
</event>
<event>
 6    0  0.1191266E-005  0.7467402E+03  0.7546771E-02  0.9640478E-01
         21   -1    0    0  502  501  0.00000000000E+00  0.00000000000E+00  0.34910564852E+03  0.34910564852E+03  0.00000000000E+00 0.  1.
         21   -1    0    0  501  502 -0.00000000000E+00 -0.00000000000E+00 -0.39932102232E+03  0.39932102232E+03  0.00000000000E+00 0.  1.
      99926    2    1    2    0    0  0.19695379633E+03 -0.57134549780E+02  0.22838364984E+02  0.49734996639E+03  0.45252651137E+03 0.  0.
         25    1    3    3    0    0  0.19575215272E+03 -0.10666387002E+03  0.16291436073E+03  0.30312486453E+03  0.12509000000E+03 0.  0.
         25    1    3    3    0    0  0.12016436085E+01  0.49529320240E+02 -0.14007599575E+03  0.19422510187E+03  0.12509000000E+03 0.  0.
         25    1    1    2    0    0 -0.19695379633E+03  0.57134549780E+02 -0.73053738783E+02  0.25107670445E+03  0.12509000000E+03 0.  0.
<mgrwt>
<rscale>  2 0.74674018E+03</rscale>
<asrwt>0</asrwt>
<pdfrwt beam="1">  1       21 0.51339066E-01 0.74674018E+03</pdfrwt>
<pdfrwt beam="2">  1       21 0.58723680E-01 0.74674018E+03</pdfrwt>
<totfact> 0.81387208E+03</totfact>
</mgrwt>
</event>
<event>
 6    0  0.1191266E-005  0.6633769E+03  0.7546771E-02  0.9781997E-01
         21   -1    0    0  502  501  0.00000000000E+00  0.00000000000E+00  0.15789943683E+03  0.15789943683E+03  0.00000000000E+00 0.  1.
         21   -1    0    0  501  502 -0.00000000000E+00 -0.00000000000E+00 -0.69675495881E+03  0.69675495881E+03  0.00000000000E+00 0.  1.
      99926    2    1    2    0    0 -0.71543292469E+02 -0.67085074990E+02 -0.25389118020E+03  0.52835540059E+03  0.45285742565E+03 0.  0.
         25    1    3    3    0    0 -0.83604741002E+02 -0.36825492400E+02 -0.33960126001E+03  0.37325915060E+03  0.12509000000E+03 0.  0.
         25    1    1    2    0    0  0.71543292469E+02  0.67085074990E+02 -0.28496434178E+03  0.32629899505E+03  0.12509000000E+03 0.  0.
         25    1    3    3    0    0  0.12061448533E+02 -0.30259582590E+02  0.85710079812E+02  0.15509624999E+03  0.12509000000E+03 0.  0.
<mgrwt>
<rscale>  2 0.66337686E+03</rscale>
<asrwt>0</asrwt>
<pdfrwt beam="1">  1       21 0.23220505E-01 0.66337686E+03</pdfrwt>
<pdfrwt beam="2">  1       21 0.10246397E+00 0.66337686E+03</pdfrwt>
<totfact> 0.11457734E+04</totfact>
</mgrwt>
</event>
<event>
 6    0  0.1191266E-005  0.6372183E+03  0.7546771E-02  0.9831063E-01
         21   -1    0    0  502  501  0.00000000000E+00  0.00000000000E+00  0.34823439250E+03  0.34823439250E+03  0.00000000000E+00 0. -1.
         21   -1    0    0  501  502 -0.00000000000E+00 -0.00000000000E+00 -0.29150421590E+03  0.29150421590E+03  0.00000000000E+00 0. -1.
      99926    2    1    2    0    0 -0.11880280748E+03 -0.16063538525E+02  0.68221380404E+02  0.46609615910E+03  0.44521829303E+03 0.  0.
         25    1    3    3    0    0 -0.23295410652E+03 -0.80145996683E+02  0.69994447728E+02  0.28502232780E+03  0.12509000000E+03 0.  0.
         25    1    3    3    0    0  0.11415129904E+03  0.64082458158E+02 -0.17730673236E+01  0.18107383131E+03  0.12509000000E+03 0.  0.
         25    1    1    2    0    0  0.11880280748E+03  0.16063538525E+02 -0.11491203807E+02  0.17364244930E+03  0.12509000000E+03 0.  0.
<mgrwt>
<rscale>  2 0.63721831E+03</rscale>
<asrwt>0</asrwt>
<pdfrwt beam="1">  1       21 0.51210940E-01 0.63721831E+03</pdfrwt>
<pdfrwt beam="2">  1       21 0.42868267E-01 0.63721831E+03</pdfrwt>
<totfact> 0.16414583E+04</totfact>
</mgrwt>
</event>
<event>
 6    0  0.1191266E-005  0.6635061E+03  0.7546771E-02  0.9781761E-01
         21   -1    0    0  502  501  0.00000000000E+00  0.00000000000E+00  0.92925062056E+02  0.92925062056E+02  0.00000000000E+00 0.  1.
         21   -1    0    0  501  502 -0.00000000000E+00 -0.00000000000E+00 -0.11843960633E+04  0.11843960633E+04  0.00000000000E+00 0.  1.
      99926    2    1    2    0    0 -0.11513496837E+03 -0.67277425018E+02 -0.84003983905E+03  0.96643939498E+03  0.45886366181E+03 0.  0.
         25    1    3    3    0    0 -0.21265544626E+03  0.73544215225E+02 -0.36993432471E+03  0.45069945985E+03  0.12509000000E+03 0.  0.
         25    1    1    2    0    0  0.11513496837E+03  0.67277425018E+02 -0.25143116220E+03  0.31088173038E+03  0.12509000000E+03 0.  0.
         25    1    3    3    0    0  0.97520477893E+02 -0.14082164024E+03 -0.47010551435E+03  0.51573993513E+03  0.12509000000E+03 0.  0.
<mgrwt>
<rscale>  2 0.66350607E+03</rscale>
<asrwt>0</asrwt>
<pdfrwt beam="1">  1       21 0.13665452E-01 0.66350607E+03</pdfrwt>
<pdfrwt beam="2">  1       21 0.17417587E+00 0.66350607E+03</pdfrwt>
<totfact> 0.76297816E+03</totfact>
</mgrwt>
</event>
<event>
 6    0  0.1191266E-005  0.6809362E+03  0.7546771E-02  0.9750401E-01
         21   -1    0    0  502  501  0.00000000000E+00  0.00000000000E+00  0.17906860421E+03  0.17906860421E+03  0.00000000000E+00 0. -1.
         21   -1    0    0  501  502 -0.00000000000E+00 -0.00000000000E+00 -0.64734137409E+03  0.64734137409E+03  0.00000000000E+00 0. -1.
      99926    2    1    2    0    0  0.13243367012E+03 -0.75012756956E+02 -0.34329860609E+03  0.59310408381E+03  0.45907834909E+03 0.  0.
         25    1    1    2    0    0 -0.13243367012E+03  0.75012756956E+02 -0.12497416379E+03  0.23330589449E+03  0.12509000000E+03 0.  0.
         25    1    3    3    0    0 -0.12214448726E+03 -0.52778858554E+02 -0.61635625177E+02  0.19274683413E+03  0.12509000000E+03 0.  0.
         25    1    3    3    0    0  0.25457815738E+03 -0.22233898402E+02 -0.28166298091E+03  0.40035724968E+03  0.12509000000E+03 0.  0.
<mgrwt>
<rscale>  2 0.68093617E+03</rscale>
<asrwt>0</asrwt>
<pdfrwt beam="1">  1       21 0.26333618E-01 0.68093617E+03</pdfrwt>
<pdfrwt beam="2">  1       21 0.95197261E-01 0.68093617E+03</pdfrwt>
<totfact> 0.10684068E+04</totfact>
</mgrwt>
</event>
<event>
 6    0  0.1191266E-005  0.7826676E+03  0.7546771E-02  0.9585449E-01
         21   -1    0    0  502  501  0.00000000000E+00  0.00000000000E+00  0.22330242831E+03  0.22330242831E+03  0.00000000000E+00 0.  1.
         21   -1    0    0  501  502 -0.00000000000E+00 -0.00000000000E+00 -0.68580602566E+03  0.68580602566E+03  0.00000000000E+00 0.  1.
      99926    2    1    2    0    0  0.75852236099E+02  0.11685993128E+03 -0.52107118804E+03  0.71292620187E+03  0.46619607575E+03 0.  0.
         25    1    1    2    0    0 -0.75852236099E+02 -0.11685993128E+03  0.58567590689E+02  0.19618225210E+03  0.12509000000E+03 0.  0.
         25    1    3    3    0    0  0.21736031129E+03  0.11043525038E+03 -0.19596534214E+03  0.33688480653E+03  0.12509000000E+03 0.  0.
         25    1    3    3    0    0 -0.14150807520E+03  0.64246809059E+01 -0.32510584590E+03  0.37604139534E+03  0.12509000000E+03 0.  0.
<mgrwt>
<rscale>  2 0.78266762E+03</rscale>
<asrwt>0</asrwt>
<pdfrwt beam="1">  1       21 0.32838593E-01 0.78266762E+03</pdfrwt>
<pdfrwt beam="2">  1       21 0.10085383E+00 0.78266762E+03</pdfrwt>
<totfact> 0.58521160E+03</totfact>
</mgrwt>
</event>
<event>
 6    0  0.1191266E-005  0.1367359E+04  0.7546771E-02  0.8977791E-01
         21   -1    0    0  502  501  0.00000000000E+00  0.00000000000E+00  0.55073758400E+03  0.55073758400E+03  0.00000000000E+00 0. -1.
         21   -1    0    0  501  502 -0.00000000000E+00 -0.00000000000E+00 -0.84871215942E+03  0.84871215942E+03  0.00000000000E+00 0.  1.
      99926    2    1    2    0    0 -0.51920338710E+03  0.25087963231E+03  0.54847617075E+01  0.73593800692E+03  0.45723289506E+03 0.  0.
         25    1    3    3    0    0 -0.84973497239E+02 -0.72592163291E+02  0.58577354088E+02  0.17767648104E+03  0.12509000000E+03 0.  0.
         25    1    1    2    0    0  0.51920338710E+03 -0.25087963231E+03 -0.30345933713E+03  0.66351173650E+03  0.12509000000E+03 0.  0.
         25    1    3    3    0    0 -0.43422988986E+03  0.32347179560E+03 -0.53092592381E+02  0.55826152587E+03  0.12509000000E+03 0.  0.
<mgrwt>
<rscale>  2 0.13673590E+04</rscale>
<asrwt>0</asrwt>
<pdfrwt beam="1">  1       21 0.80990821E-01 0.13673590E+04</pdfrwt>
<pdfrwt beam="2">  1       21 0.12481061E+00 0.13673590E+04</pdfrwt>
<totfact> 0.43171907E+02</totfact>
</mgrwt>
</event>
<event>
 6    0  0.1191266E-005  0.5999601E+03  0.7546771E-02  0.9905489E-01
         21   -1    0    0  502  501  0.00000000000E+00  0.00000000000E+00  0.33731158646E+03  0.33731158646E+03  0.00000000000E+00 0. -1.
         21   -1    0    0  501  502 -0.00000000000E+00 -0.00000000000E+00 -0.26678017250E+03  0.26678017250E+03  0.00000000000E+00 0. -1.
      99926    2    1    2    0    0  0.96344725448E+01 -0.50785708403E+02  0.80308696133E+02  0.46838945763E+03  0.45854900077E+03 0.  0.
         25    1    3    3    0    0 -0.15594125973E+03  0.64990827422E+02  0.94205472459E+02  0.23035551497E+03  0.12509000000E+03 0.  0.
         25    1    3    3    0    0  0.16557573228E+03 -0.11577653582E+03 -0.13896776325E+02  0.23803394266E+03  0.12509000000E+03 0.  0.
         25    1    1    2    0    0 -0.96344725448E+01  0.50785708403E+02 -0.97772821666E+01  0.13570230133E+03  0.12509000000E+03 0.  0.
<mgrwt>
<rscale>  2 0.59996014E+03</rscale>
<asrwt>0</asrwt>
<pdfrwt beam="1">  1       21 0.49604645E-01 0.59996014E+03</pdfrwt>
<pdfrwt beam="2">  1       21 0.39232378E-01 0.59996014E+03</pdfrwt>
<totfact> 0.21284358E+04</totfact>
</mgrwt>
</event>
<event>
 6    0  0.1191266E-005  0.7948386E+03  0.7546771E-02  0.9567518E-01
         21   -1    0    0  502  501  0.00000000000E+00  0.00000000000E+00  0.98006405415E+03  0.98006405415E+03  0.00000000000E+00 0. -1.
         21   -1    0    0  501  502 -0.00000000000E+00 -0.00000000000E+00 -0.16115488755E+03  0.16115488755E+03  0.00000000000E+00 0. -1.
      99926    2    1    2    0    0  0.22883552852E+03  0.73107393608E+02  0.62863113326E+03  0.81021497165E+03  0.45117713646E+03 0.  0.
         25    1    3    3    0    0  0.12637140351E+03  0.21149733971E+03  0.46833341544E+03  0.54376884101E+03  0.12509000000E+03 0.  0.
         25    1    1    2    0    0 -0.22883552852E+03 -0.73107393608E+02  0.19027803334E+03  0.33100397005E+03  0.12509000000E+03 0.  0.
         25    1    3    3    0    0  0.10246412501E+03 -0.13838994610E+03  0.16029771782E+03  0.26644613064E+03  0.12509000000E+03 0.  0.
<mgrwt>
<rscale>  2 0.79483863E+03</rscale>
<asrwt>0</asrwt>
<pdfrwt beam="1">  1       21 0.14412706E+00 0.79483863E+03</pdfrwt>
<pdfrwt beam="2">  1       21 0.23699249E-01 0.79483863E+03</pdfrwt>
<totfact> 0.44387577E+03</totfact>
</mgrwt>
</event>
<event>
 6    0  0.1191266E-005  0.7935950E+03  0.7546771E-02  0.9569335E-01
         21   -1    0    0  502  501  0.00000000000E+00  0.00000000000E+00  0.28803254093E+03  0.28803254093E+03  0.00000000000E+00 0. -1.
         21   -1    0    0  501  502 -0.00000000000E+00 -0.00000000000E+00 -0.54663363351E+03  0.54663363351E+03  0.00000000000E+00 0. -1.
      99926    2    1    2    0    0  0.88897436160E+02 -0.39845644964E+02  0.67712515020E+02  0.47187352266E+03  0.45671567427E+03 0.  0.
         25    1    3    3    0    0 -0.11861378228E+03  0.85458106173E+02  0.76443522084E+01  0.19255716418E+03  0.12509000000E+03 0.  0.
         25    1    1    2    0    0 -0.88897436160E+02  0.39845644964E+02 -0.32631360760E+03  0.36279265178E+03  0.12509000000E+03 0.  0.
         25    1    3    3    0    0  0.20751121844E+03 -0.12530375114E+03  0.60068162812E+02  0.27931635848E+03  0.12509000000E+03 0.  0.
<mgrwt>
<rscale>  2 0.79359505E+03</rscale>
<asrwt>0</asrwt>
<pdfrwt beam="1">  1       21 0.42357727E-01 0.79359505E+03</pdfrwt>
<pdfrwt beam="2">  1       21 0.80387298E-01 0.79359505E+03</pdfrwt>
<totfact> 0.59555517E+03</totfact>
</mgrwt>
</event>
<event>
 6    0  0.1191266E-005  0.6120939E+03  0.7546771E-02  0.9880628E-01
         21   -1    0    0  502  501  0.00000000000E+00  0.00000000000E+00  0.45189870405E+03  0.45189870405E+03  0.00000000000E+00 0.  1.
         21   -1    0    0  501  502 -0.00000000000E+00 -0.00000000000E+00 -0.20726932918E+03  0.20726932918E+03  0.00000000000E+00 0.  1.
      99926    2    1    2    0    0 -0.43053353514E+02 -0.72088499050E+02  0.20169830355E+03  0.50251258989E+03  0.45253326331E+03 0.  0.
         25    1    3    3    0    0 -0.11041796242E+03 -0.98742936441E+02 -0.60504751523E+02  0.20310250363E+03  0.12509000000E+03 0.  0.
         25    1    1    2    0    0  0.43053353514E+02  0.72088499050E+02  0.42931071319E+02  0.15665544334E+03  0.12509000000E+03 0.  0.
         25    1    3    3    0    0  0.67364608909E+02  0.26654437392E+02  0.26220305507E+03  0.29941008626E+03  0.12509000000E+03 0.  0.
<mgrwt>
<rscale>  2 0.61209392E+03</rscale>
<asrwt>0</asrwt>
<pdfrwt beam="1">  1       21 0.66455692E-01 0.61209392E+03</pdfrwt>
<pdfrwt beam="2">  1       21 0.30480784E-01 0.61209392E+03</pdfrwt>
<totfact> 0.18699437E+04</totfact>
</mgrwt>
</event>
<event>
 6    0  0.1191266E-005  0.7730846E+03  0.7546771E-02  0.9599814E-01
         21   -1    0    0  502  501  0.00000000000E+00  0.00000000000E+00  0.41262634966E+03  0.41262634966E+03  0.00000000000E+00 0. -1.
         21   -1    0    0  501  502 -0.00000000000E+00 -0.00000000000E+00 -0.36210717317E+03  0.36210717317E+03  0.00000000000E+00 0. -1.
      99926    2    1    2    0    0  0.20796630576E+03 -0.20823235868E+02 -0.57394129761E+02  0.50831959442E+03  0.45979466336E+03 0.  0.
         25    1    3    3    0    0 -0.95762135442E+02 -0.31826247525E+02 -0.78724932971E+02  0.17896485629E+03  0.12509000000E+03 0.  0.
         25    1    1    2    0    0 -0.20796630576E+03  0.20823235868E+02  0.10791330626E+03  0.26641392841E+03  0.12509000000E+03 0.  0.
         25    1    3    3    0    0  0.30372844120E+03  0.11003011657E+02  0.21330803210E+02  0.32935473813E+03  0.12509000000E+03 0.  0.
<mgrwt>
<rscale>  2 0.77308463E+03</rscale>
<asrwt>0</asrwt>
<pdfrwt beam="1">  1       21 0.60680346E-01 0.77308463E+03</pdfrwt>
<pdfrwt beam="2">  1       21 0.53251054E-01 0.77308463E+03</pdfrwt>
<totfact> 0.69605065E+03</totfact>
</mgrwt>
</event>
<event>
 6    0  0.1191266E-005  0.5995111E+03  0.7546771E-02  0.9906421E-01
         21   -1    0    0  502  501  0.00000000000E+00  0.00000000000E+00  0.11488431544E+04  0.11488431544E+04  0.00000000000E+00 0. -1.
         21   -1    0    0  501  502 -0.00000000000E+00 -0.00000000000E+00 -0.78212057967E+02  0.78212057967E+02  0.00000000000E+00 0. -1.
      99926    2    1    2    0    0 -0.23581001779E+01  0.54923129626E+02  0.66733115711E+03  0.80123781024E+03  0.44003300387E+03 0.  0.
         25    1    1    2    0    0  0.23581001779E+01 -0.54923129626E+02  0.40329993933E+03  0.42581740214E+03  0.12509000000E+03 0.  0.
         25    1    3    3    0    0 -0.15946001976E+03  0.11180629472E+03  0.30216127320E+03  0.38062723045E+03  0.12509000000E+03 0.  0.
         25    1    3    3    0    0  0.15710191958E+03 -0.56883165091E+02  0.36516988391E+03  0.42061057978E+03  0.12509000000E+03 0.  0.
<mgrwt>
<rscale>  2 0.59951109E+03</rscale>
<asrwt>0</asrwt>
<pdfrwt beam="1">  1       21 0.16894751E+00 0.59951109E+03</pdfrwt>
<pdfrwt beam="2">  1       21 0.11501774E-01 0.59951109E+03</pdfrwt>
<totfact> 0.11617146E+04</totfact>
</mgrwt>
</event>
<event>
 6    0  0.1191266E-005  0.5952048E+03  0.7546771E-02  0.9915405E-01
         21   -1    0    0  502  501  0.00000000000E+00  0.00000000000E+00  0.78722847720E+03  0.78722847720E+03  0.00000000000E+00 0. -1.
         21   -1    0    0  501  502 -0.00000000000E+00 -0.00000000000E+00 -0.11250504848E+03  0.11250504848E+03  0.00000000000E+00 0. -1.
      99926    2    1    2    0    0  0.31098387852E+02 -0.28592491926E+02  0.58758021224E+03  0.74153716478E+03  0.45038008461E+03 0.  0.
         25    1    1    2    0    0 -0.31098387852E+02  0.28592491926E+02  0.87143216485E+02  0.15819636090E+03  0.12509000000E+03 0.  0.
         25    1    3    3    0    0 -0.12391290390E+03 -0.12321878217E+03  0.39075157562E+03  0.44595019675E+03  0.12509000000E+03 0.  0.
         25    1    3    3    0    0  0.15501129175E+03  0.94626290247E+02  0.19682863662E+03  0.29558696803E+03  0.12509000000E+03 0.  0.
<mgrwt>
<rscale>  2 0.59520476E+03</rscale>
<asrwt>0</asrwt>
<pdfrwt beam="1">  1       21 0.11576889E+00 0.59520476E+03</pdfrwt>
<pdfrwt beam="2">  1       21 0.16544861E-01 0.59520476E+03</pdfrwt>
<totfact> 0.16373170E+04</totfact>
</mgrwt>
</event>
<event>
 6    0  0.1191266E-005  0.6395090E+03  0.7546771E-02  0.9826666E-01
         21   -1    0    0  502  501  0.00000000000E+00  0.00000000000E+00  0.25202277547E+03  0.25202277547E+03  0.00000000000E+00 0.  1.
         21   -1    0    0  501  502 -0.00000000000E+00 -0.00000000000E+00 -0.40568929305E+03  0.40568929305E+03  0.00000000000E+00 0.  1.
      99926    2    1    2    0    0 -0.46198339808E+02 -0.11005238179E+03 -0.12679035055E+03  0.48273878544E+03  0.45023896837E+03 0.  0.
         25    1    3    3    0    0  0.15228596596E+03 -0.75316541745E+02  0.57324439601E+01  0.21105441455E+03  0.12509000000E+03 0.  0.
         25    1    3    3    0    0 -0.19848430577E+03 -0.34735840050E+02 -0.13252279451E+03  0.27168437089E+03  0.12509000000E+03 0.  0.
         25    1    1    2    0    0  0.46198339808E+02  0.11005238179E+03 -0.26876167024E+02  0.17497328309E+03  0.12509000000E+03 0.  0.
<mgrwt>
<rscale>  2 0.63950900E+03</rscale>
<asrwt>0</asrwt>
<pdfrwt beam="1">  1       21 0.37062173E-01 0.63950900E+03</pdfrwt>
<pdfrwt beam="2">  1       21 0.59660190E-01 0.63950900E+03</pdfrwt>
<totfact> 0.15911954E+04</totfact>
</mgrwt>
</event>
<event>
 6    0  0.1191266E-005  0.6435791E+03  0.7546771E-02  0.9818903E-01
         21   -1    0    0  502  501  0.00000000000E+00  0.00000000000E+00  0.78792772935E+02  0.78792772935E+02  0.00000000000E+00 0. -1.
         21   -1    0    0  501  502 -0.00000000000E+00 -0.00000000000E+00 -0.13141881371E+04  0.13141881371E+04  0.00000000000E+00 0. -1.
      99926    2    1    2    0    0 -0.10214093290E+03  0.99693923142E+01 -0.10848459859E+04  0.11719723528E+04  0.43138871534E+03 0.  0.
         25    1    3    3    0    0 -0.55497028613E+02  0.17618268578E+02 -0.10086931329E+04  0.10180862773E+04  0.12509000000E+03 0.  0.
         25    1    1    2    0    0  0.10214093290E+03 -0.99693923142E+01 -0.15054937825E+03  0.22100855718E+03  0.12509000000E+03 0.  0.
         25    1    3    3    0    0 -0.46643904291E+02 -0.76488762643E+01 -0.76152852955E+02  0.15388607549E+03  0.12509000000E+03 0.  0.
<mgrwt>
<rscale>  2 0.64357914E+03</rscale>
<asrwt>0</asrwt>
<pdfrwt beam="1">  1       21 0.11587173E-01 0.64357914E+03</pdfrwt>
<pdfrwt beam="2">  1       21 0.19326296E+00 0.64357914E+03</pdfrwt>
<totfact> 0.76135198E+03</totfact>
</mgrwt>
</event>
<event>
 6    0  0.1191266E-005  0.5948266E+03  0.7546771E-02  0.9916198E-01
         21   -1    0    0  502  501  0.00000000000E+00  0.00000000000E+00  0.21914380730E+03  0.21914380730E+03  0.00000000000E+00 0. -1.
         21   -1    0    0  501  502 -0.00000000000E+00 -0.00000000000E+00 -0.40363754062E+03  0.40363754062E+03  0.00000000000E+00 0. -1.
      99926    2    1    2    0    0 -0.95761994268E+01 -0.56417586767E+02 -0.13442757792E+03  0.47639563924E+03  0.45343950389E+03 0.  0.
         25    1    3    3    0    0  0.45743979307E+02  0.20332274253E+02 -0.24835307160E+03  0.28254675594E+03  0.12509000000E+03 0.  0.
         25    1    3    3    0    0 -0.55320178734E+02 -0.76749861020E+02  0.11392549369E+03  0.19384888329E+03  0.12509000000E+03 0.  0.
         25    1    1    2    0    0  0.95761994268E+01  0.56417586767E+02 -0.50066155397E+02  0.14638570869E+03  0.12509000000E+03 0.  0.
<mgrwt>
<rscale>  2 0.59482659E+03</rscale>
<asrwt>0</asrwt>
<pdfrwt beam="1">  1       21 0.32227031E-01 0.59482659E+03</pdfrwt>
<pdfrwt beam="2">  1       21 0.59358461E-01 0.59482659E+03</pdfrwt>
<totfact> 0.21563177E+04</totfact>
</mgrwt>
</event>
<event>
 6    0  0.1191266E-005  0.7133743E+03  0.7546771E-02  0.9694630E-01
         21   -1    0    0  502  501  0.00000000000E+00  0.00000000000E+00  0.19918856188E+04  0.19918856188E+04  0.00000000000E+00 0.  1.
         21   -1    0    0  501  502 -0.00000000000E+00 -0.00000000000E+00 -0.63872007882E+02  0.63872007882E+02  0.00000000000E+00 0.  1.
      99926    2    1    2    0    0 -0.10504658037E+03 -0.14653510919E+03  0.14403877337E+04  0.15210298207E+04  0.45421093091E+03 0.  0.
         25    1    1    2    0    0  0.10504658037E+03  0.14653510919E+03  0.48762587723E+03  0.53472780600E+03  0.12509000000E+03 0.  0.
         25    1    3    3    0    0 -0.21261498492E+03  0.11942165690E+02  0.92010975461E+03  0.95267896784E+03  0.12509000000E+03 0.  0.
         25    1    3    3    0    0  0.10756840455E+03 -0.15847727488E+03  0.52027797913E+03  0.56835085288E+03  0.12509000000E+03 0.  0.
<mgrwt>
<rscale>  2 0.71337433E+03</rscale>
<asrwt>0</asrwt>
<pdfrwt beam="1">  1       21 0.29292432E+00 0.71337433E+03</pdfrwt>
<pdfrwt beam="2">  1       21 0.93929436E-02 0.71337433E+03</pdfrwt>
<totfact> 0.25375878E+03</totfact>
</mgrwt>
</event>
<event>
 6    0  0.1191266E-005  0.7935803E+03  0.7546771E-02  0.9569356E-01
         21   -1    0    0  502  501  0.00000000000E+00  0.00000000000E+00  0.25705513194E+03  0.25705513194E+03  0.00000000000E+00 0.  1.
         21   -1    0    0  501  502 -0.00000000000E+00 -0.00000000000E+00 -0.61248511695E+03  0.61248511695E+03  0.00000000000E+00 0.  1.
      99926    2    1    2    0    0  0.84828740726E+02  0.15104304112E+03 -0.39420275925E+02  0.48806998810E+03  0.45458600903E+03 0.  0.
         25    1    3    3    0    0 -0.14673816073E+03  0.27361457226E+02 -0.11348301551E+01  0.19475505923E+03  0.12509000000E+03 0.  0.
         25    1    1    2    0    0 -0.84828740726E+02 -0.15104304112E+03 -0.31600970909E+03  0.38147026078E+03  0.12509000000E+03 0.  0.
         25    1    3    3    0    0  0.23156690145E+03  0.12368158389E+03 -0.38285445770E+02  0.29331492887E+03  0.12509000000E+03 0.  0.
<mgrwt>
<rscale>  2 0.79358035E+03</rscale>
<asrwt>0</asrwt>
<pdfrwt beam="1">  1       21 0.37802226E-01 0.79358035E+03</pdfrwt>
<pdfrwt beam="2">  1       21 0.90071339E-01 0.79358035E+03</pdfrwt>
<totfact> 0.57641449E+03</totfact>
</mgrwt>
</event>
<event>
 6    0  0.1191266E-005  0.6466135E+03  0.7546771E-02  0.9813155E-01
         21   -1    0    0  502  501  0.00000000000E+00  0.00000000000E+00  0.17521368416E+03  0.17521368416E+03  0.00000000000E+00 0.  1.
         21   -1    0    0  501  502 -0.00000000000E+00 -0.00000000000E+00 -0.59657015133E+03  0.59657015133E+03  0.00000000000E+00 0.  1.
      99926    2    1    2    0    0  0.84650137544E+02  0.11351209972E+02 -0.40840141532E+03  0.61976463531E+03  0.45828156345E+03 0.  0.
         25    1    1    2    0    0 -0.84650137544E+02 -0.11351209972E+02 -0.12955051854E+02  0.15201920018E+03  0.12509000000E+03 0.  0.
         25    1    3    3    0    0  0.79219400734E+02 -0.17279455814E+03 -0.28659149793E+03  0.36594517016E+03  0.12509000000E+03 0.  0.
         25    1    3    3    0    0  0.54307368096E+01  0.18414576812E+03 -0.12180991739E+03  0.25381946515E+03  0.12509000000E+03 0.  0.
<mgrwt>
<rscale>  2 0.64661350E+03</rscale>
<asrwt>0</asrwt>
<pdfrwt beam="1">  1       21 0.25766718E-01 0.64661350E+03</pdfrwt>
<pdfrwt beam="2">  1       21 0.87730905E-01 0.64661350E+03</pdfrwt>
<totfact> 0.13656365E+04</totfact>
</mgrwt>
</event>
<event>
 6    0  0.1191266E-005  0.8136654E+03  0.7546771E-02  0.9540445E-01
         21   -1    0    0  502  501  0.00000000000E+00  0.00000000000E+00  0.19233854908E+03  0.19233854908E+03  0.00000000000E+00 0.  1.
         21   -1    0    0  501  502 -0.00000000000E+00 -0.00000000000E+00 -0.86052882716E+03  0.86052882716E+03  0.00000000000E+00 0.  1.
      99926    2    1    2    0    0  0.26668387109E+03 -0.47042098848E+02 -0.46798385040E+03  0.69361347167E+03  0.43446233172E+03 0.  0.
         25    1    1    2    0    0 -0.26668387109E+03  0.47042098848E+02 -0.20020642768E+03  0.35925390457E+03  0.12509000000E+03 0.  0.
         25    1    3    3    0    0  0.10845934886E+02 -0.12532086073E+03 -0.31373256558E+03  0.36041446037E+03  0.12509000000E+03 0.  0.
         25    1    3    3    0    0  0.25583793620E+03  0.78278761883E+02 -0.15425128482E+03  0.33319901130E+03  0.12509000000E+03 0.  0.
<mgrwt>
<rscale>  2 0.81366545E+03</rscale>
<asrwt>0</asrwt>
<pdfrwt beam="1">  1       21 0.28285081E-01 0.81366545E+03</pdfrwt>
<pdfrwt beam="2">  1       21 0.12654836E+00 0.81366545E+03</pdfrwt>
<totfact> 0.44149217E+03</totfact>
</mgrwt>
</event>
<event>
 6    0  0.1191266E-005  0.7603080E+03  0.7546771E-02  0.9619316E-01
         21   -1    0    0  502  501  0.00000000000E+00  0.00000000000E+00  0.37996680064E+03  0.37996680064E+03  0.00000000000E+00 0. -1.
         21   -1    0    0  501  502 -0.00000000000E+00 -0.00000000000E+00 -0.38034132541E+03  0.38034132541E+03  0.00000000000E+00 0. -1.
      99926    2    1    2    0    0  0.66540388710E+02 -0.55863396641E+02  0.22308406867E+03  0.48988328715E+03  0.42740003617E+03 0.  0.
         25    1    3    3    0    0 -0.22966695956E+02  0.12515180582E+03  0.24178871769E+02  0.18006268231E+03  0.12509000000E+03 0.  0.
         25    1    3    3    0    0  0.89507084666E+02 -0.18101520246E+03  0.19890519690E+03  0.30982060483E+03  0.12509000000E+03 0.  0.
         25    1    1    2    0    0 -0.66540388710E+02  0.55863396641E+02 -0.22345859344E+03  0.27042483890E+03  0.12509000000E+03 0.  0.
<mgrwt>
<rscale>  2 0.76030803E+03</rscale>
<asrwt>0</asrwt>
<pdfrwt beam="1">  1       21 0.55877471E-01 0.76030803E+03</pdfrwt>
<pdfrwt beam="2">  1       21 0.55932548E-01 0.76030803E+03</pdfrwt>
<totfact> 0.75173288E+03</totfact>
</mgrwt>
</event>
<event>
 6    0  0.1191266E-005  0.6303189E+03  0.7546771E-02  0.9844427E-01
         21   -1    0    0  502  501  0.00000000000E+00  0.00000000000E+00  0.47916701853E+03  0.47916701853E+03  0.00000000000E+00 0.  1.
         21   -1    0    0  501  502 -0.00000000000E+00 -0.00000000000E+00 -0.20728778122E+03  0.20728778122E+03  0.00000000000E+00 0.  1.
      99926    2    1    2    0    0 -0.11012366024E+03  0.11631198277E+02  0.20381172023E+03  0.50605745969E+03  0.44976930741E+03 0.  0.
         25    1    3    3    0    0 -0.74730144231E+02 -0.16103940127E+03  0.19153600032E+03  0.28957180584E+03  0.12509000000E+03 0.  0.
         25    1    3    3    0    0 -0.35393516011E+02  0.17267059955E+03  0.12275719913E+02  0.21648565385E+03  0.12509000000E+03 0.  0.
         25    1    1    2    0    0  0.11012366024E+03 -0.11631198277E+02  0.68067517088E+02  0.18039734006E+03  0.12509000000E+03 0.  0.
<mgrwt>
<rscale>  2 0.63031887E+03</rscale>
<asrwt>0</asrwt>
<pdfrwt beam="1">  1       21 0.70465738E-01 0.63031887E+03</pdfrwt>
<pdfrwt beam="2">  1       21 0.30483497E-01 0.63031887E+03</pdfrwt>
<totfact> 0.16321688E+04</totfact>
</mgrwt>
</event>
<event>
 6    0  0.1191266E-005  0.1014071E+04  0.7546771E-02  0.9293245E-01
         21   -1    0    0  502  501  0.00000000000E+00  0.00000000000E+00  0.26304389103E+03  0.26304389103E+03  0.00000000000E+00 0.  1.
         21   -1    0    0  501  502 -0.00000000000E+00 -0.00000000000E+00 -0.97734592662E+03  0.97734592662E+03  0.00000000000E+00 0. -1.
      99926    2    1    2    0    0 -0.38425212182E+03 -0.36746903887E+02 -0.54178431864E+03  0.79947043858E+03  0.44342158965E+03 0.  0.
         25    1    1    2    0    0  0.38425212182E+03  0.36746903887E+02 -0.17251771695E+03  0.44091937906E+03  0.12509000000E+03 0.  0.
         25    1    3    3    0    0 -0.28578196311E+03  0.97028411512E+02 -0.15783880429E+03  0.36283114436E+03  0.12509000000E+03 0.  0.
         25    1    3    3    0    0 -0.98470158716E+02 -0.13377531540E+03 -0.38394551435E+03  0.43663929422E+03  0.12509000000E+03 0.  0.
<mgrwt>
<rscale>  2 0.10140708E+04</rscale>
<asrwt>0</asrwt>
<pdfrwt beam="1">  1       21 0.38682925E-01 0.10140708E+04</pdfrwt>
<pdfrwt beam="2">  1       21 0.14372734E+00 0.10140708E+04</pdfrwt>
<totfact> 0.16002567E+03</totfact>
</mgrwt>
</event>
<event>
 6    0  0.1191266E-005  0.7079587E+03  0.7546771E-02  0.9703718E-01
         21   -1    0    0  502  501  0.00000000000E+00  0.00000000000E+00  0.32795455317E+03  0.32795455317E+03  0.00000000000E+00 0.  1.
         21   -1    0    0  501  502 -0.00000000000E+00 -0.00000000000E+00 -0.38206930491E+03  0.38206930491E+03  0.00000000000E+00 0.  1.
      99926    2    1    2    0    0  0.76656239691E+01 -0.17550200745E+03 -0.11255460783E+03  0.48659055417E+03  0.43959312012E+03 0.  0.
         25    1    3    3    0    0  0.77891440482E+01 -0.19669598979E+03 -0.21978495431E+03  0.32047295893E+03  0.12509000000E+03 0.  0.
         25    1    3    3    0    0 -0.12352007914E+00  0.21193982336E+02  0.10723034648E+03  0.16611759525E+03  0.12509000000E+03 0.  0.
         25    1    1    2    0    0 -0.76656239691E+01  0.17550200745E+03  0.58439856094E+02  0.22343330390E+03  0.12509000000E+03 0.  0.
<mgrwt>
<rscale>  2 0.70795867E+03</rscale>
<asrwt>0</asrwt>
<pdfrwt beam="1">  1       21 0.48228611E-01 0.70795867E+03</pdfrwt>
<pdfrwt beam="2">  1       21 0.56186662E-01 0.70795867E+03</pdfrwt>
<totfact> 0.10327321E+04</totfact>
</mgrwt>
</event>
<event>
 6    0  0.1191266E-005  0.6281133E+03  0.7546771E-02  0.9848738E-01
         21   -1    0    0  502  501  0.00000000000E+00  0.00000000000E+00  0.88436757495E+02  0.88436757495E+02  0.00000000000E+00 0.  1.
         21   -1    0    0  501  502 -0.00000000000E+00 -0.00000000000E+00 -0.11152779640E+04  0.11152779640E+04  0.00000000000E+00 0.  1.
      99926    2    1    2    0    0  0.15976365931E+01 -0.63897371900E+02 -0.93972244100E+03  0.10384191862E+04  0.43720786084E+03 0.  0.
         25    1    1    2    0    0 -0.15976365931E+01  0.63897371900E+02 -0.87118765471E+02  0.16529553526E+03  0.12509000000E+03 0.  0.
         25    1    3    3    0    0 -0.48666328960E+02 -0.13379734033E+02 -0.86643749368E+03  0.87687448784E+03  0.12509000000E+03 0.  0.
         25    1    3    3    0    0  0.50263965553E+02 -0.50517637867E+02 -0.73284947319E+02  0.16154469837E+03  0.12509000000E+03 0.  0.
<mgrwt>
<rscale>  2 0.62811326E+03</rscale>
<asrwt>0</asrwt>
<pdfrwt beam="1">  1       21 0.13005406E-01 0.62811326E+03</pdfrwt>
<pdfrwt beam="2">  1       21 0.16401146E+00 0.62811326E+03</pdfrwt>
<totfact> 0.10023549E+04</totfact>
</mgrwt>
</event>
<event>
 6    0  0.1191266E-005  0.6735406E+03  0.7546771E-02  0.9763583E-01
         21   -1    0    0  502  501  0.00000000000E+00  0.00000000000E+00  0.40614455124E+03  0.40614455124E+03  0.00000000000E+00 0. -1.
         21   -1    0    0  501  502 -0.00000000000E+00 -0.00000000000E+00 -0.27924596849E+03  0.27924596849E+03  0.00000000000E+00 0. -1.
      99926    2    1    2    0    0  0.12039306278E+03  0.60379868423E+02  0.15989183911E+03  0.49863859566E+03  0.45269728384E+03 0.  0.
         25    1    1    2    0    0 -0.12039306278E+03 -0.60379868423E+02 -0.32993256353E+02  0.18675192406E+03  0.12509000000E+03 0.  0.
         25    1    3    3    0    0 -0.11030983156E+03  0.72978866161E+02  0.14971847711E+03  0.23570597008E+03  0.12509000000E+03 0.  0.
         25    1    3    3    0    0  0.23070289434E+03 -0.12598997738E+02  0.10173361994E+02  0.26293262558E+03  0.12509000000E+03 0.  0.
<mgrwt>
<rscale>  2 0.67354058E+03</rscale>
<asrwt>0</asrwt>
<pdfrwt beam="1">  1       21 0.59727140E-01 0.67354058E+03</pdfrwt>
<pdfrwt beam="2">  1       21 0.41065584E-01 0.67354058E+03</pdfrwt>
<totfact> 0.12756825E+04</totfact>
</mgrwt>
</event>
<event>
 6    0  0.1191266E-005  0.6495413E+03  0.7546771E-02  0.9807640E-01
         21   -1    0    0  502  501  0.00000000000E+00  0.00000000000E+00  0.73178090109E+03  0.73178090109E+03  0.00000000000E+00 0. -1.
         21   -1    0    0  501  502 -0.00000000000E+00 -0.00000000000E+00 -0.14413601108E+03  0.14413601108E+03  0.00000000000E+00 0. -1.
      99926    2    1    2    0    0  0.92990148480E+02  0.91458027757E+02  0.47287589006E+03  0.66183475503E+03  0.44429933267E+03 0.  0.
         25    1    3    3    0    0  0.75213934036E+02  0.20423069890E+03  0.13772830584E+03  0.28632832304E+03  0.12509000000E+03 0.  0.
         25    1    1    2    0    0 -0.92990148480E+02 -0.91458027757E+02  0.11476899995E+03  0.21408215714E+03  0.12509000000E+03 0.  0.
         25    1    3    3    0    0  0.17776214444E+02 -0.11277267114E+03  0.33514758423E+03  0.37550643199E+03  0.12509000000E+03 0.  0.
<mgrwt>
<rscale>  2 0.64954132E+03</rscale>
<asrwt>0</asrwt>
<pdfrwt beam="1">  1       21 0.10761484E+00 0.64954132E+03</pdfrwt>
<pdfrwt beam="2">  1       21 0.21196473E-01 0.64954132E+03</pdfrwt>
<totfact> 0.12135785E+04</totfact>
</mgrwt>
</event>
<event>
 6    0  0.1191266E-005  0.6547921E+03  0.7546771E-02  0.9797828E-01
         21   -1    0    0  502  501  0.00000000000E+00  0.00000000000E+00  0.12369721771E+04  0.12369721771E+04  0.00000000000E+00 0. -1.
         21   -1    0    0  501  502 -0.00000000000E+00 -0.00000000000E+00 -0.86653672913E+02  0.86653672913E+02  0.00000000000E+00 0. -1.
      99926    2    1    2    0    0 -0.86115678691E+02  0.11444174589E+02  0.10653377733E+04  0.11492236941E+04  0.42216542816E+03 0.  0.
         25    1    3    3    0    0  0.86638440412E+02  0.11726459652E+03  0.51094055184E+03  0.54586166798E+03  0.12509000000E+03 0.  0.
         25    1    1    2    0    0  0.86115678691E+02 -0.11444174589E+02  0.84980730898E+02  0.17440215587E+03  0.12509000000E+03 0.  0.
         25    1    3    3    0    0 -0.17275411910E+03 -0.10582042193E+03  0.55439722145E+03  0.60336202617E+03  0.12509000000E+03 0.  0.
<mgrwt>
<rscale>  2 0.65479213E+03</rscale>
<asrwt>0</asrwt>
<pdfrwt beam="1">  1       21 0.18190766E+00 0.65479213E+03</pdfrwt>
<pdfrwt beam="2">  1       21 0.12743188E-01 0.65479213E+03</pdfrwt>
<totfact> 0.76537298E+03</totfact>
</mgrwt>
</event>
<event>
 6    0  0.1191266E-005  0.7251262E+03  0.7546771E-02  0.9675202E-01
         21   -1    0    0  502  501  0.00000000000E+00  0.00000000000E+00  0.53125331685E+03  0.53125331685E+03  0.00000000000E+00 0.  1.
         21   -1    0    0  501  502 -0.00000000000E+00 -0.00000000000E+00 -0.24743753798E+03  0.24743753798E+03  0.00000000000E+00 0.  1.
      99926    2    1    2    0    0 -0.16664482782E+03  0.37632807566E+02  0.92410732173E+02  0.49326113169E+03  0.45340938871E+03 0.  0.
         25    1    1    2    0    0  0.16664482782E+03 -0.37632807566E+02  0.19140504670E+03  0.28542972314E+03  0.12509000000E+03 0.  0.
         25    1    3    3    0    0  0.12991908960E+02  0.53604153574E+02  0.20514210147E+03  0.24652177363E+03  0.12509000000E+03 0.  0.
         25    1    3    3    0    0 -0.17963673678E+03 -0.15971346009E+02 -0.11273136929E+03  0.24673935806E+03  0.12509000000E+03 0.  0.
<mgrwt>
<rscale>  2 0.72512623E+03</rscale>
<asrwt>0</asrwt>
<pdfrwt beam="1">  1       21 0.78125488E-01 0.72512623E+03</pdfrwt>
<pdfrwt beam="2">  1       21 0.36387873E-01 0.72512623E+03</pdfrwt>
<totfact> 0.88336354E+03</totfact>
</mgrwt>
</event>
<event>
 6    0  0.1191266E-005  0.8435726E+03  0.7546771E-02  0.9499004E-01
         21   -1    0    0  502  501  0.00000000000E+00  0.00000000000E+00  0.10956521926E+03  0.10956521926E+03  0.00000000000E+00 0. -1.
         21   -1    0    0  501  502 -0.00000000000E+00 -0.00000000000E+00 -0.16237239845E+04  0.16237239845E+04  0.00000000000E+00 0. -1.
      99926    2    1    2    0    0  0.82951060043E+02  0.15218929243E+03 -0.48196875819E+03  0.67919899042E+03  0.44606605523E+03 0.  0.
         25    1    3    3    0    0 -0.78338551633E+02  0.17291328329E+03 -0.10587250211E+03  0.25078362588E+03  0.12509000000E+03 0.  0.
         25    1    1    2    0    0 -0.82951060043E+02 -0.15218929243E+03 -0.10321900070E+04  0.10540902133E+04  0.12509000000E+03 0.  0.
         25    1    3    3    0    0  0.16128961168E+03 -0.20723990857E+02 -0.37609625609E+03  0.42841536454E+03  0.12509000000E+03 0.  0.
<mgrwt>
<rscale>  2 0.84357258E+03</rscale>
<asrwt>0</asrwt>
<pdfrwt beam="1">  1       21 0.16112534E-01 0.84357258E+03</pdfrwt>
<pdfrwt beam="2">  1       21 0.23878292E+00 0.84357258E+03</pdfrwt>
<totfact> 0.19695213E+03</totfact>
</mgrwt>
</event>
<event>
 6    0  0.1191266E-005  0.6697011E+03  0.7546771E-02  0.9770498E-01
         21   -1    0    0  502  501  0.00000000000E+00  0.00000000000E+00  0.15936121313E+03  0.15936121313E+03  0.00000000000E+00 0. -1.
         21   -1    0    0  501  502 -0.00000000000E+00 -0.00000000000E+00 -0.70358960475E+03  0.70358960475E+03  0.00000000000E+00 0. -1.
      99926    2    1    2    0    0  0.61122846024E+02  0.12976480773E+03 -0.35773401057E+03  0.59648774370E+03  0.45524619542E+03 0.  0.
         25    1    3    3    0    0  0.21867824835E+03  0.10488035509E+03 -0.18009481344E+03  0.32695827733E+03  0.12509000000E+03 0.  0.
         25    1    1    2    0    0 -0.61122846024E+02 -0.12976480773E+03 -0.18649438105E+03  0.26646307417E+03  0.12509000000E+03 0.  0.
         25    1    3    3    0    0 -0.15755540233E+03  0.24884452640E+02 -0.17763919712E+03  0.26952946637E+03  0.12509000000E+03 0.  0.
<mgrwt>
<rscale>  2 0.66970111E+03</rscale>
<asrwt>0</asrwt>
<pdfrwt beam="1">  1       21 0.23435473E-01 0.66970111E+03</pdfrwt>
<pdfrwt beam="2">  1       21 0.10346906E+00 0.66970111E+03</pdfrwt>
<totfact> 0.10971471E+04</totfact>
</mgrwt>
</event>
<event>
 6    0  0.1191266E-005  0.5872814E+03  0.7546771E-02  0.9932150E-01
         21   -1    0    0  502  501  0.00000000000E+00  0.00000000000E+00  0.69617215399E+03  0.69617215399E+03  0.00000000000E+00 0.  1.
         21   -1    0    0  501  502 -0.00000000000E+00 -0.00000000000E+00 -0.12385564144E+03  0.12385564144E+03  0.00000000000E+00 0.  1.
      99926    2    1    2    0    0 -0.80380455224E+01  0.46168197392E+02  0.40025679817E+03  0.60220179598E+03  0.44748786126E+03 0.  0.
         25    1    3    3    0    0  0.49867226330E+01  0.19721511971E+03  0.12786290277E+03  0.26629889382E+03  0.12509000000E+03 0.  0.
         25    1    1    2    0    0  0.80380455224E+01 -0.46168197392E+02  0.17205971437E+03  0.21782599945E+03  0.12509000000E+03 0.  0.
         25    1    3    3    0    0 -0.13024768155E+02 -0.15104692232E+03  0.27239389541E+03  0.33590290216E+03  0.12509000000E+03 0.  0.
<mgrwt>
<rscale>  2 0.58728136E+03</rscale>
<asrwt>0</asrwt>
<pdfrwt beam="1">  1       21 0.10237826E+00 0.58728136E+03</pdfrwt>
<pdfrwt beam="2">  1       21 0.18214065E-01 0.58728136E+03</pdfrwt>
<totfact> 0.18588580E+04</totfact>
</mgrwt>
</event>
<event>
 6    0  0.1191266E-005  0.6411193E+03  0.7546771E-02  0.9823587E-01
         21   -1    0    0  502  501  0.00000000000E+00  0.00000000000E+00  0.51604569768E+03  0.51604569768E+03  0.00000000000E+00 0.  1.
         21   -1    0    0  501  502 -0.00000000000E+00 -0.00000000000E+00 -0.19912671308E+03  0.19912671308E+03  0.00000000000E+00 0.  1.
      99926    2    1    2    0    0 -0.84636381830E+02  0.62624722300E+02  0.28992876592E+03  0.54945834082E+03  0.45470936434E+03 0.  0.
         25    1    3    3    0    0 -0.17039804391E+03  0.19318231784E+02 -0.79332455619E+01  0.21241264542E+03  0.12509000000E+03 0.  0.
         25    1    1    2    0    0  0.84636381830E+02 -0.62624722300E+02  0.26990218683E+02  0.16571406994E+03  0.12509000000E+03 0.  0.
         25    1    3    3    0    0  0.85761662084E+02  0.43306490515E+02  0.29786201148E+03  0.33704569540E+03  0.12509000000E+03 0.  0.
<mgrwt>
<rscale>  2 0.64111928E+03</rscale>
<asrwt>0</asrwt>
<pdfrwt beam="1">  1       21 0.75889073E-01 0.64111928E+03</pdfrwt>
<pdfrwt beam="2">  1       21 0.29283340E-01 0.64111928E+03</pdfrwt>
<totfact> 0.14896314E+04</totfact>
</mgrwt>
</event>
<event>
 6    0  0.1191266E-005  0.1455261E+04  0.7546771E-02  0.8914761E-01
         21   -1    0    0  502  501  0.00000000000E+00  0.00000000000E+00  0.56491778279E+03  0.56491778279E+03  0.00000000000E+00 0.  1.
         21   -1    0    0  501  502 -0.00000000000E+00 -0.00000000000E+00 -0.93720968387E+03  0.93720968387E+03  0.00000000000E+00 0. -1.
      99926    2    1    2    0    0 -0.60809523423E+03  0.24043080250E+03 -0.25628569396E+03  0.82633775611E+03  0.43539056668E+03 0.  0.
         25    1    3    3    0    0 -0.14010471833E+03  0.37153234208E+02  0.74594252002E+02  0.20547872260E+03  0.12509000000E+03 0.  0.
         25    1    1    2    0    0  0.60809523423E+03 -0.24043080250E+03 -0.11600620712E+03  0.67578971055E+03  0.12509000000E+03 0.  0.
         25    1    3    3    0    0 -0.46799051590E+03  0.20327756829E+03 -0.33087994596E+03  0.62085903350E+03  0.12509000000E+03 0.  0.
<mgrwt>
<rscale>  2 0.14552614E+04</rscale>
<asrwt>0</asrwt>
<pdfrwt beam="1">  1       21 0.83076146E-01 0.14552614E+04</pdfrwt>
<pdfrwt beam="2">  1       21 0.13782495E+00 0.14552614E+04</pdfrwt>
<totfact> 0.30760095E+02</totfact>
</mgrwt>
</event>
<event>
 6    0  0.1191266E-005  0.6761511E+03  0.7546771E-02  0.9758909E-01
         21   -1    0    0  502  501  0.00000000000E+00  0.00000000000E+00  0.10428727356E+04  0.10428727356E+04  0.00000000000E+00 0. -1.
         21   -1    0    0  501  502 -0.00000000000E+00 -0.00000000000E+00 -0.10959636479E+03  0.10959636479E+03  0.00000000000E+00 0. -1.
      99926    2    1    2    0    0  0.70537164480E+01 -0.24238922142E+02  0.92427368518E+03  0.10245400704E+04  0.44131987315E+03 0.  0.
         25    1    3    3    0    0 -0.11531211978E+03  0.12021995108E+03  0.35351264594E+03  0.41032721155E+03  0.12509000000E+03 0.  0.
         25    1    3    3    0    0  0.12236583623E+03 -0.14445887322E+03  0.57076103925E+03  0.61421285883E+03  0.12509000000E+03 0.  0.
         25    1    1    2    0    0 -0.70537164480E+01  0.24238922142E+02  0.90026855867E+01  0.12792902997E+03  0.12509000000E+03 0.  0.
<mgrwt>
<rscale>  2 0.67615105E+03</rscale>
<asrwt>0</asrwt>
<pdfrwt beam="1">  1       21 0.15336363E+00 0.67615105E+03</pdfrwt>
<pdfrwt beam="2">  1       21 0.16117113E-01 0.67615105E+03</pdfrwt>
<totfact> 0.80299029E+03</totfact>
</mgrwt>
</event>
<event>
 6    0  0.1191266E-005  0.6980856E+03  0.7546771E-02  0.9720512E-01
         21   -1    0    0  502  501  0.00000000000E+00  0.00000000000E+00  0.14880329311E+03  0.14880329311E+03  0.00000000000E+00 0. -1.
         21   -1    0    0  501  502 -0.00000000000E+00 -0.00000000000E+00 -0.81873770805E+03  0.81873770805E+03  0.00000000000E+00 0. -1.
      99926    2    1    2    0    0  0.85250891359E+02 -0.10879362382E+01 -0.67239162876E+03  0.81613940248E+03  0.45464725202E+03 0.  0.
         25    1    3    3    0    0 -0.14770919536E+03  0.17921641649E+02 -0.33161630938E+03  0.38439052587E+03  0.12509000000E+03 0.  0.
         25    1    1    2    0    0 -0.85250891359E+02  0.10879362382E+01  0.24572138213E+01  0.15140159868E+03  0.12509000000E+03 0.  0.
         25    1    3    3    0    0  0.23296008671E+03 -0.19009577888E+02 -0.34077531938E+03  0.43174887661E+03  0.12509000000E+03 0.  0.
<mgrwt>
<rscale>  2 0.69808557E+03</rscale>
<asrwt>0</asrwt>
<pdfrwt beam="1">  1       21 0.21882837E-01 0.69808557E+03</pdfrwt>
<pdfrwt beam="2">  1       21 0.12040260E+00 0.69808557E+03</pdfrwt>
<totfact> 0.85080095E+03</totfact>
</mgrwt>
</event>
<event>
 6    0  0.1191266E-005  0.7003084E+03  0.7546771E-02  0.9716705E-01
         21   -1    0    0  502  501  0.00000000000E+00  0.00000000000E+00  0.32061980599E+03  0.32061980599E+03  0.00000000000E+00 0.  1.
         21   -1    0    0  501  502 -0.00000000000E+00 -0.00000000000E+00 -0.38240923344E+03  0.38240923344E+03  0.00000000000E+00 0.  1.
      99926    2    1    2    0    0  0.15687771317E+03  0.56376382952E+02 -0.53964688393E+01  0.48712029175E+03  0.45767689838E+03 0.  0.
         25    1    3    3    0    0  0.84752316537E+02  0.14956423423E+03 -0.15190279938E+03  0.26129367363E+03  0.12509000000E+03 0.  0.
         25    1    3    3    0    0  0.72125396630E+02 -0.93187851280E+02  0.14650633054E+03  0.22582661812E+03  0.12509000000E+03 0.  0.
         25    1    1    2    0    0 -0.15687771317E+03 -0.56376382952E+02 -0.56392958607E+02  0.21590874768E+03  0.12509000000E+03 0.  0.
<mgrwt>
<rscale>  2 0.70030843E+03</rscale>
<asrwt>0</asrwt>
<pdfrwt beam="1">  1       21 0.47149972E-01 0.70030843E+03</pdfrwt>
<pdfrwt beam="2">  1       21 0.56236652E-01 0.70030843E+03</pdfrwt>
<totfact> 0.10831637E+04</totfact>
</mgrwt>
</event>
<event>
 6    0  0.1191266E-005  0.6199412E+03  0.7546771E-02  0.9864877E-01
         21   -1    0    0  502  501  0.00000000000E+00  0.00000000000E+00  0.29623407817E+03  0.29623407817E+03  0.00000000000E+00 0. -1.
         21   -1    0    0  501  502 -0.00000000000E+00 -0.00000000000E+00 -0.32434404955E+03  0.32434404955E+03  0.00000000000E+00 0. -1.
      99926    2    1    2    0    0 -0.78601923236E+02  0.51674824927E+02 -0.42606266773E+02  0.46339606593E+03  0.45174336750E+03 0.  0.
         25    1    3    3    0    0  0.13233832636E+02  0.17267809397E+03 -0.12782184409E+03  0.24895539839E+03  0.12509000000E+03 0.  0.
         25    1    3    3    0    0 -0.91835755871E+02 -0.12100326904E+03  0.85215577316E+02  0.21444066754E+03  0.12509000000E+03 0.  0.
         25    1    1    2    0    0  0.78601923236E+02 -0.51674824927E+02  0.14496295399E+02  0.15718206179E+03  0.12509000000E+03 0.  0.
<mgrwt>
<rscale>  2 0.61994116E+03</rscale>
<asrwt>0</asrwt>
<pdfrwt beam="1">  1       21 0.43563835E-01 0.61994116E+03</pdfrwt>
<pdfrwt beam="2">  1       21 0.47697654E-01 0.61994116E+03</pdfrwt>
<totfact> 0.18534472E+04</totfact>
</mgrwt>
</event>
<event>
 6    0  0.1191266E-005  0.6850636E+03  0.7546771E-02  0.9743122E-01
         21   -1    0    0  502  501  0.00000000000E+00  0.00000000000E+00  0.14897355356E+04  0.14897355356E+04  0.00000000000E+00 0. -1.
         21   -1    0    0  501  502 -0.00000000000E+00 -0.00000000000E+00 -0.78757628261E+02  0.78757628261E+02  0.00000000000E+00 0. -1.
      99926    2    1    2    0    0 -0.10156190394E+02  0.13614880049E+03  0.81631802058E+03  0.94567093152E+03  0.45746995084E+03 0.  0.
         25    1    1    2    0    0  0.10156190394E+02 -0.13614880049E+03  0.59465988679E+03  0.62282223237E+03  0.12509000000E+03 0.  0.
         25    1    3    3    0    0 -0.51675318935E+02  0.25014600298E+03  0.37101876598E+03  0.46748881720E+03  0.12509000000E+03 0.  0.
         25    1    3    3    0    0  0.41519128541E+02 -0.11399720249E+03  0.44529925460E+03  0.47818211432E+03  0.12509000000E+03 0.  0.
<mgrwt>
<rscale>  2 0.68506361E+03</rscale>
<asrwt>0</asrwt>
<pdfrwt beam="1">  1       21 0.21907874E+00 0.68506361E+03</pdfrwt>
<pdfrwt beam="2">  1       21 0.11582005E-01 0.68506361E+03</pdfrwt>
<totfact> 0.50671173E+03</totfact>
</mgrwt>
</event>
<event>
 6    0  0.1191266E-005  0.7283460E+03  0.7546771E-02  0.9669948E-01
         21   -1    0    0  502  501  0.00000000000E+00  0.00000000000E+00  0.42097097077E+03  0.42097097077E+03  0.00000000000E+00 0.  1.
         21   -1    0    0  501  502 -0.00000000000E+00 -0.00000000000E+00 -0.31503826693E+03  0.31503826693E+03  0.00000000000E+00 0.  1.
      99926    2    1    2    0    0 -0.45030563063E+01 -0.14628921426E+02  0.29117419178E+03  0.51196415338E+03  0.42082134158E+03 0.  0.
         25    1    3    3    0    0 -0.19311655100E+02 -0.91659750399E+02 -0.29404568477E+02  0.15901756700E+03  0.12509000000E+03 0.  0.
         25    1    1    2    0    0  0.45030563063E+01  0.14628921426E+02 -0.18524148794E+03  0.22404508433E+03  0.12509000000E+03 0.  0.
         25    1    3    3    0    0  0.14808598793E+02  0.77030828973E+02  0.32057876026E+03  0.35294658638E+03  0.12509000000E+03 0.  0.
<mgrwt>
<rscale>  2 0.72834598E+03</rscale>
<asrwt>0</asrwt>
<pdfrwt beam="1">  1       21 0.61907496E-01 0.72834598E+03</pdfrwt>
<pdfrwt beam="2">  1       21 0.46329157E-01 0.72834598E+03</pdfrwt>
<totfact> 0.90493686E+03</totfact>
</mgrwt>
</event>
<event>
 6    0  0.1191266E-005  0.7760669E+03  0.7546771E-02  0.9595320E-01
         21   -1    0    0  502  501  0.00000000000E+00  0.00000000000E+00  0.58002789735E+03  0.58002789735E+03  0.00000000000E+00 0.  1.
         21   -1    0    0  501  502 -0.00000000000E+00 -0.00000000000E+00 -0.25959085886E+03  0.25959085886E+03  0.00000000000E+00 0.  1.
      99926    2    1    2    0    0 -0.12669984402E+03  0.15837368876E+03  0.32898069327E+03  0.60117467910E+03  0.46048628914E+03 0.  0.
         25    1    3    3    0    0 -0.13927711178E+03  0.14756013369E+03 -0.10908445644E+02  0.23861812422E+03  0.12509000000E+03 0.  0.
         25    1    1    2    0    0  0.12669984402E+03 -0.15837368876E+03 -0.85436547760E+01  0.23844407710E+03  0.12509000000E+03 0.  0.
         25    1    3    3    0    0  0.12577267759E+02  0.10813555073E+02  0.33988913891E+03  0.36255655488E+03  0.12509000000E+03 0.  0.
<mgrwt>
<rscale>  2 0.77606685E+03</rscale>
<asrwt>0</asrwt>
<pdfrwt beam="1">  1       21 0.85298220E-01 0.77606685E+03</pdfrwt>
<pdfrwt beam="2">  1       21 0.38175126E-01 0.77606685E+03</pdfrwt>
<totfact> 0.64522079E+03</totfact>
</mgrwt>
</event>
<event>
 6    0  0.1191266E-005  0.5923479E+03  0.7546771E-02  0.9921410E-01
         21   -1    0    0  502  501  0.00000000000E+00  0.00000000000E+00  0.47531138300E+03  0.47531138300E+03  0.00000000000E+00 0.  1.
         21   -1    0    0  501  502 -0.00000000000E+00 -0.00000000000E+00 -0.18455063093E+03  0.18455063093E+03  0.00000000000E+00 0.  1.
      99926    2    1    2    0    0  0.80875881981E+01  0.40480764570E+02  0.29906313837E+03  0.52787512405E+03  0.43302342254E+03 0.  0.
         25    1    3    3    0    0 -0.13062634874E+03  0.13404827749E+03  0.17254881433E+03  0.28364200167E+03  0.12509000000E+03 0.  0.
         25    1    3    3    0    0  0.13871393694E+03 -0.93567512925E+02  0.12651432404E+03  0.24423312237E+03  0.12509000000E+03 0.  0.
         25    1    1    2    0    0 -0.80875881981E+01 -0.40480764570E+02 -0.83023862968E+01  0.13198688988E+03  0.12509000000E+03 0.  0.
<mgrwt>
<rscale>  2 0.59234792E+03</rscale>
<asrwt>0</asrwt>
<pdfrwt beam="1">  1       21 0.69898732E-01 0.59234792E+03</pdfrwt>
<pdfrwt beam="2">  1       21 0.27139799E-01 0.59234792E+03</pdfrwt>
<totfact> 0.21100303E+04</totfact>
</mgrwt>
</event>
<event>
 6    0  0.1191266E-005  0.7281414E+03  0.7546771E-02  0.9670281E-01
         21   -1    0    0  502  501  0.00000000000E+00  0.00000000000E+00  0.30938636668E+03  0.30938636668E+03  0.00000000000E+00 0.  1.
         21   -1    0    0  501  502 -0.00000000000E+00 -0.00000000000E+00 -0.42842059538E+03  0.42842059538E+03  0.00000000000E+00 0.  1.
      99926    2    1    2    0    0  0.18357298642E+03  0.11022200975E+01 -0.54723110763E+01  0.48831934018E+03  0.45246610434E+03 0.  0.
         25    1    3    3    0    0  0.18682990993E+03  0.10980182374E+03  0.12280248261E+03  0.27872892490E+03  0.12509000000E+03 0.  0.
         25    1    1    2    0    0 -0.18357298642E+03 -0.11022200975E+01 -0.11356191763E+03  0.24948762188E+03  0.12509000000E+03 0.  0.
         25    1    3    3    0    0 -0.32569235083E+01 -0.10869960364E+03 -0.12827479369E+03  0.20959041528E+03  0.12509000000E+03 0.  0.
<mgrwt>
<rscale>  2 0.72814145E+03</rscale>
<asrwt>0</asrwt>
<pdfrwt beam="1">  1       21 0.45497995E-01 0.72814145E+03</pdfrwt>
<pdfrwt beam="2">  1       21 0.63003029E-01 0.72814145E+03</pdfrwt>
<totfact> 0.90433138E+03</totfact>
</mgrwt>
</event>
<event>
 6    0  0.1191266E-005  0.6486240E+03  0.7546771E-02  0.9809365E-01
         21   -1    0    0  502  501  0.00000000000E+00  0.00000000000E+00  0.41076600712E+03  0.41076600712E+03  0.00000000000E+00 0. -1.
         21   -1    0    0  501  502 -0.00000000000E+00 -0.00000000000E+00 -0.25605399518E+03  0.25605399518E+03  0.00000000000E+00 0. -1.
      99926    2    1    2    0    0  0.41978832054E+01 -0.87425795137E+02  0.21523220307E+03  0.50259121824E+03  0.44565921906E+03 0.  0.
         25    1    3    3    0    0 -0.16177288040E+03 -0.12915935265E+03  0.12417760002E+03  0.27188267260E+03  0.12509000000E+03 0.  0.
         25    1    3    3    0    0  0.16597076361E+03  0.41733557513E+02  0.91054603045E+02  0.23070854564E+03  0.12509000000E+03 0.  0.
         25    1    1    2    0    0 -0.41978832054E+01  0.87425795137E+02 -0.60520191124E+02  0.16422878406E+03  0.12509000000E+03 0.  0.
<mgrwt>
<rscale>  2 0.64862401E+03</rscale>
<asrwt>0</asrwt>
<pdfrwt beam="1">  1       21 0.60406766E-01 0.64862401E+03</pdfrwt>
<pdfrwt beam="2">  1       21 0.37654999E-01 0.64862401E+03</pdfrwt>
<totfact> 0.14958466E+04</totfact>
</mgrwt>
</event>
<event>
 6    0  0.1191266E-005  0.9128361E+03  0.7546771E-02  0.9409676E-01
         21   -1    0    0  502  501  0.00000000000E+00  0.00000000000E+00  0.97366282305E+03  0.97366282305E+03  0.00000000000E+00 0. -1.
         21   -1    0    0  501  502 -0.00000000000E+00 -0.00000000000E+00 -0.21395232091E+03  0.21395232091E+03  0.00000000000E+00 0. -1.
      99926    2    1    2    0    0  0.17800558951E+02  0.68373317703E+02  0.88350507120E+03  0.99797239061E+03  0.45866753877E+03 0.  0.
         25    1    1    2    0    0 -0.17800558951E+02 -0.68373317703E+02 -0.12379456905E+03  0.18964275335E+03  0.12509000000E+03 0.  0.
         25    1    3    3    0    0 -0.43607622014E+02  0.43288522638E+02  0.83761703487E+03  0.84913210168E+03  0.12509000000E+03 0.  0.
         25    1    3    3    0    0  0.61408180965E+02  0.25084795065E+02  0.45888036325E+02  0.14884028894E+03  0.12509000000E+03 0.  0.
<mgrwt>
<rscale>  2 0.91283607E+03</rscale>
<asrwt>0</asrwt>
<pdfrwt beam="1">  1       21 0.14318571E+00 0.91283607E+03</pdfrwt>
<pdfrwt beam="2">  1       21 0.31463577E-01 0.91283607E+03</pdfrwt>
<totfact> 0.25150336E+03</totfact>
</mgrwt>
</event>
<event>
 6    0  0.1191266E-005  0.6808748E+03  0.7546771E-02  0.9750510E-01
         21   -1    0    0  502  501  0.00000000000E+00  0.00000000000E+00  0.16343371523E+03  0.16343371523E+03  0.00000000000E+00 0. -1.
         21   -1    0    0  501  502 -0.00000000000E+00 -0.00000000000E+00 -0.70914151194E+03  0.70914151194E+03  0.00000000000E+00 0. -1.
      99926    2    1    2    0    0 -0.13430819980E+03  0.37646151417E+02 -0.46847446461E+03  0.66992177683E+03  0.45811672948E+03 0.  0.
         25    1    1    2    0    0  0.13430819980E+03 -0.37646151417E+02 -0.77233332098E+02  0.20265345034E+03  0.12509000000E+03 0.  0.
         25    1    3    3    0    0 -0.24728165422E+03 -0.59682141804E+02 -0.29628126657E+03  0.41004910875E+03  0.12509000000E+03 0.  0.
         25    1    3    3    0    0  0.11297345442E+03  0.97328293221E+02 -0.17219319804E+03  0.25987266808E+03  0.12509000000E+03 0.  0.
<mgrwt>
<rscale>  2 0.68087483E+03</rscale>
<asrwt>0</asrwt>
<pdfrwt beam="1">  1       21 0.24034370E-01 0.68087483E+03</pdfrwt>
<pdfrwt beam="2">  1       21 0.10428552E+00 0.68087483E+03</pdfrwt>
<totfact> 0.10220174E+04</totfact>
</mgrwt>
</event>
<event>
 6    0  0.1191266E-005  0.6177815E+03  0.7546771E-02  0.9869187E-01
         21   -1    0    0  502  501  0.00000000000E+00  0.00000000000E+00  0.18234281635E+03  0.18234281635E+03  0.00000000000E+00 0.  1.
         21   -1    0    0  501  502 -0.00000000000E+00 -0.00000000000E+00 -0.52326429949E+03  0.52326429949E+03  0.00000000000E+00 0.  1.
      99926    2    1    2    0    0 -0.21163810404E+02 -0.33488349853E+02 -0.14757647647E+03  0.47194244980E+03  0.44652153708E+03 0.  0.
         25    1    3    3    0    0 -0.59762609506E+02  0.15946632309E+03 -0.39587741713E+02  0.21497854565E+03  0.12509000000E+03 0.  0.
         25    1    3    3    0    0  0.38598799102E+02 -0.19295467295E+03 -0.10798873476E+03  0.25696390415E+03  0.12509000000E+03 0.  0.
         25    1    1    2    0    0  0.21163810404E+02  0.33488349853E+02 -0.19334500667E+03  0.23366466603E+03  0.12509000000E+03 0.  0.
<mgrwt>
<rscale>  2 0.61778147E+03</rscale>
<asrwt>0</asrwt>
<pdfrwt beam="1">  1       21 0.26815120E-01 0.61778147E+03</pdfrwt>
<pdfrwt beam="2">  1       21 0.76950631E-01 0.61778147E+03</pdfrwt>
<totfact> 0.17258392E+04</totfact>
</mgrwt>
</event>
<event>
 6    0  0.1191266E-005  0.9094957E+03  0.7546771E-02  0.9413789E-01
         21   -1    0    0  502  501  0.00000000000E+00  0.00000000000E+00  0.41293384447E+03  0.41293384447E+03  0.00000000000E+00 0.  1.
         21   -1    0    0  501  502 -0.00000000000E+00 -0.00000000000E+00 -0.50079601482E+03  0.50079601482E+03  0.00000000000E+00 0.  1.
      99926    2    1    2    0    0 -0.29855277089E+02 -0.10080463601E+03 -0.36610694143E+03  0.59105266310E+03  0.45194695018E+03 0.  0.
         25    1    3    3    0    0 -0.16729224949E+03 -0.16487079462E+03 -0.18832515845E+03  0.32601065790E+03  0.12509000000E+03 0.  0.
         25    1    1    2    0    0  0.29855277089E+02  0.10080463601E+03  0.27824477108E+03  0.32267719619E+03  0.12509000000E+03 0.  0.
         25    1    3    3    0    0  0.13743697240E+03  0.64066158611E+02 -0.17778178298E+03  0.26504200520E+03  0.12509000000E+03 0.  0.
<mgrwt>
<rscale>  2 0.90949574E+03</rscale>
<asrwt>0</asrwt>
<pdfrwt beam="1">  1       21 0.60725565E-01 0.90949574E+03</pdfrwt>
<pdfrwt beam="2">  1       21 0.73646473E-01 0.90949574E+03</pdfrwt>
<totfact> 0.32860803E+03</totfact>
</mgrwt>
</event>
<event>
 6    0  0.1191266E-005  0.6064616E+03  0.7546771E-02  0.9892090E-01
         21   -1    0    0  502  501  0.00000000000E+00  0.00000000000E+00  0.65112630071E+03  0.65112630071E+03  0.00000000000E+00 0.  1.
         21   -1    0    0  501  502 -0.00000000000E+00 -0.00000000000E+00 -0.14121517491E+03  0.14121517491E+03  0.00000000000E+00 0.  1.
      99926    2    1    2    0    0 -0.43555088987E+02 -0.72502111581E+02  0.25771926380E+03  0.49839956755E+03  0.41812594758E+03 0.  0.
         25    1    3    3    0    0 -0.76374446616E+02 -0.19278896519E+03  0.19518371058E+03  0.31103830981E+03  0.12509000000E+03 0.  0.
         25    1    3    3    0    0  0.32819357629E+02  0.12028685360E+03  0.62535553222E+02  0.18736125774E+03  0.12509000000E+03 0.  0.
         25    1    1    2    0    0  0.43555088987E+02  0.72502111581E+02  0.25219186200E+03  0.29394190807E+03  0.12509000000E+03 0.  0.
<mgrwt>
<rscale>  2 0.60646159E+03</rscale>
<asrwt>0</asrwt>
<pdfrwt beam="1">  1       21 0.95753867E-01 0.60646159E+03</pdfrwt>
<pdfrwt beam="2">  1       21 0.20766938E-01 0.60646159E+03</pdfrwt>
<totfact> 0.16971470E+04</totfact>
</mgrwt>
</event>
<event>
 6    0  0.1191266E-005  0.6470694E+03  0.7546771E-02  0.9812294E-01
         21   -1    0    0  502  501  0.00000000000E+00  0.00000000000E+00  0.41787720294E+03  0.41787720294E+03  0.00000000000E+00 0. -1.
         21   -1    0    0  501  502 -0.00000000000E+00 -0.00000000000E+00 -0.25049149866E+03  0.25049149866E+03  0.00000000000E+00 0. -1.
      99926    2    1    2    0    0  0.11497734238E+03  0.61258306745E+02  0.13631262146E+03  0.48510546476E+03  0.44696063782E+03 0.  0.
         25    1    3    3    0    0  0.21840802814E+03  0.13655639751E+03  0.75681493857E+02  0.29618391764E+03  0.12509000000E+03 0.  0.
         25    1    3    3    0    0 -0.10343068576E+03 -0.75298090765E+02  0.60631127602E+02  0.18892154712E+03  0.12509000000E+03 0.  0.
         25    1    1    2    0    0 -0.11497734238E+03 -0.61258306745E+02  0.31073082821E+02  0.18326323685E+03  0.12509000000E+03 0.  0.
<mgrwt>
<rscale>  2 0.64706935E+03</rscale>
<asrwt>0</asrwt>
<pdfrwt beam="1">  1       21 0.61452530E-01 0.64706935E+03</pdfrwt>
<pdfrwt beam="2">  1       21 0.36836985E-01 0.64706935E+03</pdfrwt>
<totfact> 0.15069586E+04</totfact>
</mgrwt>
</event>
<event>
 6    0  0.1191266E-005  0.6406961E+03  0.7546771E-02  0.9824396E-01
         21   -1    0    0  502  501  0.00000000000E+00  0.00000000000E+00  0.11619602078E+03  0.11619602078E+03  0.00000000000E+00 0. -1.
         21   -1    0    0  501  502 -0.00000000000E+00 -0.00000000000E+00 -0.88318761368E+03  0.88318761368E+03  0.00000000000E+00 0. -1.
      99926    2    1    2    0    0  0.16008302633E+02 -0.13570537593E+03 -0.60654184107E+03  0.75430437020E+03  0.42709467700E+03 0.  0.
         25    1    3    3    0    0 -0.55752173170E+02 -0.13516966440E+03 -0.80034473310E+02  0.20840385794E+03  0.12509000000E+03 0.  0.
         25    1    1    2    0    0 -0.16008302633E+02  0.13570537593E+03 -0.16044975183E+03  0.24507926426E+03  0.12509000000E+03 0.  0.
         25    1    3    3    0    0  0.71760475803E+02 -0.53571153140E+00 -0.52650736776E+03  0.54590051226E+03  0.12509000000E+03 0.  0.
<mgrwt>
<rscale>  2 0.64069614E+03</rscale>
<asrwt>0</asrwt>
<pdfrwt beam="1">  1       21 0.17087650E-01 0.64069614E+03</pdfrwt>
<pdfrwt beam="2">  1       21 0.12988053E+00 0.64069614E+03</pdfrwt>
<totfact> 0.11343049E+04</totfact>
</mgrwt>
</event>
<event>
 6    0  0.1191266E-005  0.5948437E+03  0.7546771E-02  0.9916162E-01
         21   -1    0    0  502  501  0.00000000000E+00  0.00000000000E+00  0.83262150658E+03  0.83262150658E+03  0.00000000000E+00 0. -1.
         21   -1    0    0  501  502 -0.00000000000E+00 -0.00000000000E+00 -0.10624244250E+03  0.10624244250E+03  0.00000000000E+00 0. -1.
      99926    2    1    2    0    0 -0.40815566739E+02 -0.77462850443E-01  0.48952591851E+03  0.66791591503E+03  0.45255952997E+03 0.  0.
         25    1    1    2    0    0  0.40815566739E+02  0.77462850443E-01  0.23685314556E+03  0.27094803404E+03  0.12509000000E+03 0.  0.
         25    1    3    3    0    0  0.12627133436E+03 -0.93613996078E+02  0.12200180129E+03  0.23503186542E+03  0.12509000000E+03 0.  0.
         25    1    3    3    0    0 -0.16708690110E+03  0.93536533228E+02  0.36752411722E+03  0.43288404961E+03  0.12509000000E+03 0.  0.
<mgrwt>
<rscale>  2 0.59484365E+03</rscale>
<asrwt>0</asrwt>
<pdfrwt beam="1">  1       21 0.12244434E+00 0.59484365E+03</pdfrwt>
<pdfrwt beam="2">  1       21 0.15623889E-01 0.59484365E+03</pdfrwt>
<totfact> 0.15799952E+04</totfact>
</mgrwt>
</event>
<event>
 6    0  0.1191266E-005  0.8181268E+03  0.7546771E-02  0.9534144E-01
         21   -1    0    0  502  501  0.00000000000E+00  0.00000000000E+00  0.68504676294E+03  0.68504676294E+03  0.00000000000E+00 0. -1.
         21   -1    0    0  501  502 -0.00000000000E+00 -0.00000000000E+00 -0.24426489461E+03  0.24426489461E+03  0.00000000000E+00 0.  1.
      99926    2    1    2    0    0 -0.10749433101E+03  0.20380213369E+03  0.13192979489E+03  0.52418519301E+03  0.45196715024E+03 0.  0.
         25    1    1    2    0    0  0.10749433101E+03 -0.20380213369E+03  0.30885207344E+03  0.40512646453E+03  0.12509000000E+03 0.  0.
         25    1    3    3    0    0 -0.13907124203E+03 -0.73484253688E+02  0.63865050389E+02  0.21087199591E+03  0.12509000000E+03 0.  0.
         25    1    3    3    0    0  0.31576911015E+02  0.27728638738E+03  0.68064744499E+02  0.31331319710E+03  0.12509000000E+03 0.  0.
<mgrwt>
<rscale>  2 0.81812682E+03</rscale>
<asrwt>0</asrwt>
<pdfrwt beam="1">  1       21 0.10074217E+00 0.81812682E+03</pdfrwt>
<pdfrwt beam="2">  1       21 0.35921308E-01 0.81812682E+03</pdfrwt>
<totfact> 0.48546403E+03</totfact>
</mgrwt>
</event>
<event>
 6    0  0.1191266E-005  0.5945299E+03  0.7546771E-02  0.9916820E-01
         21   -1    0    0  502  501  0.00000000000E+00  0.00000000000E+00  0.11604971015E+03  0.11604971015E+03  0.00000000000E+00 0. -1.
         21   -1    0    0  501  502 -0.00000000000E+00 -0.00000000000E+00 -0.76145349537E+03  0.76145349537E+03  0.00000000000E+00 0. -1.
      99926    2    1    2    0    0  0.41935046152E+02 -0.35094619512E+02 -0.47286930606E+03  0.65748994452E+03  0.45353882537E+03 0.  0.
         25    1    3    3    0    0  0.16824981112E+03  0.66702934080E+02 -0.36445973130E+03  0.42571784575E+03  0.12509000000E+03 0.  0.
         25    1    3    3    0    0 -0.12631476496E+03 -0.10179755359E+03 -0.10840957476E+03  0.23177209876E+03  0.12509000000E+03 0.  0.
         25    1    1    2    0    0 -0.41935046152E+02  0.35094619512E+02 -0.17253447917E+03  0.22001326100E+03  0.12509000000E+03 0.  0.
<mgrwt>
<rscale>  2 0.59452992E+03</rscale>
<asrwt>0</asrwt>
<pdfrwt beam="1">  1       21 0.17066134E-01 0.59452992E+03</pdfrwt>
<pdfrwt beam="2">  1       21 0.11197846E+00 0.59452992E+03</pdfrwt>
<totfact> 0.16795583E+04</totfact>
</mgrwt>
</event>
<event>
 6    0  0.1191266E-005  0.6914094E+03  0.7546771E-02  0.9732037E-01
         21   -1    0    0  502  501  0.00000000000E+00  0.00000000000E+00  0.12056922478E+04  0.12056922478E+04  0.00000000000E+00 0. -1.
         21   -1    0    0  501  502 -0.00000000000E+00 -0.00000000000E+00 -0.99122918126E+02  0.99122918126E+02  0.00000000000E+00 0. -1.
      99926    2    1    2    0    0 -0.25928776117E+02 -0.13165247810E+03  0.91221339568E+03  0.10375579610E+04  0.47580307556E+03 0.  0.
         25    1    3    3    0    0  0.15154587448E+03 -0.12350436226E+03  0.68465786477E+03  0.72292695306E+03  0.12509000000E+03 0.  0.
         25    1    3    3    0    0 -0.17747465060E+03 -0.81481158366E+01  0.22755553091E+03  0.31463100792E+03  0.12509000000E+03 0.  0.
         25    1    1    2    0    0  0.25928776117E+02  0.13165247810E+03  0.19435593402E+03  0.26725720497E+03  0.12509000000E+03 0.  0.
<mgrwt>
<rscale>  2 0.69140938E+03</rscale>
<asrwt>0</asrwt>
<pdfrwt beam="1">  1       21 0.17730767E+00 0.69140938E+03</pdfrwt>
<pdfrwt beam="2">  1       21 0.14576900E-01 0.69140938E+03</pdfrwt>
<totfact> 0.63797661E+03</totfact>
</mgrwt>
</event>
<event>
 6    0  0.1191266E-005  0.8866801E+03  0.7546771E-02  0.9442387E-01
         21   -1    0    0  502  501  0.00000000000E+00  0.00000000000E+00  0.14199951209E+03  0.14199951209E+03  0.00000000000E+00 0. -1.
         21   -1    0    0  501  502 -0.00000000000E+00 -0.00000000000E+00 -0.13841626327E+04  0.13841626327E+04  0.00000000000E+00 0. -1.
      99926    2    1    2    0    0  0.26452508194E+03  0.54259189248E+02 -0.10394934458E+04  0.11661064771E+04  0.45424675411E+03 0.  0.
         25    1    3    3    0    0  0.49925099526E+02  0.14918178748E+02 -0.82355315977E+03  0.83462709199E+03  0.12509000000E+03 0.  0.
         25    1    3    3    0    0  0.21459998241E+03  0.39341010501E+02 -0.21594028601E+03  0.33147938515E+03  0.12509000000E+03 0.  0.
         25    1    1    2    0    0 -0.26452508194E+03 -0.54259189248E+02 -0.20266967479E+03  0.36005566760E+03  0.12509000000E+03 0.  0.
<mgrwt>
<rscale>  2 0.88668014E+03</rscale>
<asrwt>0</asrwt>
<pdfrwt beam="1">  1       21 0.20882281E-01 0.88668014E+03</pdfrwt>
<pdfrwt beam="2">  1       21 0.20355333E+00 0.88668014E+03</pdfrwt>
<totfact> 0.20247653E+03</totfact>
</mgrwt>
</event>
<event>
 6    0  0.1191266E-005  0.7222880E+03  0.7546771E-02  0.9679858E-01
         21   -1    0    0  502  501  0.00000000000E+00  0.00000000000E+00  0.37018880392E+03  0.37018880392E+03  0.00000000000E+00 0.  1.
         21   -1    0    0  501  502 -0.00000000000E+00 -0.00000000000E+00 -0.35232022960E+03  0.35232022960E+03  0.00000000000E+00 0.  1.
      99926    2    1    2    0    0 -0.14872886559E+02 -0.11383696544E+03 -0.14445945996E+03  0.48760914788E+03  0.45134697082E+03 0.  0.
         25    1    3    3    0    0 -0.38352130031E+02  0.12646486909E+03 -0.50655161456E+01  0.18203685491E+03  0.12509000000E+03 0.  0.
         25    1    3    3    0    0  0.23479243472E+02 -0.24030183454E+03 -0.13939394382E+03  0.30557229297E+03  0.12509000000E+03 0.  0.
         25    1    1    2    0    0  0.14872886559E+02  0.11383696544E+03  0.16232803429E+03  0.23489988564E+03  0.12509000000E+03 0.  0.
<mgrwt>
<rscale>  2 0.72228804E+03</rscale>
<asrwt>0</asrwt>
<pdfrwt beam="1">  1       21 0.54439530E-01 0.72228804E+03</pdfrwt>
<pdfrwt beam="2">  1       21 0.51811799E-01 0.72228804E+03</pdfrwt>
<totfact> 0.94611173E+03</totfact>
</mgrwt>
</event>
<event>
 6    0  0.1191266E-005  0.7470734E+03  0.7546771E-02  0.9639953E-01
         21   -1    0    0  502  501  0.00000000000E+00  0.00000000000E+00  0.23141512121E+04  0.23141512121E+04  0.00000000000E+00 0.  1.
         21   -1    0    0  501  502 -0.00000000000E+00 -0.00000000000E+00 -0.60294096561E+02  0.60294096561E+02  0.00000000000E+00 0.  1.
      99926    2    1    2    0    0 -0.19999230141E+02  0.20876015620E+03  0.13113242962E+04  0.14007942440E+04  0.44572674620E+03 0.  0.
         25    1    1    2    0    0  0.19999230141E+02 -0.20876015620E+03  0.94253281937E+03  0.97365106466E+03  0.12509000000E+03 0.  0.
         25    1    3    3    0    0 -0.22395885780E+02  0.11924591917E+03  0.15180232989E+03  0.23111170545E+03  0.12509000000E+03 0.  0.
         25    1    3    3    0    0  0.23966556388E+01  0.89514237033E+02  0.11595219663E+04  0.11696825385E+04  0.12509000000E+03 0.  0.
<mgrwt>
<rscale>  2 0.74707337E+03</rscale>
<asrwt>0</asrwt>
<pdfrwt beam="1">  1       21 0.34031630E+00 0.74707337E+03</pdfrwt>
<pdfrwt beam="2">  1       21 0.88667805E-02 0.74707337E+03</pdfrwt>
<totfact> 0.14229557E+03</totfact>
</mgrwt>
</event>
<event>
 6    0  0.1191266E-005  0.6740979E+03  0.7546771E-02  0.9762583E-01
         21   -1    0    0  502  501  0.00000000000E+00  0.00000000000E+00  0.59489322249E+03  0.59489322249E+03  0.00000000000E+00 0.  1.
         21   -1    0    0  501  502 -0.00000000000E+00 -0.00000000000E+00 -0.19096200704E+03  0.19096200704E+03  0.00000000000E+00 0.  1.
      99926    2    1    2    0    0  0.91118424310E+02  0.10134250127E+03  0.36476633635E+03  0.59676724559E+03  0.45222095868E+03 0.  0.
         25    1    3    3    0    0 -0.12570061715E+03 -0.44194404467E+02  0.14129315677E+03  0.23100877643E+03  0.12509000000E+03 0.  0.
         25    1    3    3    0    0  0.21681904146E+03  0.14553690574E+03  0.22347317959E+03  0.36575846917E+03  0.12509000000E+03 0.  0.
         25    1    1    2    0    0 -0.91118424310E+02 -0.10134250127E+03  0.39164879097E+02  0.18908798393E+03  0.12509000000E+03 0.  0.
<mgrwt>
<rscale>  2 0.67409793E+03</rscale>
<asrwt>0</asrwt>
<pdfrwt beam="1">  1       21 0.87484297E-01 0.67409793E+03</pdfrwt>
<pdfrwt beam="2">  1       21 0.28082648E-01 0.67409793E+03</pdfrwt>
<totfact> 0.11536148E+04</totfact>
</mgrwt>
</event>
<event>
 6    0  0.1191266E-005  0.6380909E+03  0.7546771E-02  0.9829386E-01
         21   -1    0    0  502  501  0.00000000000E+00  0.00000000000E+00  0.38476706520E+03  0.38476706520E+03  0.00000000000E+00 0. -1.
         21   -1    0    0  501  502 -0.00000000000E+00 -0.00000000000E+00 -0.26454969059E+03  0.26454969059E+03  0.00000000000E+00 0. -1.
      99926    2    1    2    0    0 -0.67948547886E+02 -0.93255432356E+02  0.76806275121E+02  0.47368756550E+03  0.45295377798E+03 0.  0.
         25    1    1    2    0    0  0.67948547886E+02  0.93255432356E+02  0.43411099495E+02  0.17562919029E+03  0.12509000000E+03 0.  0.
         25    1    3    3    0    0  0.14445770562E+02  0.80304253834E+02 -0.10376431850E+03  0.18185707400E+03  0.12509000000E+03 0.  0.
         25    1    3    3    0    0 -0.82394318448E+02 -0.17355968619E+03  0.18057059362E+03  0.29183049149E+03  0.12509000000E+03 0.  0.
<mgrwt>
<rscale>  2 0.63809093E+03</rscale>
<asrwt>0</asrwt>
<pdfrwt beam="1">  1       21 0.56583392E-01 0.63809093E+03</pdfrwt>
<pdfrwt beam="2">  1       21 0.38904366E-01 0.63809093E+03</pdfrwt>
<totfact> 0.16179180E+04</totfact>
</mgrwt>
</event>
<event>
 6    0  0.1191266E-005  0.6836251E+03  0.7546771E-02  0.9745653E-01
         21   -1    0    0  502  501  0.00000000000E+00  0.00000000000E+00  0.10761663764E+03  0.10761663764E+03  0.00000000000E+00 0. -1.
         21   -1    0    0  501  502 -0.00000000000E+00 -0.00000000000E+00 -0.10856667836E+04  0.10856667836E+04  0.00000000000E+00 0. -1.
      99926    2    1    2    0    0  0.86601969731E+02  0.50708608487E+02 -0.90384150731E+03  0.10165754863E+04  0.45434016423E+03 0.  0.
         25    1    1    2    0    0 -0.86601969731E+02 -0.50708608487E+02 -0.74208638683E+02  0.17670793500E+03  0.12509000000E+03 0.  0.
         25    1    3    3    0    0 -0.65957004392E+02  0.14233422148E+03 -0.21443194875E+03  0.29366294587E+03  0.12509000000E+03 0.  0.
         25    1    3    3    0    0  0.15255897412E+03 -0.91625612996E+02 -0.68940955857E+03  0.72291254041E+03  0.12509000000E+03 0.  0.
<mgrwt>
<rscale>  2 0.68362507E+03</rscale>
<asrwt>0</asrwt>
<pdfrwt beam="1">  1       21 0.15825976E-01 0.68362507E+03</pdfrwt>
<pdfrwt beam="2">  1       21 0.15965688E+00 0.68362507E+03</pdfrwt>
<totfact> 0.74125993E+03</totfact>
</mgrwt>
</event>
<event>
 6    0  0.1191266E-005  0.6376029E+03  0.7546771E-02  0.9830324E-01
         21   -1    0    0  502  501  0.00000000000E+00  0.00000000000E+00  0.33751440152E+03  0.33751440152E+03  0.00000000000E+00 0.  1.
         21   -1    0    0  501  502 -0.00000000000E+00 -0.00000000000E+00 -0.30112601543E+03  0.30112601543E+03  0.00000000000E+00 0.  1.
      99926    2    1    2    0    0 -0.60233462002E+02 -0.87108094079E+02 -0.90050179399E+01  0.46856996323E+03  0.45635603436E+03 0.  0.
         25    1    3    3    0    0 -0.10803074944E+03 -0.19961543999E+03  0.81456190188E+02  0.27166079166E+03  0.12509000000E+03 0.  0.
         25    1    3    3    0    0  0.47797287435E+02  0.11250734592E+03 -0.90461208128E+02  0.19690917157E+03  0.12509000000E+03 0.  0.
         25    1    1    2    0    0  0.60233462002E+02  0.87108094079E+02  0.45393404029E+02  0.17007045372E+03  0.12509000000E+03 0.  0.
<mgrwt>
<rscale>  2 0.63760291E+03</rscale>
<asrwt>0</asrwt>
<pdfrwt beam="1">  1       21 0.49634471E-01 0.63760291E+03</pdfrwt>
<pdfrwt beam="2">  1       21 0.44283238E-01 0.63760291E+03</pdfrwt>
<totfact> 0.16394974E+04</totfact>
</mgrwt>
</event>
<event>
 6    0  0.1191266E-005  0.7377673E+03  0.7546771E-02  0.9654739E-01
         21   -1    0    0  502  501  0.00000000000E+00  0.00000000000E+00  0.19841418798E+04  0.19841418798E+04  0.00000000000E+00 0.  1.
         21   -1    0    0  501  502 -0.00000000000E+00 -0.00000000000E+00 -0.68581354849E+02  0.68581354849E+02  0.00000000000E+00 0.  1.
      99926    2    1    2    0    0 -0.17614388269E+03  0.26693001381E+02  0.10348659469E+04  0.11455244518E+04  0.45775491024E+03 0.  0.
         25    1    3    3    0    0  0.22414235315E+02  0.14373327969E+03  0.23277118238E+03  0.30164811467E+03  0.12509000000E+03 0.  0.
         25    1    1    2    0    0  0.17614388269E+03 -0.26693001381E+02  0.88069457807E+03  0.90719878288E+03  0.12509000000E+03 0.  0.
         25    1    3    3    0    0 -0.19855811800E+03 -0.11704027831E+03  0.80209476454E+03  0.84387633713E+03  0.12509000000E+03 0.  0.
<mgrwt>
<rscale>  2 0.73776728E+03</rscale>
<asrwt>0</asrwt>
<pdfrwt beam="1">  1       21 0.29178553E+00 0.73776728E+03</pdfrwt>
<pdfrwt beam="2">  1       21 0.10085495E-01 0.73776728E+03</pdfrwt>
<totfact> 0.22509808E+03</totfact>
</mgrwt>
</event>
<event>
 6    0  0.1191266E-005  0.6214247E+03  0.7546771E-02  0.9861927E-01
         21   -1    0    0  502  501  0.00000000000E+00  0.00000000000E+00  0.36090085325E+03  0.36090085325E+03  0.00000000000E+00 0. -1.
         21   -1    0    0  501  502 -0.00000000000E+00 -0.00000000000E+00 -0.26750332758E+03  0.26750332758E+03  0.00000000000E+00 0. -1.
      99926    2    1    2    0    0 -0.27100978156E+02 -0.90794041739E+02  0.10188130137E+03  0.47124978674E+03  0.45024275774E+03 0.  0.
         25    1    3    3    0    0  0.12538858455E+03 -0.12666083554E+03  0.15084410583E+03  0.26489000880E+03  0.12509000000E+03 0.  0.
         25    1    3    3    0    0 -0.15248956271E+03  0.35866793805E+02 -0.48962804454E+02  0.20635977794E+03  0.12509000000E+03 0.  0.
         25    1    1    2    0    0  0.27100978156E+02  0.90794041739E+02 -0.84837756981E+01  0.15715439409E+03  0.12509000000E+03 0.  0.
<mgrwt>
<rscale>  2 0.62142475E+03</rscale>
<asrwt>0</asrwt>
<pdfrwt beam="1">  1       21 0.53073655E-01 0.62142475E+03</pdfrwt>
<pdfrwt beam="2">  1       21 0.39338725E-01 0.62142475E+03</pdfrwt>
<totfact> 0.18229531E+04</totfact>
</mgrwt>
</event>
<event>
 6    0  0.1191266E-005  0.1255123E+04  0.7546771E-02  0.9065930E-01
         21   -1    0    0  502  501  0.00000000000E+00  0.00000000000E+00  0.34905016874E+03  0.34905016874E+03  0.00000000000E+00 0.  1.
         21   -1    0    0  501  502 -0.00000000000E+00 -0.00000000000E+00 -0.11283005354E+04  0.11283005354E+04  0.00000000000E+00 0.  1.
      99926    2    1    2    0    0  0.33371754192E+03  0.18795619016E+03 -0.87925457444E+03  0.10622082264E+04  0.45662104886E+03 0.  0.
         25    1    3    3    0    0  0.37972288393E+03  0.48765113939E+02 -0.57382117898E+03  0.70106045278E+03  0.12509000000E+03 0.  0.
         25    1    1    2    0    0 -0.33371754192E+03 -0.18795619016E+03  0.10000420777E+03  0.41514247780E+03  0.12509000000E+03 0.  0.
         25    1    3    3    0    0 -0.46005342010E+02  0.13919107622E+03 -0.30543339546E+03  0.36114777357E+03  0.12509000000E+03 0.  0.
<mgrwt>
<rscale>  2 0.12551231E+04</rscale>
<asrwt>0</asrwt>
<pdfrwt beam="1">  1       21 0.51330908E-01 0.12551231E+04</pdfrwt>
<pdfrwt beam="2">  1       21 0.16592655E+00 0.12551231E+04</pdfrwt>
<totfact> 0.56114362E+02</totfact>
</mgrwt>
</event>
<event>
 6    0  0.1191266E-005  0.5897293E+03  0.7546771E-02  0.9926947E-01
         21   -1    0    0  502  501  0.00000000000E+00  0.00000000000E+00  0.11227932292E+03  0.11227932292E+03  0.00000000000E+00 0.  1.
         21   -1    0    0  501  502 -0.00000000000E+00 -0.00000000000E+00 -0.77436493957E+03  0.77436493957E+03  0.00000000000E+00 0.  1.
      99926    2    1    2    0    0  0.68077386312E+02 -0.57258255497E+02 -0.44203320930E+03  0.61834665082E+03  0.42313849282E+03 0.  0.
         25    1    1    2    0    0 -0.68077386312E+02  0.57258255497E+02 -0.22005240735E+03  0.26829761167E+03  0.12509000000E+03 0.  0.
         25    1    3    3    0    0  0.43409354601E+02 -0.71063480078E+01 -0.46131017268E+03  0.47998901630E+03  0.12509000000E+03 0.  0.
         25    1    3    3    0    0  0.24668031711E+02 -0.50151907489E+02  0.19276963381E+02  0.13835763452E+03  0.12509000000E+03 0.  0.
<mgrwt>
<rscale>  2 0.58972933E+03</rscale>
<asrwt>0</asrwt>
<pdfrwt beam="1">  1       21 0.16511665E-01 0.58972933E+03</pdfrwt>
<pdfrwt beam="2">  1       21 0.11387720E+00 0.58972933E+03</pdfrwt>
<totfact> 0.17151663E+04</totfact>
</mgrwt>
</event>
<event>
 6    0  0.1191266E-005  0.6822639E+03  0.7546771E-02  0.9748053E-01
         21   -1    0    0  502  501  0.00000000000E+00  0.00000000000E+00  0.17403821037E+03  0.17403821037E+03  0.00000000000E+00 0. -1.
         21   -1    0    0  501  502 -0.00000000000E+00 -0.00000000000E+00 -0.66865197855E+03  0.66865197855E+03  0.00000000000E+00 0. -1.
      99926    2    1    2    0    0  0.12176319344E+03 -0.89274139957E+02 -0.39954754045E+03  0.62478827728E+03  0.45598904264E+03 0.  0.
         25    1    3    3    0    0  0.16103759955E+03  0.18443378146E+02 -0.15985677055E+02  0.20536873335E+03  0.12509000000E+03 0.  0.
         25    1    1    2    0    0 -0.12176319344E+03  0.89274139957E+02 -0.95066227730E+02  0.21790191164E+03  0.12509000000E+03 0.  0.
         25    1    3    3    0    0 -0.39274406114E+02 -0.10771751810E+03 -0.38356186340E+03  0.41941954394E+03  0.12509000000E+03 0.  0.
<mgrwt>
<rscale>  2 0.68226386E+03</rscale>
<asrwt>0</asrwt>
<pdfrwt beam="1">  1       21 0.25593855E-01 0.68226386E+03</pdfrwt>
<pdfrwt beam="2">  1       21 0.98331170E-01 0.68226386E+03</pdfrwt>
<totfact> 0.10442089E+04</totfact>
</mgrwt>
</event>
<event>
 6    0  0.1191266E-005  0.5952661E+03  0.7546771E-02  0.9915276E-01
         21   -1    0    0  502  501  0.00000000000E+00  0.00000000000E+00  0.31674138439E+02  0.31674138439E+02  0.00000000000E+00 0.  1.
         21   -1    0    0  501  502 -0.00000000000E+00 -0.00000000000E+00 -0.27967743915E+04  0.27967743915E+04  0.00000000000E+00 0.  1.
      99926    2    1    2    0    0 -0.54729031414E+02  0.92715425281E+01 -0.21816310305E+04  0.22291447087E+04  0.45441275366E+03 0.  0.
         25    1    3    3    0    0  0.11854374956E+03  0.11967511843E+03 -0.81918461817E+03  0.84562740097E+03  0.12509000000E+03 0.  0.
         25    1    1    2    0    0  0.54729031414E+02 -0.92715425281E+01 -0.58346922254E+03  0.59930382122E+03  0.12509000000E+03 0.  0.
         25    1    3    3    0    0 -0.17327278097E+03 -0.11040357590E+03 -0.13624464123E+04  0.13835173077E+04  0.12509000000E+03 0.  0.
<mgrwt>
<rscale>  2 0.59526606E+03</rscale>
<asrwt>0</asrwt>
<pdfrwt beam="1">  1       21 0.46579634E-02 0.59526606E+03</pdfrwt>
<pdfrwt beam="2">  1       21 0.41129019E+00 0.59526606E+03</pdfrwt>
<totfact> 0.16539941E+03</totfact>
</mgrwt>
</event>
<event>
 6    0  0.1191266E-005  0.9865215E+03  0.7546771E-02  0.9323453E-01
         21   -1    0    0  502  501  0.00000000000E+00  0.00000000000E+00  0.78326704313E+03  0.78326704313E+03  0.00000000000E+00 0. -1.
         21   -1    0    0  501  502 -0.00000000000E+00 -0.00000000000E+00 -0.31062993086E+03  0.31062993086E+03  0.00000000000E+00 0.  1.
      99926    2    1    2    0    0 -0.24265781366E+03 -0.25303210492E+03  0.43624451255E+03  0.71989163971E+03  0.45279867220E+03 0.  0.
         25    1    1    2    0    0  0.24265781366E+03  0.25303210492E+03  0.36392599721E+02  0.37400533428E+03  0.12509000000E+03 0.  0.
         25    1    3    3    0    0 -0.31488698159E+03 -0.25280592762E+03  0.27975058042E+03  0.50692459356E+03  0.12509000000E+03 0.  0.
         25    1    3    3    0    0  0.72229167922E+02 -0.22617730460E+00  0.15649393213E+03  0.21296704615E+03  0.12509000000E+03 0.  0.
<mgrwt>
<rscale>  2 0.98652154E+03</rscale>
<asrwt>0</asrwt>
<pdfrwt beam="1">  1       21 0.11518633E+00 0.98652154E+03</pdfrwt>
<pdfrwt beam="2">  1       21 0.45680872E-01 0.98652154E+03</pdfrwt>
<totfact> 0.20361589E+03</totfact>
</mgrwt>
</event>
<event>
 6    0  0.1191266E-005  0.5868568E+03  0.7546771E-02  0.9933056E-01
         21   -1    0    0  502  501  0.00000000000E+00  0.00000000000E+00  0.38417349717E+03  0.38417349717E+03  0.00000000000E+00 0.  1.
         21   -1    0    0  501  502 -0.00000000000E+00 -0.00000000000E+00 -0.22411804143E+03  0.22411804143E+03  0.00000000000E+00 0.  1.
      99926    2    1    2    0    0  0.28922154963E+01  0.69101436662E+01  0.16060306889E+03  0.48297624434E+03  0.45543011743E+03 0.  0.
         25    1    3    3    0    0 -0.95775994332E+02  0.18119363891E+02  0.25290218893E+03  0.29851026398E+03  0.12509000000E+03 0.  0.
         25    1    1    2    0    0 -0.28922154963E+01 -0.69101436662E+01 -0.54761314826E+00  0.12531529426E+03  0.12509000000E+03 0.  0.
         25    1    3    3    0    0  0.98668209828E+02 -0.11209220225E+02 -0.92299120037E+02  0.18446598036E+03  0.12509000000E+03 0.  0.
<mgrwt>
<rscale>  2 0.58685675E+03</rscale>
<asrwt>0</asrwt>
<pdfrwt beam="1">  1       21 0.56496103E-01 0.58685675E+03</pdfrwt>
<pdfrwt beam="2">  1       21 0.32958535E-01 0.58685675E+03</pdfrwt>
<totfact> 0.23001281E+04</totfact>
</mgrwt>
</event>
<event>
 6    0  0.1191266E-005  0.6496290E+03  0.7546771E-02  0.9807476E-01
         21   -1    0    0  502  501  0.00000000000E+00  0.00000000000E+00  0.55046328854E+03  0.55046328854E+03  0.00000000000E+00 0. -1.
         21   -1    0    0  501  502 -0.00000000000E+00 -0.00000000000E+00 -0.19166484198E+03  0.19166484198E+03  0.00000000000E+00 0. -1.
      99926    2    1    2    0    0 -0.13165335708E+03 -0.50530191956E+02  0.21900487838E+03  0.50744609769E+03  0.43549110046E+03 0.  0.
         25    1    3    3    0    0  0.18829335464E+01 -0.15477480558E+03  0.22026684779E+03  0.29685649431E+03  0.12509000000E+03 0.  0.
         25    1    1    2    0    0  0.13165335708E+03  0.50530191956E+02  0.13979356817E+03  0.23468203283E+03  0.12509000000E+03 0.  0.
         25    1    3    3    0    0 -0.13353629063E+03  0.10424461362E+03 -0.12619694087E+01  0.21058960338E+03  0.12509000000E+03 0.  0.
<mgrwt>
<rscale>  2 0.64962900E+03</rscale>
<asrwt>0</asrwt>
<pdfrwt beam="1">  1       21 0.80950483E-01 0.64962900E+03</pdfrwt>
<pdfrwt beam="2">  1       21 0.28186006E-01 0.64962900E+03</pdfrwt>
<totfact> 0.13815100E+04</totfact>
</mgrwt>
</event>
<event>
 6    0  0.1191266E-005  0.7169355E+03  0.7546771E-02  0.9688701E-01
         21   -1    0    0  502  501  0.00000000000E+00  0.00000000000E+00  0.10020480269E+03  0.10020480269E+03  0.00000000000E+00 0.  1.
         21   -1    0    0  501  502 -0.00000000000E+00 -0.00000000000E+00 -0.12823648192E+04  0.12823648192E+04  0.00000000000E+00 0.  1.
      99926    2    1    2    0    0  0.12335742768E+03 -0.82482632361E+02 -0.54201886849E+03  0.71365360542E+03  0.43988245604E+03 0.  0.
         25    1    3    3    0    0  0.16226947974E+03 -0.10837631053E+03 -0.53133411518E+03  0.57968979532E+03  0.12509000000E+03 0.  0.
         25    1    3    3    0    0 -0.38912052055E+02  0.25893678173E+02 -0.10684753301E+02  0.13396381010E+03  0.12509000000E+03 0.  0.
         25    1    1    2    0    0 -0.12335742768E+03  0.82482632361E+02 -0.64014114806E+03  0.66891601651E+03  0.12509000000E+03 0.  0.
<mgrwt>
<rscale>  2 0.71693546E+03</rscale>
<asrwt>0</asrwt>
<pdfrwt beam="1">  1       21 0.14736000E-01 0.71693546E+03</pdfrwt>
<pdfrwt beam="2">  1       21 0.18858307E+00 0.71693546E+03</pdfrwt>
<totfact> 0.51681964E+03</totfact>
</mgrwt>
</event>
<event>
 6    0  0.1191266E-005  0.6140622E+03  0.7546771E-02  0.9876653E-01
         21   -1    0    0  502  501  0.00000000000E+00  0.00000000000E+00  0.14341961002E+04  0.14341961002E+04  0.00000000000E+00 0. -1.
         21   -1    0    0  501  502 -0.00000000000E+00 -0.00000000000E+00 -0.65728873427E+02  0.65728873427E+02  0.00000000000E+00 0. -1.
      99926    2    1    2    0    0  0.91201949133E+02  0.36377338135E+02  0.11355601586E+04  0.12179066821E+04  0.42913716480E+03 0.  0.
         25    1    3    3    0    0  0.98973045636E+02 -0.14319917115E+03  0.66914760307E+03  0.70264335845E+03  0.12509000000E+03 0.  0.
         25    1    3    3    0    0 -0.77710965026E+01  0.17957650928E+03  0.46641255552E+03  0.51526332363E+03  0.12509000000E+03 0.  0.
         25    1    1    2    0    0 -0.91201949133E+02 -0.36377338135E+02  0.23290706813E+03  0.28201829150E+03  0.12509000000E+03 0.  0.
<mgrwt>
<rscale>  2 0.61406219E+03</rscale>
<asrwt>0</asrwt>
<pdfrwt beam="1">  1       21 0.21091117E+00 0.61406219E+03</pdfrwt>
<pdfrwt beam="2">  1       21 0.96660117E-02 0.61406219E+03</pdfrwt>
<totfact> 0.81132151E+03</totfact>
</mgrwt>
</event>
<event>
 6    0  0.1191266E-005  0.6336955E+03  0.7546771E-02  0.9837864E-01
         21   -1    0    0  502  501  0.00000000000E+00  0.00000000000E+00  0.15452554476E+03  0.15452554476E+03  0.00000000000E+00 0.  1.
         21   -1    0    0  501  502 -0.00000000000E+00 -0.00000000000E+00 -0.64968210626E+03  0.64968210626E+03  0.00000000000E+00 0.  1.
      99926    2    1    2    0    0 -0.10300910558E+03  0.24155029092E+02 -0.24944178682E+03  0.50888139099E+03  0.43074902649E+03 0.  0.
         25    1    3    3    0    0 -0.80909967943E+01  0.21227925948E+02 -0.31424152974E+03  0.33898574628E+03  0.12509000000E+03 0.  0.
         25    1    3    3    0    0 -0.94918108789E+02  0.29271031436E+01  0.64799742920E+02  0.16989564471E+03  0.12509000000E+03 0.  0.
         25    1    1    2    0    0  0.10300910558E+03 -0.24155029092E+02 -0.24571477468E+03  0.29532626002E+03  0.12509000000E+03 0.  0.
<mgrwt>
<rscale>  2 0.63369545E+03</rscale>
<asrwt>0</asrwt>
<pdfrwt beam="1">  1       21 0.22724345E-01 0.63369545E+03</pdfrwt>
<pdfrwt beam="2">  1       21 0.95541485E-01 0.63369545E+03</pdfrwt>
<totfact> 0.14261644E+04</totfact>
</mgrwt>
</event>
<event>
 6    0  0.1191266E-005  0.6907016E+03  0.7546771E-02  0.9733267E-01
         21   -1    0    0  502  501  0.00000000000E+00  0.00000000000E+00  0.11582450550E+03  0.11582450550E+03  0.00000000000E+00 0.  1.
         21   -1    0    0  501  502 -0.00000000000E+00 -0.00000000000E+00 -0.10297231751E+04  0.10297231751E+04  0.00000000000E+00 0.  1.
      99926    2    1    2    0    0 -0.89853947908E+01 -0.64478238929E+02 -0.90104190697E+03  0.10039461797E+04  0.43794204297E+03 0.  0.
         25    1    1    2    0    0  0.89853947908E+01  0.64478238929E+02 -0.12856762646E+02  0.14160150091E+03  0.12509000000E+03 0.  0.
         25    1    3    3    0    0  0.71538767631E+02 -0.18968143559E+03 -0.38794636589E+03  0.45524359764E+03  0.12509000000E+03 0.  0.
         25    1    3    3    0    0 -0.80524162422E+02  0.12520319666E+03 -0.51309554108E+03  0.54870258206E+03  0.12509000000E+03 0.  0.
<mgrwt>
<rscale>  2 0.69070161E+03</rscale>
<asrwt>0</asrwt>
<pdfrwt beam="1">  1       21 0.17033016E-01 0.69070161E+03</pdfrwt>
<pdfrwt beam="2">  1       21 0.15142988E+00 0.69070161E+03</pdfrwt>
<totfact> 0.74699763E+03</totfact>
</mgrwt>
</event>
<event>
 6    0  0.1191266E-005  0.6007108E+03  0.7546771E-02  0.9903932E-01
         21   -1    0    0  502  501  0.00000000000E+00  0.00000000000E+00  0.24794010282E+03  0.24794010282E+03  0.00000000000E+00 0.  1.
         21   -1    0    0  501  502 -0.00000000000E+00 -0.00000000000E+00 -0.36385145725E+03  0.36385145725E+03  0.00000000000E+00 0.  1.
      99926    2    1    2    0    0  0.34637680400E+02 -0.16037601045E+02 -0.21924177911E+02  0.45073855327E+03  0.44858399468E+03 0.  0.
         25    1    3    3    0    0 -0.11875743783E+03  0.11678644899E+03  0.17882313344E+02  0.20906862256E+03  0.12509000000E+03 0.  0.
         25    1    3    3    0    0  0.15339511823E+03 -0.13282405004E+03 -0.39806491255E+02  0.24166993071E+03  0.12509000000E+03 0.  0.
         25    1    1    2    0    0 -0.34637680400E+02  0.16037601045E+02 -0.93987176519E+02  0.16105300680E+03  0.12509000000E+03 0.  0.
<mgrwt>
<rscale>  2 0.60071080E+03</rscale>
<asrwt>0</asrwt>
<pdfrwt beam="1">  1       21 0.36461780E-01 0.60071080E+03</pdfrwt>
<pdfrwt beam="2">  1       21 0.53507567E-01 0.60071080E+03</pdfrwt>
<totfact> 0.21021608E+04</totfact>
</mgrwt>
</event>
<event>
 6    0  0.1191266E-005  0.6176205E+03  0.7546771E-02  0.9869509E-01
         21   -1    0    0  502  501  0.00000000000E+00  0.00000000000E+00  0.65540243565E+03  0.65540243565E+03  0.00000000000E+00 0.  1.
         21   -1    0    0  501  502 -0.00000000000E+00 -0.00000000000E+00 -0.14550413121E+03  0.14550413121E+03  0.00000000000E+00 0.  1.
      99926    2    1    2    0    0 -0.22470391872E+02  0.72475389838E+02  0.48881467363E+03  0.65309036940E+03  0.42641487404E+03 0.  0.
         25    1    1    2    0    0  0.22470391872E+02 -0.72475389838E+02  0.21083630804E+02  0.14781619746E+03  0.12509000000E+03 0.  0.
         25    1    3    3    0    0 -0.18380557107E+03  0.39472147999E+02  0.23937622092E+03  0.32907601199E+03  0.12509000000E+03 0.  0.
         25    1    3    3    0    0  0.16133517920E+03  0.33003241839E+02  0.24943845272E+03  0.32401435741E+03  0.12509000000E+03 0.  0.
<mgrwt>
<rscale>  2 0.61762047E+03</rscale>
<asrwt>0</asrwt>
<pdfrwt beam="1">  1       21 0.96382710E-01 0.61762047E+03</pdfrwt>
<pdfrwt beam="2">  1       21 0.21397667E-01 0.61762047E+03</pdfrwt>
<totfact> 0.15734653E+04</totfact>
</mgrwt>
</event>
<event>
 6    0  0.1191266E-005  0.6742305E+03  0.7546771E-02  0.9762345E-01
         21   -1    0    0  502  501  0.00000000000E+00  0.00000000000E+00  0.21832966659E+03  0.21832966659E+03  0.00000000000E+00 0. -1.
         21   -1    0    0  501  502 -0.00000000000E+00 -0.00000000000E+00 -0.52052795827E+03  0.52052795827E+03  0.00000000000E+00 0. -1.
      99926    2    1    2    0    0 -0.14687892827E+03 -0.24487042362E+02 -0.24604370554E+03  0.53643756544E+03  0.45282968295E+03 0.  0.
         25    1    3    3    0    0 -0.19861411414E+03  0.11492849292E+03 -0.61582116323E+02  0.26850696448E+03  0.12509000000E+03 0.  0.
         25    1    1    2    0    0  0.14687892827E+03  0.24487042362E+02 -0.56154586135E+02  0.20242005942E+03  0.12509000000E+03 0.  0.
         25    1    3    3    0    0  0.51735185876E+02 -0.13941553528E+03 -0.18446158922E+03  0.26793060096E+03  0.12509000000E+03 0.  0.
<mgrwt>
<rscale>  2 0.67423051E+03</rscale>
<asrwt>0</asrwt>
<pdfrwt beam="1">  1       21 0.32107304E-01 0.67423051E+03</pdfrwt>
<pdfrwt beam="2">  1       21 0.76548229E-01 0.67423051E+03</pdfrwt>
<totfact> 0.12062352E+04</totfact>
</mgrwt>
</event>
<event>
 6    0  0.1191266E-005  0.9701306E+03  0.7546771E-02  0.9341926E-01
         21   -1    0    0  502  501  0.00000000000E+00  0.00000000000E+00  0.41424784824E+03  0.41424784824E+03  0.00000000000E+00 0. -1.
         21   -1    0    0  501  502 -0.00000000000E+00 -0.00000000000E+00 -0.56798926747E+03  0.56798926747E+03  0.00000000000E+00 0. -1.
      99926    2    1    2    0    0 -0.35632668435E+03  0.82317687322E+02 -0.96035348607E+02  0.59143997355E+03  0.45478956289E+03 0.  0.
         25    1    1    2    0    0  0.35632668435E+03 -0.82317687322E+02 -0.57706070620E+02  0.39079714215E+03  0.12509000000E+03 0.  0.
         25    1    3    3    0    0 -0.12524513007E+03  0.22298183374E+03 -0.62795329405E+02  0.29154416866E+03  0.12509000000E+03 0.  0.
         25    1    3    3    0    0 -0.23108155428E+03 -0.14066414642E+03 -0.33240019201E+02  0.29989580489E+03  0.12509000000E+03 0.  0.
<mgrwt>
<rscale>  2 0.97013057E+03</rscale>
<asrwt>0</asrwt>
<pdfrwt beam="1">  1       21 0.60918802E-01 0.97013057E+03</pdfrwt>
<pdfrwt beam="2">  1       21 0.83527833E-01 0.97013057E+03</pdfrwt>
<totfact> 0.24066409E+03</totfact>
</mgrwt>
</event>
<event>
 6    0  0.1191266E-005  0.6044596E+03  0.7546771E-02  0.9896197E-01
         21   -1    0    0  502  501  0.00000000000E+00  0.00000000000E+00  0.73882323507E+02  0.73882323507E+02  0.00000000000E+00 0.  1.
         21   -1    0    0  501  502 -0.00000000000E+00 -0.00000000000E+00 -0.12363287388E+04  0.12363287388E+04  0.00000000000E+00 0.  1.
      99926    2    1    2    0    0  0.12241034827E+02 -0.35115857299E+02 -0.74750257530E+03  0.87522960889E+03  0.45374420308E+03 0.  0.
         25    1    1    2    0    0 -0.12241034827E+02  0.35115857299E+02 -0.41494383998E+03  0.43498145340E+03  0.12509000000E+03 0.  0.
         25    1    3    3    0    0 -0.82755091916E+02  0.12604767428E+03 -0.51794570203E+03  0.55376139246E+03  0.12509000000E+03 0.  0.
         25    1    3    3    0    0  0.94996126743E+02 -0.16116353158E+03 -0.22955687327E+03  0.32146821643E+03  0.12509000000E+03 0.  0.
<mgrwt>
<rscale>  2 0.60445956E+03</rscale>
<asrwt>0</asrwt>
<pdfrwt beam="1">  1       21 0.10865047E-01 0.60445956E+03</pdfrwt>
<pdfrwt beam="2">  1       21 0.18181305E+00 0.60445956E+03</pdfrwt>
<totfact> 0.10390486E+04</totfact>
</mgrwt>
</event>
<event>
 6    0  0.1191266E-005  0.1292964E+04  0.7546771E-02  0.9035164E-01
         21   -1    0    0  502  501  0.00000000000E+00  0.00000000000E+00  0.96568857222E+03  0.96568857222E+03  0.00000000000E+00 0. -1.
         21   -1    0    0  501  502 -0.00000000000E+00 -0.00000000000E+00 -0.43278828564E+03  0.43278828564E+03  0.00000000000E+00 0. -1.
      99926    2    1    2    0    0 -0.97344393375E+01  0.33116014632E+03 -0.18575231886E+03  0.59730841288E+03  0.46098982019E+03 0.  0.
         25    1    3    3    0    0  0.53506410200E+02  0.71836244794E+02  0.10261579830E+03  0.18493483220E+03  0.12509000000E+03 0.  0.
         25    1    1    2    0    0  0.97344393375E+01 -0.33116014632E+03  0.71865260544E+03  0.80116844497E+03  0.12509000000E+03 0.  0.
         25    1    3    3    0    0 -0.63240849538E+02  0.25932390153E+03 -0.28836811716E+03  0.41237358068E+03  0.12509000000E+03 0.  0.
<mgrwt>
<rscale>  2 0.12929636E+04</rscale>
<asrwt>0</asrwt>
<pdfrwt beam="1">  1       21 0.14201303E+00 0.12929636E+04</pdfrwt>
<pdfrwt beam="2">  1       21 0.63645336E-01 0.12929636E+04</pdfrwt>
<totfact> 0.53812144E+02</totfact>
</mgrwt>
</event>
<event>
 6    0  0.1191266E-005  0.8482425E+03  0.7546771E-02  0.9492699E-01
         21   -1    0    0  502  501  0.00000000000E+00  0.00000000000E+00  0.46465149895E+03  0.46465149895E+03  0.00000000000E+00 0. -1.
         21   -1    0    0  501  502 -0.00000000000E+00 -0.00000000000E+00 -0.38712634074E+03  0.38712634074E+03  0.00000000000E+00 0. -1.
      99926    2    1    2    0    0 -0.19756133711E+03 -0.11788757130E+03  0.19600259585E+03  0.56435415814E+03  0.47660322790E+03 0.  0.
         25    1    1    2    0    0  0.19756133711E+03  0.11788757130E+03 -0.11847743763E+03  0.28742368155E+03  0.12509000000E+03 0.  0.
         25    1    3    3    0    0 -0.30683573365E+03 -0.96221198331E+02  0.19604915541E+03  0.39684942470E+03  0.12509000000E+03 0.  0.
         25    1    3    3    0    0  0.10927439654E+03 -0.21666372965E+02 -0.46559564101E-01  0.16750473344E+03  0.12509000000E+03 0.  0.
<mgrwt>
<rscale>  2 0.84824250E+03</rscale>
<asrwt>0</asrwt>
<pdfrwt beam="1">  1       21 0.68331103E-01 0.84824250E+03</pdfrwt>
<pdfrwt beam="2">  1       21 0.56930344E-01 0.84824250E+03</pdfrwt>
<totfact> 0.45468757E+03</totfact>
</mgrwt>
</event>
<event>
 6    0  0.1191266E-005  0.6762086E+03  0.7546771E-02  0.9758807E-01
         21   -1    0    0  502  501  0.00000000000E+00  0.00000000000E+00  0.25672177404E+03  0.25672177404E+03  0.00000000000E+00 0.  1.
         21   -1    0    0  501  502 -0.00000000000E+00 -0.00000000000E+00 -0.44528561007E+03  0.44528561007E+03  0.00000000000E+00 0.  1.
      99926    2    1    2    0    0  0.13447390432E+03 -0.62728141668E+02 -0.11095508975E+03  0.49298902057E+03  0.45684690189E+03 0.  0.
         25    1    3    3    0    0  0.12641676186E+03 -0.15023965022E+03  0.81985979433E+02  0.24682455126E+03  0.12509000000E+03 0.  0.
         25    1    1    2    0    0 -0.13447390432E+03  0.62728141668E+02 -0.77608746277E+02  0.20901836354E+03  0.12509000000E+03 0.  0.
         25    1    3    3    0    0  0.80571424522E+01  0.87511508556E+02 -0.19294106919E+03  0.24616446931E+03  0.12509000000E+03 0.  0.
<mgrwt>
<rscale>  2 0.67620858E+03</rscale>
<asrwt>0</asrwt>
<pdfrwt beam="1">  1       21 0.37753202E-01 0.67620858E+03</pdfrwt>
<pdfrwt beam="2">  1       21 0.65483177E-01 0.67620858E+03</pdfrwt>
<totfact> 0.12366299E+04</totfact>
</mgrwt>
</event>
<event>
 6    0  0.1191266E-005  0.6376880E+03  0.7546771E-02  0.9830160E-01
         21   -1    0    0  502  501  0.00000000000E+00  0.00000000000E+00  0.74574323768E+03  0.74574323768E+03  0.00000000000E+00 0.  1.
         21   -1    0    0  501  502 -0.00000000000E+00 -0.00000000000E+00 -0.13632239988E+03  0.13632239988E+03  0.00000000000E+00 0.  1.
      99926    2    1    2    0    0  0.25427949286E+02  0.95400068932E+02  0.53647873602E+03  0.70680636656E+03  0.44946418306E+03 0.  0.
         25    1    3    3    0    0  0.97748199663E+02  0.19275234856E+03  0.17316779972E+03  0.30387953761E+03  0.12509000000E+03 0.  0.
         25    1    3    3    0    0 -0.72320250376E+02 -0.97352279631E+02  0.36331093629E+03  0.40292682896E+03  0.12509000000E+03 0.  0.
         25    1    1    2    0    0 -0.25427949286E+02 -0.95400068932E+02  0.72942101788E+02  0.17525927100E+03  0.12509000000E+03 0.  0.
<mgrwt>
<rscale>  2 0.63768804E+03</rscale>
<asrwt>0</asrwt>
<pdfrwt beam="1">  1       21 0.10966812E+00 0.63768804E+03</pdfrwt>
<pdfrwt beam="2">  1       21 0.20047412E-01 0.63768804E+03</pdfrwt>
<totfact> 0.12915778E+04</totfact>
</mgrwt>
</event>
<event>
 6    0  0.1191266E-005  0.1066995E+04  0.7546771E-02  0.9237971E-01
         21   -1    0    0  502  501  0.00000000000E+00  0.00000000000E+00  0.81502425815E+03  0.81502425815E+03  0.00000000000E+00 0. -1.
         21   -1    0    0  501  502 -0.00000000000E+00 -0.00000000000E+00 -0.34921627973E+03  0.34921627973E+03  0.00000000000E+00 0.  1.
      99926    2    1    2    0    0 -0.12985434063E+03 -0.38337636033E+03  0.41539586396E+03  0.73759258836E+03  0.45568576802E+03 0.  0.
         25    1    3    3    0    0 -0.16271327791E+02 -0.17906283562E+03 -0.28162404982E+02  0.22083678217E+03  0.12509000000E+03 0.  0.
         25    1    1    2    0    0  0.12985434063E+03  0.38337636033E+03  0.50412114465E+02  0.42664794952E+03  0.12509000000E+03 0.  0.
         25    1    3    3    0    0 -0.11358301284E+03 -0.20431352472E+03  0.44355826894E+03  0.51675580619E+03  0.12509000000E+03 0.  0.
<mgrwt>
<rscale>  2 0.10669953E+04</rscale>
<asrwt>0</asrwt>
<pdfrwt beam="1">  1       21 0.11985651E+00 0.10669953E+04</pdfrwt>
<pdfrwt beam="2">  1       21 0.51355335E-01 0.10669953E+04</pdfrwt>
<totfact> 0.14101298E+03</totfact>
</mgrwt>
</event>
<event>
 6    0  0.1191266E-005  0.7216677E+03  0.7546771E-02  0.9680879E-01
         21   -1    0    0  502  501  0.00000000000E+00  0.00000000000E+00  0.10132707055E+04  0.10132707055E+04  0.00000000000E+00 0. -1.
         21   -1    0    0  501  502 -0.00000000000E+00 -0.00000000000E+00 -0.12849583710E+03  0.12849583710E+03  0.00000000000E+00 0. -1.
      99926    2    1    2    0    0  0.13044654752E+02  0.15693000237E+03  0.77641516292E+03  0.91332284594E+03  0.45446774038E+03 0.  0.
         25    1    1    2    0    0 -0.13044654752E+02 -0.15693000237E+03  0.10835970546E+03  0.22844369663E+03  0.12509000000E+03 0.  0.
         25    1    3    3    0    0  0.26555247350E+02  0.17374159387E+03  0.75421425415E+03  0.78446030612E+03  0.12509000000E+03 0.  0.
         25    1    3    3    0    0 -0.13510592597E+02 -0.16811591492E+02  0.22200908763E+02  0.12886253983E+03  0.12509000000E+03 0.  0.
<mgrwt>
<rscale>  2 0.72166770E+03</rscale>
<asrwt>0</asrwt>
<pdfrwt beam="1">  1       21 0.14901039E+00 0.72166770E+03</pdfrwt>
<pdfrwt beam="2">  1       21 0.18896447E-01 0.72166770E+03</pdfrwt>
<totfact> 0.63690786E+03</totfact>
</mgrwt>
</event>
<event>
 6    0  0.1191266E-005  0.7513948E+03  0.7546771E-02  0.9633165E-01
         21   -1    0    0  502  501  0.00000000000E+00  0.00000000000E+00  0.65840902108E+03  0.65840902108E+03  0.00000000000E+00 0. -1.
         21   -1    0    0  501  502 -0.00000000000E+00 -0.00000000000E+00 -0.21437819705E+03  0.21437819705E+03  0.00000000000E+00 0. -1.
      99926    2    1    2    0    0  0.16786774128E+03 -0.12875738857E+03  0.26802349935E+03  0.57048913656E+03  0.45701555231E+03 0.  0.
         25    1    3    3    0    0  0.11265173964E+03 -0.91032483915E+02  0.35557260639E+03  0.40380281585E+03  0.12509000000E+03 0.  0.
         25    1    1    2    0    0 -0.16786774128E+03  0.12875738857E+03  0.17600732469E+03  0.30229808157E+03  0.12509000000E+03 0.  0.
         25    1    3    3    0    0  0.55216001645E+02 -0.37724904657E+02 -0.87549107040E+02  0.16668632071E+03  0.12509000000E+03 0.  0.
<mgrwt>
<rscale>  2 0.75139481E+03</rscale>
<asrwt>0</asrwt>
<pdfrwt beam="1">  1       21 0.96824856E-01 0.75139481E+03</pdfrwt>
<pdfrwt beam="2">  1       21 0.31526206E-01 0.75139481E+03</pdfrwt>
<totfact> 0.70645682E+03</totfact>
</mgrwt>
</event>
<event>
 6    0  0.1191266E-005  0.7778358E+03  0.7546771E-02  0.9592665E-01
         21   -1    0    0  502  501  0.00000000000E+00  0.00000000000E+00  0.50957683182E+03  0.50957683182E+03  0.00000000000E+00 0. -1.
         21   -1    0    0  501  502 -0.00000000000E+00 -0.00000000000E+00 -0.29682890228E+03  0.29682890228E+03  0.00000000000E+00 0. -1.
      99926    2    1    2    0    0  0.55494970499E+02  0.60147300828E+02 -0.11723705246E+03  0.44414203734E+03  0.42049998016E+03 0.  0.
         25    1    3    3    0    0 -0.84419015107E+02 -0.54404398906E+02  0.49848267591E+02  0.16798442372E+03  0.12509000000E+03 0.  0.
         25    1    3    3    0    0  0.13991398561E+03  0.11455169973E+03 -0.16708532005E+03  0.27615761362E+03  0.12509000000E+03 0.  0.
         25    1    1    2    0    0 -0.55494970499E+02 -0.60147300828E+02  0.32998498200E+03  0.36226369676E+03  0.12509000000E+03 0.  0.
<mgrwt>
<rscale>  2 0.77783580E+03</rscale>
<asrwt>0</asrwt>
<pdfrwt beam="1">  1       21 0.74937769E-01 0.77783580E+03</pdfrwt>
<pdfrwt beam="2">  1       21 0.43651310E-01 0.77783580E+03</pdfrwt>
<totfact> 0.65996011E+03</totfact>
</mgrwt>
</event>
<event>
 6    0  0.1191266E-005  0.5914127E+03  0.7546771E-02  0.9923384E-01
         21   -1    0    0  502  501  0.00000000000E+00  0.00000000000E+00  0.27396210962E+03  0.27396210962E+03  0.00000000000E+00 0. -1.
         21   -1    0    0  501  502 -0.00000000000E+00 -0.00000000000E+00 -0.31917638805E+03  0.31917638805E+03  0.00000000000E+00 0. -1.
      99926    2    1    2    0    0 -0.14507407322E+01 -0.35617175944E+02  0.22634549718E+01  0.45467431046E+03  0.45326914465E+03 0.  0.
         25    1    3    3    0    0 -0.17655542299E+03  0.51040842220E+02  0.10197440323E+02  0.22254995136E+03  0.12509000000E+03 0.  0.
         25    1    1    2    0    0  0.14507407322E+01  0.35617175944E+02 -0.47477733403E+02  0.13846418721E+03  0.12509000000E+03 0.  0.
         25    1    3    3    0    0  0.17510468226E+03 -0.86658018164E+02 -0.79339853510E+01  0.23212435909E+03  0.12509000000E+03 0.  0.
<mgrwt>
<rscale>  2 0.59141267E+03</rscale>
<asrwt>0</asrwt>
<pdfrwt beam="1">  1       21 0.40288545E-01 0.59141267E+03</pdfrwt>
<pdfrwt beam="2">  1       21 0.46937704E-01 0.59141267E+03</pdfrwt>
<totfact> 0.22696920E+04</totfact>
</mgrwt>
</event>
<event>
 6    0  0.1191266E-005  0.7205248E+03  0.7546771E-02  0.9682762E-01
         21   -1    0    0  502  501  0.00000000000E+00  0.00000000000E+00  0.17039317643E+04  0.17039317643E+04  0.00000000000E+00 0.  1.
         21   -1    0    0  501  502 -0.00000000000E+00 -0.00000000000E+00 -0.76170295985E+02  0.76170295985E+02  0.00000000000E+00 0.  1.
      99926    2    1    2    0    0  0.41595788444E+02 -0.13422454768E+03  0.79111416069E+03  0.92256333564E+03  0.45333768230E+03 0.  0.
         25    1    3    3    0    0  0.43404570014E+02 -0.10734696167E+03  0.60568264602E+02  0.18089596362E+03  0.12509000000E+03 0.  0.
         25    1    1    2    0    0 -0.41595788444E+02  0.13422454768E+03  0.83664730760E+03  0.85753872462E+03  0.12509000000E+03 0.  0.
         25    1    3    3    0    0 -0.18087815698E+01 -0.26877586019E+02  0.73054589609E+03  0.74166737202E+03  0.12509000000E+03 0.  0.
<mgrwt>
<rscale>  2 0.72052477E+03</rscale>
<asrwt>0</asrwt>
<pdfrwt beam="1">  1       21 0.25057818E+00 0.72052477E+03</pdfrwt>
<pdfrwt beam="2">  1       21 0.11201515E-01 0.72052477E+03</pdfrwt>
<totfact> 0.33599104E+03</totfact>
</mgrwt>
</event>
<event>
 6    0  0.1191266E-005  0.6755318E+03  0.7546771E-02  0.9760016E-01
         21   -1    0    0  502  501  0.00000000000E+00  0.00000000000E+00  0.24647666600E+03  0.24647666600E+03  0.00000000000E+00 0.  1.
         21   -1    0    0  501  502 -0.00000000000E+00 -0.00000000000E+00 -0.46286653124E+03  0.46286653124E+03  0.00000000000E+00 0.  1.
      99926    2    1    2    0    0  0.10423924363E+03  0.71942778397E+02 -0.24296616132E+03  0.52935600078E+03  0.45292784938E+03 0.  0.
         25    1    1    2    0    0 -0.10423924363E+03 -0.71942778397E+02  0.26576296081E+02  0.17998719646E+03  0.12509000000E+03 0.  0.
         25    1    3    3    0    0  0.17752893695E+03 -0.41271154305E+02  0.43869528676E+01  0.22110310963E+03  0.12509000000E+03 0.  0.
         25    1    3    3    0    0 -0.73289693317E+02  0.11321393270E+03 -0.24735311419E+03  0.30825289115E+03  0.12509000000E+03 0.  0.
<mgrwt>
<rscale>  2 0.67553179E+03</rscale>
<asrwt>0</asrwt>
<pdfrwt beam="1">  1       21 0.36246569E-01 0.67553179E+03</pdfrwt>
<pdfrwt beam="2">  1       21 0.68068607E-01 0.67553179E+03</pdfrwt>
<totfact> 0.12323903E+04</totfact>
</mgrwt>
</event>
<event>
 6    0  0.1191266E-005  0.5851011E+03  0.7546771E-02  0.9936808E-01
         21   -1    0    0  502  501  0.00000000000E+00  0.00000000000E+00  0.25972342513E+03  0.25972342513E+03  0.00000000000E+00 0. -1.
         21   -1    0    0  501  502 -0.00000000000E+00 -0.00000000000E+00 -0.32952681139E+03  0.32952681139E+03  0.00000000000E+00 0. -1.
      99926    2    1    2    0    0  0.45604317122E+02  0.35158900800E+01 -0.28316936991E+02  0.44974844873E+03  0.44651954380E+03 0.  0.
         25    1    3    3    0    0  0.19949011522E+03 -0.36338378455E+02 -0.58242059111E+02  0.24526807654E+03  0.12509000000E+03 0.  0.
         25    1    3    3    0    0 -0.15388579810E+03  0.39854268535E+02  0.29925122121E+02  0.20448037219E+03  0.12509000000E+03 0.  0.
         25    1    1    2    0    0 -0.45604317122E+02 -0.35158900800E+01 -0.41486449265E+02  0.13950178779E+03  0.12509000000E+03 0.  0.
<mgrwt>
<rscale>  2 0.58510113E+03</rscale>
<asrwt>0</asrwt>
<pdfrwt beam="1">  1       21 0.38194622E-01 0.58510113E+03</pdfrwt>
<pdfrwt beam="2">  1       21 0.48459825E-01 0.58510113E+03</pdfrwt>
<totfact> 0.23709985E+04</totfact>
</mgrwt>
</event>
<event>
 6    0  0.1191266E-005  0.6524318E+03  0.7546771E-02  0.9802227E-01
         21   -1    0    0  502  501  0.00000000000E+00  0.00000000000E+00  0.23196268315E+03  0.23196268315E+03  0.00000000000E+00 0. -1.
         21   -1    0    0  501  502 -0.00000000000E+00 -0.00000000000E+00 -0.45876688889E+03  0.45876688889E+03  0.00000000000E+00 0. -1.
      99926    2    1    2    0    0 -0.98453095951E+02 -0.80119569666E+02 -0.19144666882E+03  0.50904352122E+03  0.45427009802E+03 0.  0.
         25    1    3    3    0    0 -0.76130479046E+02 -0.18362169242E+03 -0.24230364147E+03  0.33744827535E+03  0.12509000000E+03 0.  0.
         25    1    3    3    0    0 -0.22322616905E+02  0.10350212276E+03  0.50856972643E+02  0.17159524588E+03  0.12509000000E+03 0.  0.
         25    1    1    2    0    0  0.98453095951E+02  0.80119569666E+02 -0.35357536917E+02  0.18168605082E+03  0.12509000000E+03 0.  0.
<mgrwt>
<rscale>  2 0.65243175E+03</rscale>
<asrwt>0</asrwt>
<pdfrwt beam="1">  1       21 0.34112159E-01 0.65243175E+03</pdfrwt>
<pdfrwt beam="2">  1       21 0.67465719E-01 0.65243175E+03</pdfrwt>
<totfact> 0.14293563E+04</totfact>
</mgrwt>
</event>
<event>
 6    0  0.1191266E-005  0.8148633E+03  0.7546771E-02  0.9538749E-01
         21   -1    0    0  502  501  0.00000000000E+00  0.00000000000E+00  0.37292573274E+03  0.37292573274E+03  0.00000000000E+00 0. -1.
         21   -1    0    0  501  502 -0.00000000000E+00 -0.00000000000E+00 -0.44513032425E+03  0.44513032425E+03  0.00000000000E+00 0. -1.
      99926    2    1    2    0    0 -0.78970528706E+02 -0.88756155464E+02 -0.28169565611E+03  0.54667438152E+03  0.45319580448E+03 0.  0.
         25    1    1    2    0    0  0.78970528706E+02  0.88756155464E+02  0.20949106460E+03  0.27138167547E+03  0.12509000000E+03 0.  0.
         25    1    3    3    0    0  0.11586012060E+03 -0.12927996049E+03 -0.56844286399E+02  0.22139479832E+03  0.12509000000E+03 0.  0.
         25    1    3    3    0    0 -0.19483064931E+03  0.40523805023E+02 -0.22485136971E+03  0.32527958320E+03  0.12509000000E+03 0.  0.
<mgrwt>
<rscale>  2 0.81486331E+03</rscale>
<asrwt>0</asrwt>
<pdfrwt beam="1">  1       21 0.54842020E-01 0.81486331E+03</pdfrwt>
<pdfrwt beam="2">  1       21 0.65460341E-01 0.81486331E+03</pdfrwt>
<totfact> 0.54696904E+03</totfact>
</mgrwt>
</event>
<event>
 6    0  0.1191266E-005  0.8276224E+03  0.7546771E-02  0.9520874E-01
         21   -1    0    0  502  501  0.00000000000E+00  0.00000000000E+00  0.79442091922E+03  0.79442091922E+03  0.00000000000E+00 0.  1.
         21   -1    0    0  501  502 -0.00000000000E+00 -0.00000000000E+00 -0.21555285652E+03  0.21555285652E+03  0.00000000000E+00 0.  1.
      99926    2    1    2    0    0  0.10148943992E+03 -0.24824606194E+03  0.36855311552E+03  0.64692267907E+03  0.45907661676E+03 0.  0.
         25    1    3    3    0    0  0.20433495318E+03 -0.15909111680E+03  0.70357236464E+02  0.29607499955E+03  0.12509000000E+03 0.  0.
         25    1    1    2    0    0 -0.10148943992E+03  0.24824606194E+03  0.21031494718E+03  0.36305109667E+03  0.12509000000E+03 0.  0.
         25    1    3    3    0    0 -0.10284551326E+03 -0.89154945143E+02  0.29819587905E+03  0.35084767952E+03  0.12509000000E+03 0.  0.
<mgrwt>
<rscale>  2 0.82762237E+03</rscale>
<asrwt>0</asrwt>
<pdfrwt beam="1">  1       21 0.11682660E+00 0.82762237E+03</pdfrwt>
<pdfrwt beam="2">  1       21 0.31698950E-01 0.82762237E+03</pdfrwt>
<totfact> 0.43092046E+03</totfact>
</mgrwt>
</event>
<event>
 6    0  0.1191266E-005  0.9799091E+03  0.7546771E-02  0.9330859E-01
         21   -1    0    0  502  501  0.00000000000E+00  0.00000000000E+00  0.39360949705E+03  0.39360949705E+03  0.00000000000E+00 0.  1.
         21   -1    0    0  501  502 -0.00000000000E+00 -0.00000000000E+00 -0.60988230564E+03  0.60988230564E+03  0.00000000000E+00 0.  1.
      99926    2    1    2    0    0  0.28868818430E+03 -0.23865392334E+03 -0.10960934716E+03  0.59444270419E+03  0.44838750731E+03 0.  0.
         25    1    1    2    0    0 -0.28868818430E+03  0.23865392334E+03 -0.10666346143E+03  0.40904909849E+03  0.12509000000E+03 0.  0.
         25    1    3    3    0    0  0.24871766427E+03 -0.40434737564E+01 -0.15966061335E+03  0.32096081655E+03  0.12509000000E+03 0.  0.
         25    1    3    3    0    0  0.39970520021E+02 -0.23461044958E+03  0.50051266197E+02  0.27348188765E+03  0.12509000000E+03 0.  0.
<mgrwt>
<rscale>  2 0.97990911E+03</rscale>
<asrwt>0</asrwt>
<pdfrwt beam="1">  1       21 0.57883750E-01 0.97990911E+03</pdfrwt>
<pdfrwt beam="2">  1       21 0.89688574E-01 0.97990911E+03</pdfrwt>
<totfact> 0.22707156E+03</totfact>
</mgrwt>
</event>
<event>
 6    0  0.1191266E-005  0.7429990E+03  0.7546771E-02  0.9646398E-01
         21   -1    0    0  502  501  0.00000000000E+00  0.00000000000E+00  0.72520536430E+02  0.72520536430E+02  0.00000000000E+00 0.  1.
         21   -1    0    0  501  502 -0.00000000000E+00 -0.00000000000E+00 -0.19030732938E+04  0.19030732938E+04  0.00000000000E+00 0.  1.
      99926    2    1    2    0    0  0.32967475463E+02  0.17472945467E+03 -0.15029057885E+04  0.15823797905E+04  0.46215014371E+03 0.  0.
         25    1    3    3    0    0  0.35895153097E+02  0.29446754003E+03 -0.96663380733E+03  0.10188366011E+04  0.12509000000E+03 0.  0.
         25    1    1    2    0    0 -0.32967475463E+02 -0.17472945467E+03 -0.32764696881E+03  0.39321403973E+03  0.12509000000E+03 0.  0.
         25    1    3    3    0    0 -0.29276776340E+01 -0.11973808535E+03 -0.53627198118E+03  0.56354318937E+03  0.12509000000E+03 0.  0.
<mgrwt>
<rscale>  2 0.74299905E+03</rscale>
<asrwt>0</asrwt>
<pdfrwt beam="1">  1       21 0.10664784E-01 0.74299905E+03</pdfrwt>
<pdfrwt beam="2">  1       21 0.27986373E+00 0.74299905E+03</pdfrwt>
<totfact> 0.24040101E+03</totfact>
</mgrwt>
</event>
<event>
 6    0  0.1191266E-005  0.7049295E+03  0.7546771E-02  0.9708839E-01
         21   -1    0    0  502  501  0.00000000000E+00  0.00000000000E+00  0.16677401606E+04  0.16677401606E+04  0.00000000000E+00 0.  1.
         21   -1    0    0  501  502 -0.00000000000E+00 -0.00000000000E+00 -0.74490863632E+02  0.74490863632E+02  0.00000000000E+00 0.  1.
      99926    2    1    2    0    0  0.12610211415E+03 -0.11687406048E+03  0.12269180617E+04  0.13186659510E+04  0.45165326422E+03 0.  0.
         25    1    3    3    0    0  0.14968853783E+03  0.77554663035E+02  0.32201940506E+03  0.38440263976E+03  0.12509000000E+03 0.  0.
         25    1    1    2    0    0 -0.12610211415E+03  0.11687406048E+03  0.36633123529E+03  0.42356507323E+03  0.12509000000E+03 0.  0.
         25    1    3    3    0    0 -0.23586423674E+02 -0.19442872351E+03  0.90489865665E+03  0.93426331129E+03  0.12509000000E+03 0.  0.
<mgrwt>
<rscale>  2 0.70492951E+03</rscale>
<asrwt>0</asrwt>
<pdfrwt beam="1">  1       21 0.24525588E+00 0.70492951E+03</pdfrwt>
<pdfrwt beam="2">  1       21 0.10954540E-01 0.70492951E+03</pdfrwt>
<totfact> 0.37957206E+03</totfact>
</mgrwt>
</event>
<event>
 6    0  0.1191266E-005  0.7431373E+03  0.7546771E-02  0.9646179E-01
         21   -1    0    0  502  501  0.00000000000E+00  0.00000000000E+00  0.89075188869E+02  0.89075188869E+02  0.00000000000E+00 0.  1.
         21   -1    0    0  501  502 -0.00000000000E+00 -0.00000000000E+00 -0.15499630752E+04  0.15499630752E+04  0.00000000000E+00 0.  1.
      99926    2    1    2    0    0  0.12098673213E+03  0.18931400908E+03 -0.95436675579E+03  0.10709812712E+04  0.43093780904E+03 0.  0.
         25    1    3    3    0    0  0.43126289487E+02  0.18482872751E+03 -0.87402262633E+03  0.90309722334E+03  0.12509000000E+03 0.  0.
         25    1    1    2    0    0 -0.12098673213E+03 -0.18931400908E+03 -0.50652113050E+03  0.56805699285E+03  0.12509000000E+03 0.  0.
         25    1    3    3    0    0  0.77860442644E+02  0.44852815780E+01 -0.80344129456E+02  0.16788404784E+03  0.12509000000E+03 0.  0.
<mgrwt>
<rscale>  2 0.74313728E+03</rscale>
<asrwt>0</asrwt>
<pdfrwt beam="1">  1       21 0.13099293E-01 0.74313728E+03</pdfrwt>
<pdfrwt beam="2">  1       21 0.22793573E+00 0.74313728E+03</pdfrwt>
<totfact> 0.34879403E+03</totfact>
</mgrwt>
</event>
<event>
 6    0  0.1191266E-005  0.6417691E+03  0.7546771E-02  0.9822348E-01
         21   -1    0    0  502  501  0.00000000000E+00  0.00000000000E+00  0.39722998491E+03  0.39722998491E+03  0.00000000000E+00 0.  1.
         21   -1    0    0  501  502 -0.00000000000E+00 -0.00000000000E+00 -0.25921232912E+03  0.25921232912E+03  0.00000000000E+00 0.  1.
      99926    2    1    2    0    0 -0.11711059011E+03  0.22964351879E+02  0.91131744833E+02  0.47731094180E+03  0.45307669160E+03 0.  0.
         25    1    3    3    0    0 -0.16856993598E+03 -0.42581493567E+02  0.19895180445E+03  0.29233257688E+03  0.12509000000E+03 0.  0.
         25    1    3    3    0    0  0.51459345872E+02  0.65545845446E+02 -0.10782005961E+03  0.18497836492E+03  0.12509000000E+03 0.  0.
         25    1    1    2    0    0  0.11711059011E+03 -0.22964351879E+02  0.46885910953E+02  0.17913137224E+03  0.12509000000E+03 0.  0.
<mgrwt>
<rscale>  2 0.64176915E+03</rscale>
<asrwt>0</asrwt>
<pdfrwt beam="1">  1       21 0.58416175E-01 0.64176915E+03</pdfrwt>
<pdfrwt beam="2">  1       21 0.38119460E-01 0.64176915E+03</pdfrwt>
<totfact> 0.15724363E+04</totfact>
</mgrwt>
</event>
<event>
 6    0  0.1191266E-005  0.8316876E+03  0.7546771E-02  0.9515250E-01
         21   -1    0    0  502  501  0.00000000000E+00  0.00000000000E+00  0.54947185635E+03  0.54947185635E+03  0.00000000000E+00 0. -1.
         21   -1    0    0  501  502 -0.00000000000E+00 -0.00000000000E+00 -0.31471324347E+03  0.31471324347E+03  0.00000000000E+00 0. -1.
      99926    2    1    2    0    0  0.37563391259E+02 -0.10303217033E+03  0.41243826579E+03  0.62078377762E+03  0.45082207021E+03 0.  0.
         25    1    3    3    0    0  0.55993087430E+02  0.77108314459E+02  0.36244927707E+03  0.39509227346E+03  0.12509000000E+03 0.  0.
         25    1    1    2    0    0 -0.37563391259E+02  0.10303217033E+03 -0.17767965292E+03  0.24340132220E+03  0.12509000000E+03 0.  0.
         25    1    3    3    0    0 -0.18429696171E+02 -0.18014048479E+03  0.49988988729E+02  0.22569150417E+03  0.12509000000E+03 0.  0.
<mgrwt>
<rscale>  2 0.83168761E+03</rscale>
<asrwt>0</asrwt>
<pdfrwt beam="1">  1       21 0.80804685E-01 0.83168761E+03</pdfrwt>
<pdfrwt beam="2">  1       21 0.46281359E-01 0.83168761E+03</pdfrwt>
<totfact> 0.48459869E+03</totfact>
</mgrwt>
</event>
<event>
 6    0  0.1191266E-005  0.6859320E+03  0.7546771E-02  0.9741597E-01
         21   -1    0    0  502  501  0.00000000000E+00  0.00000000000E+00  0.39345188722E+02  0.39345188722E+02  0.00000000000E+00 0. -1.
         21   -1    0    0  501  502 -0.00000000000E+00 -0.00000000000E+00 -0.29895824876E+04  0.29895824876E+04  0.00000000000E+00 0. -1.
      99926    2    1    2    0    0  0.14886744627E+03 -0.80823326445E+01 -0.23336484854E+04  0.23823550866E+04  0.45549277163E+03 0.  0.
         25    1    3    3    0    0  0.26305677820E+03 -0.68838366809E+02 -0.14458271841E+04  0.14764827611E+04  0.12509000000E+03 0.  0.
         25    1    3    3    0    0 -0.11418933193E+03  0.60756034165E+02 -0.88782130125E+03  0.90587232559E+03  0.12509000000E+03 0.  0.
         25    1    1    2    0    0 -0.14886744627E+03  0.80823326445E+01 -0.61658881355E+03  0.64657258970E+03  0.12509000000E+03 0.  0.
<mgrwt>
<rscale>  2 0.68593203E+03</rscale>
<asrwt>0</asrwt>
<pdfrwt beam="1">  1       21 0.57860559E-02 0.68593203E+03</pdfrwt>
<pdfrwt beam="2">  1       21 0.43964458E+00 0.68593203E+03</pdfrwt>
<totfact> 0.70847936E+02</totfact>
</mgrwt>
</event>
<event>
 6    0  0.1191266E-005  0.6750966E+03  0.7546771E-02  0.9760794E-01
         21   -1    0    0  502  501  0.00000000000E+00  0.00000000000E+00  0.11860166528E+03  0.11860166528E+03  0.00000000000E+00 0. -1.
         21   -1    0    0  501  502 -0.00000000000E+00 -0.00000000000E+00 -0.96068522645E+03  0.96068522645E+03  0.00000000000E+00 0. -1.
      99926    2    1    2    0    0  0.14430686728E+03  0.46162853459E+02 -0.51289242219E+03  0.69592049380E+03  0.44529901860E+03 0.  0.
         25    1    1    2    0    0 -0.14430686728E+03 -0.46162853459E+02 -0.32919113897E+03  0.38336639793E+03  0.12509000000E+03 0.  0.
         25    1    3    3    0    0  0.76749627483E+02 -0.20066263962E+02 -0.51823962435E+03  0.53899255710E+03  0.12509000000E+03 0.  0.
         25    1    3    3    0    0  0.67557239798E+02  0.66229117421E+02  0.53472021593E+01  0.15692793669E+03  0.12509000000E+03 0.  0.
<mgrwt>
<rscale>  2 0.67509664E+03</rscale>
<asrwt>0</asrwt>
<pdfrwt beam="1">  1       21 0.17441422E-01 0.67509664E+03</pdfrwt>
<pdfrwt beam="2">  1       21 0.14127724E+00 0.67509664E+03</pdfrwt>
<totfact> 0.86623657E+03</totfact>
</mgrwt>
</event>
<event>
 6    0  0.1191266E-005  0.6698097E+03  0.7546771E-02  0.9770302E-01
         21   -1    0    0  502  501  0.00000000000E+00  0.00000000000E+00  0.12153780818E+03  0.12153780818E+03  0.00000000000E+00 0. -1.
         21   -1    0    0  501  502 -0.00000000000E+00 -0.00000000000E+00 -0.92285068885E+03  0.92285068885E+03  0.00000000000E+00 0. -1.
      99926    2    1    2    0    0  0.11093982008E+03 -0.40195693243E+02 -0.70743426713E+03  0.84847004558E+03  0.45333744442E+03 0.  0.
         25    1    3    3    0    0  0.20348939789E+02  0.87947737330E+02 -0.60264037998E+03  0.62207059047E+03  0.12509000000E+03 0.  0.
         25    1    3    3    0    0  0.90590880288E+02 -0.12814343057E+03 -0.10479388715E+03  0.22639945511E+03  0.12509000000E+03 0.  0.
         25    1    1    2    0    0 -0.11093982008E+03  0.40195693243E+02 -0.93878613542E+02  0.19591845144E+03  0.12509000000E+03 0.  0.
<mgrwt>
<rscale>  2 0.66980967E+03</rscale>
<asrwt>0</asrwt>
<pdfrwt beam="1">  1       21 0.17873207E-01 0.66980967E+03</pdfrwt>
<pdfrwt beam="2">  1       21 0.13571334E+00 0.66980967E+03</pdfrwt>
<totfact> 0.92219186E+03</totfact>
</mgrwt>
</event>
<event>
 6    0  0.1191266E-005  0.6203112E+03  0.7546771E-02  0.9864140E-01
         21   -1    0    0  502  501  0.00000000000E+00  0.00000000000E+00  0.10271731017E+03  0.10271731017E+03  0.00000000000E+00 0.  1.
         21   -1    0    0  501  502 -0.00000000000E+00 -0.00000000000E+00 -0.93651702400E+03  0.93651702400E+03  0.00000000000E+00 0.  1.
      99926    2    1    2    0    0 -0.27048430518E+02  0.79788022150E+02 -0.72264011627E+03  0.85187982982E+03  0.44316222847E+03 0.  0.
         25    1    1    2    0    0  0.27048430518E+02 -0.79788022150E+02 -0.11115959756E+03  0.18735450435E+03  0.12509000000E+03 0.  0.
         25    1    3    3    0    0 -0.12671497533E+03 -0.22343508776E+02 -0.10991139068E+03  0.21043749490E+03  0.12509000000E+03 0.  0.
         25    1    3    3    0    0  0.99666544815E+02  0.10213153093E+03 -0.61272872559E+03  0.64144233492E+03  0.12509000000E+03 0.  0.
<mgrwt>
<rscale>  2 0.62031124E+03</rscale>
<asrwt>0</asrwt>
<pdfrwt beam="1">  1       21 0.15105487E-01 0.62031124E+03</pdfrwt>
<pdfrwt beam="2">  1       21 0.13772309E+00 0.62031124E+03</pdfrwt>
<totfact> 0.12300887E+04</totfact>
</mgrwt>
</event>
<event>
 6    0  0.1191266E-005  0.6108348E+03  0.7546771E-02  0.9883179E-01
         21   -1    0    0  502  501  0.00000000000E+00  0.00000000000E+00  0.75515077458E+02  0.75515077458E+02  0.00000000000E+00 0. -1.
         21   -1    0    0  501  502 -0.00000000000E+00 -0.00000000000E+00 -0.12352471882E+04  0.12352471882E+04  0.00000000000E+00 0. -1.
      99926    2    1    2    0    0  0.39046316224E+02 -0.73731208937E+02 -0.99976469150E+03  0.10912218609E+04  0.42927241403E+03 0.  0.
         25    1    3    3    0    0  0.82190292989E+02 -0.15857220513E+03 -0.28212787849E+03  0.35657262433E+03  0.12509000000E+03 0.  0.
         25    1    1    2    0    0 -0.39046316224E+02  0.73731208937E+02 -0.15996741923E+03  0.21954040470E+03  0.12509000000E+03 0.  0.
         25    1    3    3    0    0 -0.43143976766E+02  0.84840996195E+02 -0.71763681301E+03  0.73464923661E+03  0.12509000000E+03 0.  0.
<mgrwt>
<rscale>  2 0.61083480E+03</rscale>
<asrwt>0</asrwt>
<pdfrwt beam="1">  1       21 0.11105159E-01 0.61083480E+03</pdfrwt>
<pdfrwt beam="2">  1       21 0.18165398E+00 0.61083480E+03</pdfrwt>
<totfact> 0.99953407E+03</totfact>
</mgrwt>
</event>
<event>
 6    0  0.1191266E-005  0.1142168E+04  0.7546771E-02  0.9165039E-01
         21   -1    0    0  502  501  0.00000000000E+00  0.00000000000E+00  0.14713899346E+03  0.14713899346E+03  0.00000000000E+00 0.  1.
         21   -1    0    0  501  502 -0.00000000000E+00 -0.00000000000E+00 -0.22165242736E+04  0.22165242736E+04  0.00000000000E+00 0.  1.
      99926    2    1    2    0    0  0.35422966335E+03  0.29636292932E+03 -0.14446219376E+04  0.15767157576E+04  0.43103410261E+03 0.  0.
         25    1    3    3    0    0  0.11258770580E+03  0.31021298980E+03 -0.70265576553E+03  0.78630828781E+03  0.12509000000E+03 0.  0.
         25    1    1    2    0    0 -0.35422966335E+03 -0.29636292932E+03 -0.62476334258E+03  0.78694750944E+03  0.12509000000E+03 0.  0.
         25    1    3    3    0    0  0.24164195755E+03 -0.13850060481E+02 -0.74196617203E+03  0.79040746983E+03  0.12509000000E+03 0.  0.
<mgrwt>
<rscale>  2 0.11421684E+04</rscale>
<asrwt>0</asrwt>
<pdfrwt beam="1">  1       21 0.21638090E-01 0.11421684E+04</pdfrwt>
<pdfrwt beam="2">  1       21 0.32595941E+00 0.11421684E+04</pdfrwt>
<totfact> 0.29761740E+02</totfact>
</mgrwt>
</event>
<event>
 6    0  0.1191266E-005  0.7112659E+03  0.7546771E-02  0.9698158E-01
         21   -1    0    0  502  501  0.00000000000E+00  0.00000000000E+00  0.98291945315E+03  0.98291945315E+03  0.00000000000E+00 0. -1.
         21   -1    0    0  501  502 -0.00000000000E+00 -0.00000000000E+00 -0.12867257936E+03  0.12867257936E+03  0.00000000000E+00 0. -1.
      99926    2    1    2    0    0 -0.13730600174E+03  0.12683553128E+03  0.59108997404E+03  0.76541396837E+03  0.44892203716E+03 0.  0.
         25    1    3    3    0    0 -0.12478125584E+03 -0.11143046255E+01  0.33702837725E+02  0.17987493670E+03  0.12509000000E+03 0.  0.
         25    1    3    3    0    0 -0.12524745904E+02  0.12794983591E+03  0.55738713632E+03  0.58553903166E+03  0.12509000000E+03 0.  0.
         25    1    1    2    0    0  0.13730600174E+03 -0.12683553128E+03  0.26315689975E+03  0.34617806414E+03  0.12509000000E+03 0.  0.
<mgrwt>
<rscale>  2 0.71126586E+03</rscale>
<asrwt>0</asrwt>
<pdfrwt beam="1">  1       21 0.14454697E+00 0.71126586E+03</pdfrwt>
<pdfrwt beam="2">  1       21 0.18922439E-01 0.71126586E+03</pdfrwt>
<totfact> 0.69190945E+03</totfact>
</mgrwt>
</event>
